Process 0 of 1 is on cl214.stfx.acenet.ca - thread support 1
initial socket setup ...start
initial socket setup ...done 
now start server 0 ... 

cmd = /usr/bin/ssh clhead /usr/local/qchem/bin/get_hostid 1504100125 > /scratch/tmp/6063492.1.medium.q/qchem19609/lic.dat
                  Welcome to Q-Chem
     A Quantum Leap Into The Future Of Chemistry

 Y. Shao, L. Fusti-Molnar, Y. Jung, J. Kussmann, C. Ochsenfeld,
 S. T. Brown, A. T. B. Gilbert, L. V. Slipchenko,S. V. Levchenko,
 D. P. O'Neill, R. A. DiStasio Jr., R. C. Lochan, T. Wang,
 G. J. O. Beran, N. A. Besley, J. M. Herbert, C. Y. Lin,
 T. Van Voorhis, S. H. Chien, A. Sodt, R. P. Steele, 
 V. A. Rassolov, P. E. Maslen, P. P. Korambath, R. D. Adamson,
 B. Austin, J. Baker, E. F. C. Byrd, H. Dachsel, R. J. Doerksen,
 A. Dreuw, B. D. Dunietz, A. D. Dutoi, T. R. Furlani,
 S. R. Gwaltney, A. Heyden, S. Hirata, C.-P. Hsu, G. Kedziora,
 R. Z. Khaliullin, P. Klunzinger, A. M. Lee, M. S. Lee, W. Liang,
 I. Lotan, N. Nair, B. Peters, E. I. Proynov, P. A. Pieniazek, 
 Y. M. Rhee, J. Ritchie, E. Rosta, C. D. Sherrill, 
 A. C. Simmonett, J. E. Subotnik, H. L. Woodcock III,
 W. Zhang, A. T. Bell, A. K. Chakraborty, D. M. Chipman,
 F. J. Keil, A. Warshel, W. J. Hehre, H. F. Schaefer III,
 J. Kong, A. I. Krylov, P. M. W. Gill, M. Head-Gordon,
 Q-Chem, Version 3.1, Q-Chem, Inc., Pittsburgh, PA (2007).

 Additional authors for Version 3.1: 
 Z. Gan, Y. Zhao, N. E. Schultz, D. Truhlar, E. Epifanovsky and M. Oana.

 Additional authors for Version 3.2: 
 R. Baer, B. R. Brooks, D. Casanova, J.-D. Chai, C.-L. Cheng, 
 C. Cramer, D. Crittenden, A. Ghysels, G. Hawkins, E. G. Hohenstein, 
 C. Kelley, W. Kurlancheek, D. Liotard, E. Livshits, P. Manohar, 
 A. Marenich, D. Neuhauser, R. Olson, M. A. Rohrdanz, K. S. Thanthiriwatte, 
 A. J. W. Thom, V. Vanovschi, C. F. Williams, Q. Wu and Z.-Q. You. 


 Intel X86 Linux Version

 Q-chem begins on Sun Jul  7 08:37:52 2013  

 Parallel job on  1  processors
Processing $rem in /usr/local/qchem/config/preferences.

theFileMan(): MAXOPENFILES=974 MAX_SUB_FILE_NUM=16
Maximum size of a physical file is 2.0 GB, maximum size of a tmp-file is 32.0 GB


--------------------------------------------------------------
User input:
--------------------------------------------------------------

$molecule
-1,2
C          0.00000        0.00000        0.01515
S          0.00000        0.00000        1.53251
$end

$comment
negative
$end

$xc_functional
C PBE   1.00
X wPBE  1.00
$end

$rem
SYMMETRY_DECOMPOSITION	0
exchange 		general
LRC_DFT                 true
BASIS                   g3large
omega			800
mem_static              760
max_scf_cycles          200
scf_final_print         1
sym_ignore              true
$end

--------------------------------------------------------------
 Writing REM_CC_EA            2
 ----------------------------------------------------
       Standard Nuclear Orientation (Angstroms)
    I     Atom         X            Y            Z
 ----------------------------------------------------
    1      C       0.000000     0.000000     0.015150
    2      S       0.000000     0.000000     1.532510
 ----------------------------------------------------
 Nuclear Repulsion Energy =    33.4798678210 hartrees
 There are       12 alpha and       11 beta electrons
 Requested basis set is G3large
 There are 29 shells and 108 basis functions

Total QAlloc Memory Limit   2000 MB
Mega-Array Size       743 MB
MEM_STATIC part       760 MB

                       Distance Matrix (Angstroms)
             C (  1)
   S (  2)  1.517360
 
 A cutoff of  1.0D-08 yielded    423 shell pairs
 There are   5944 function pairs (  8263 Cartesian)
Evaluating contribution to one-electron hamiltonian from nuclear
 Smallest overlap matrix eigenvalue = 6.21E-04
 Multipole matrices computed through 2nd order

  Scale SEOQF with 1.000000e-01/1.000000e-01/1.000000e-01

 Standard Electronic Orientation quadrupole field applied
 Nucleus-field energy     =    -0.0000000040 hartrees
 Guess from superposition of atomic densities
 Warning:  Energy on first SCF cycle will be non-variational
 Long-range K will be added via erf
 Coulomb attenuation parameter = 0.8 bohr**(-1)
 An unrestricted Kohn-Sham SCF calculation will be
 performed using Pulay DIIS extrapolation
 Exchange:  wPBE + LR-HF      Correlation:  PBE
 Using SG-1 standard quadrature grid
 SCF converges when DIIS error is below 1.0E-05
 Requested basis set is G3large
 There are 29 shells and 108 basis functions
 A cutoff of  1.0D-08 yielded    423 shell pairs
 There are   5944 function pairs (  8263 Cartesian)
 Warning!  Inaccurate integrated density:
   Number of electrons =    23
   Numerical integral  =    21.999971347074
   Relative error      =    -4.3479506649 %
 ---------------------------------------
  Cycle       Energy         DIIS Error
 ---------------------------------------
    1    -436.2507019929      3.46E-02
    2    -436.0327487380      3.49E-03
    3    -436.0733526358      1.94E-03
    4    -436.0820446849      6.64E-04
    5    -436.0860875681      4.41E-04
    6    -436.0879500261      2.21E-04
    7    -436.0890774374      1.12E-04
    8    -436.0894807632      3.10E-05
    9    -436.0895280413      9.60E-06 Convergence criterion met
 ---------------------------------------
 One-Electron    Energy =  -673.1491652520
 Total Coulomb   Energy =   234.7112489758
 Alpha Exchange  Energy =    -4.1694153182
 Beta  Exchange  Energy =    -3.8737523064
 DFT   Exchange  Energy =   -22.2659009533
 DFT Correlation Energy =    -0.8224110042
 Nuclear Repu.   Energy =    33.4798678169
 Nuclear Attr.   Energy = -1108.7546708279
 Kinetic         Energy =   435.6055055759
 <S^2> = 0.7658
 SCF time:  CPU 26.33 s  wall 27.62 s
 Final Alpha MO Eigenvalues
            1           2           3           4           5           6
    1 -88.2339507 -10.1051984  -7.8787431  -5.8635409  -5.8620529  -5.8601351
            7           8           9          10          11          12
    1  -0.8155834  -0.4501495  -0.2791478  -0.2274240  -0.2118269  -0.0430315
           13          14          15          16          17
    1   0.2200415   0.2332399   0.2397512   0.2556215   0.2612646
 Final Beta MO Eigenvalues
            1           2           3           4           5           6
    1 -88.2334314 -10.0936052  -7.8780805  -5.8633719  -5.8618882  -5.8577470
            7           8           9          10          11          12
    1  -0.7960812  -0.4021843  -0.2251711  -0.2028243  -0.1852866   0.2218430
           13          14          15          16
    1   0.2350704   0.2442300   0.2526883   0.2626891
 Analysis of SCF Wavefunction
 
 --------------------------------------------------------------
                    Orbital Energies (a.u.)
 --------------------------------------------------------------
 
 Alpha MOs
 -- Occupied --
-88.234 -10.105  -7.879  -5.864  -5.862  -5.860  -0.816  -0.450
 -0.279  -0.227  -0.212  -0.043
 -- Virtual --
  0.220   0.233   0.240   0.256   0.261   0.295   0.308   0.346
  0.404   0.486   0.549   0.549   0.607   0.649   0.663   0.715
  0.718   0.765   0.900   0.925   0.998   1.056   1.057   1.115
  1.243   1.243   1.257   1.265   1.346   1.402   1.404   1.405
  1.441   1.442   1.459   1.459   1.751   1.755   1.758   1.897
  2.248   2.251   2.472   3.210   3.213   3.294   3.294   3.363
  3.363   3.363   3.364   3.468   3.688   3.808   3.810   3.947
  3.947   4.017   4.018   4.058   4.060   4.226   4.456   4.461
  4.833   5.036   5.038   5.460   5.466   5.842   8.926  17.542
 17.546  18.063  23.823  23.898  23.980  24.096  24.099  24.546
 27.735  27.735  28.289  31.354  31.354  31.362  31.362  31.391
 31.394  31.435  41.295  41.411  41.538  41.574  41.575 189.535
 
 Beta MOs
 -- Occupied --
-88.233 -10.094  -7.878  -5.863  -5.862  -5.858  -0.796  -0.402
 -0.225  -0.203  -0.185
 -- Virtual --
  0.222   0.235   0.244   0.253   0.263   0.273   0.296   0.355
  0.382   0.408   0.492   0.557   0.557   0.612   0.664   0.677
  0.718   0.731   0.773   0.934   0.962   1.006   1.086   1.087
  1.128   1.247   1.247   1.267   1.285   1.354   1.408   1.410
  1.411   1.457   1.458   1.460   1.478   1.757   1.763   1.774
  1.904   2.248   2.264   2.477   3.224   3.259   3.331   3.332
  3.370   3.385   3.387   3.393   3.487   3.699   3.860   3.860
  3.954   3.954   4.025   4.025   4.069   4.100   4.239   4.458
  4.475   4.841   5.038   5.041   5.461   5.474   5.846   8.928
 17.543  17.549  18.063  23.829  23.900  23.981  24.096  24.101
 24.552  27.744  27.762  28.296  31.355  31.355  31.362  31.362
 31.391  31.395  31.435  41.316  41.419  41.558  41.578  41.593
189.536
 --------------------------------------------------------------
 
          Ground-State Mulliken Net Atomic Charges

     Atom                 Charge (a.u.)    Spin (a.u.)
  --------------------------------------------------------
      1 C                    -0.515551       0.802483
      2 S                    -0.484449       0.197517
  --------------------------------------------------------
  Sum of atomic charges =    -1.000000
  Sum of spin   charges =     1.000000

 -----------------------------------------------------------------
                    Cartesian Multipole Moments
 -----------------------------------------------------------------
    Charge (ESU x 10^10)
                -4.8032
    Dipole Moment (Debye)
         X       0.0000      Y       0.0001      Z      -2.6141
       Tot       2.6141
    Quadrupole Moments (Debye-Ang)
        XX     -23.4679     XY      -1.4299     YY     -23.4787
        XZ       0.0002     YZ      -0.0004     ZZ     -30.4676
    Octapole Moments (Debye-Ang^2)
       XXX       0.0000    XXY       0.0000    XYY       0.0000
       YYY      -0.0001    XXZ     -23.9528    XYZ      -1.5399
       YYZ     -23.9646    XZZ       0.0004    YZZ      -0.0005
       ZZZ     -78.3631
    Hexadecapole Moments (Debye-Ang^3)
      XXXX     -39.7826   XXXY      -2.7316   XXYY     -13.2690
      XYYY      -2.7317   YYYY     -39.8241   XXXZ      -0.0002
      XXYZ      -0.0005   XYYZ      -0.0001   YYYZ      -0.0013
      XXZZ     -53.1084   XYZZ      -5.0942   YYZZ     -53.1472
      XZZZ       0.0012   YZZZ      -0.0020   ZZZZ    -271.6625
 -----------------------------------------------------------------
 Total job time:  27.75s(wall), 26.45s(cpu) 
 Sun Jul  7 08:38:20 2013

        *************************************************************
        *                                                           *
        *  Thank you very much for using Q-Chem.  Have a nice day.  *
        *                                                           *
        *************************************************************


0 sent ACK to 0 
now end server 0 ... 
 
**********************************************************************
Job 2 of 3 
**********************************************************************
 
Process 0 of 1 is on cl214.stfx.acenet.ca - thread support 1
initial socket setup ...start
initial socket setup ...done 
now start server 0 ... 

cmd = /usr/bin/ssh clhead /usr/local/qchem/bin/get_hostid 361200617 > /scratch/tmp/6063492.1.medium.q/qchem19609/lic.dat
                  Welcome to Q-Chem
     A Quantum Leap Into The Future Of Chemistry

 Y. Shao, L. Fusti-Molnar, Y. Jung, J. Kussmann, C. Ochsenfeld,
 S. T. Brown, A. T. B. Gilbert, L. V. Slipchenko,S. V. Levchenko,
 D. P. O'Neill, R. A. DiStasio Jr., R. C. Lochan, T. Wang,
 G. J. O. Beran, N. A. Besley, J. M. Herbert, C. Y. Lin,
 T. Van Voorhis, S. H. Chien, A. Sodt, R. P. Steele, 
 V. A. Rassolov, P. E. Maslen, P. P. Korambath, R. D. Adamson,
 B. Austin, J. Baker, E. F. C. Byrd, H. Dachsel, R. J. Doerksen,
 A. Dreuw, B. D. Dunietz, A. D. Dutoi, T. R. Furlani,
 S. R. Gwaltney, A. Heyden, S. Hirata, C.-P. Hsu, G. Kedziora,
 R. Z. Khaliullin, P. Klunzinger, A. M. Lee, M. S. Lee, W. Liang,
 I. Lotan, N. Nair, B. Peters, E. I. Proynov, P. A. Pieniazek, 
 Y. M. Rhee, J. Ritchie, E. Rosta, C. D. Sherrill, 
 A. C. Simmonett, J. E. Subotnik, H. L. Woodcock III,
 W. Zhang, A. T. Bell, A. K. Chakraborty, D. M. Chipman,
 F. J. Keil, A. Warshel, W. J. Hehre, H. F. Schaefer III,
 J. Kong, A. I. Krylov, P. M. W. Gill, M. Head-Gordon,
 Q-Chem, Version 3.1, Q-Chem, Inc., Pittsburgh, PA (2007).

 Additional authors for Version 3.1: 
 Z. Gan, Y. Zhao, N. E. Schultz, D. Truhlar, E. Epifanovsky and M. Oana.

 Additional authors for Version 3.2: 
 R. Baer, B. R. Brooks, D. Casanova, J.-D. Chai, C.-L. Cheng, 
 C. Cramer, D. Crittenden, A. Ghysels, G. Hawkins, E. G. Hohenstein, 
 C. Kelley, W. Kurlancheek, D. Liotard, E. Livshits, P. Manohar, 
 A. Marenich, D. Neuhauser, R. Olson, M. A. Rohrdanz, K. S. Thanthiriwatte, 
 A. J. W. Thom, V. Vanovschi, C. F. Williams, Q. Wu and Z.-Q. You. 


 Intel X86 Linux Version

 Q-chem begins on Sun Jul  7 08:38:23 2013  

 Parallel job on  1  processors
Processing $rem in /usr/local/qchem/config/preferences.

theFileMan(): MAXOPENFILES=974 MAX_SUB_FILE_NUM=16
Maximum size of a physical file is 2.0 GB, maximum size of a tmp-file is 32.0 GB


--------------------------------------------------------------
User input:
--------------------------------------------------------------

$molecule
0,1
C          0.00000        0.00000        0.01515
S          0.00000        0.00000        1.53251
$end

$comment
neutral
$end

$xc_functional
C PBE   1.00
X wPBE  1.00
$end


$rem
SYMMETRY_DECOMPOSITION	0
LRC_DFT                 true
exchange 		general
BASIS                   g3large
omega			800
mem_static              760
max_scf_cycles          200
scf_final_print         1
sym_ignore              true
$end

--------------------------------------------------------------
 Writing REM_CC_EA            2
 ----------------------------------------------------
       Standard Nuclear Orientation (Angstroms)
    I     Atom         X            Y            Z
 ----------------------------------------------------
    1      C       0.000000     0.000000     0.015150
    2      S       0.000000     0.000000     1.532510
 ----------------------------------------------------
 Nuclear Repulsion Energy =    33.4798678210 hartrees
 There are       11 alpha and       11 beta electrons
 Requested basis set is G3large
 There are 29 shells and 108 basis functions

Total QAlloc Memory Limit   2000 MB
Mega-Array Size       743 MB
MEM_STATIC part       760 MB

                       Distance Matrix (Angstroms)
             C (  1)
   S (  2)  1.517360
 
 A cutoff of  1.0D-08 yielded    423 shell pairs
 There are   5944 function pairs (  8263 Cartesian)
Evaluating contribution to one-electron hamiltonian from nuclear
 Smallest overlap matrix eigenvalue = 6.21E-04
 Multipole matrices computed through 2nd order

  Scale SEOQF with 1.000000e-01/1.000000e-01/1.000000e-01

 Standard Electronic Orientation quadrupole field applied
 Nucleus-field energy     =    -0.0000000040 hartrees
 Guess from superposition of atomic densities
 Warning:  Energy on first SCF cycle will be non-variational
 Long-range K will be added via erf
 Coulomb attenuation parameter = 0.8 bohr**(-1)
 A restricted Kohn-Sham SCF calculation will be
 performed using Pulay DIIS extrapolation
 Exchange:  wPBE + LR-HF      Correlation:  PBE
 Using SG-1 standard quadrature grid
 SCF converges when DIIS error is below 1.0E-05
 Requested basis set is G3large
 There are 29 shells and 108 basis functions
 A cutoff of  1.0D-08 yielded    423 shell pairs
 There are   5944 function pairs (  8263 Cartesian)
 ---------------------------------------
  Cycle       Energy         DIIS Error
 ---------------------------------------
    1    -436.2507019929      3.46E-02
    2    -436.0392602039      2.48E-03
    3    -436.0630805057      1.28E-03
    4    -436.0701331132      8.05E-04
    5    -436.0739292760      4.44E-04
    6    -436.0757035747      1.95E-04
    7    -436.0761412015      6.52E-05
    8    -436.0761866743      2.00E-05
    9    -436.0761891129      4.46E-06 Convergence criterion met
 ---------------------------------------
 One-Electron    Energy =  -666.7687459964
 Total Coulomb   Energy =   228.0420989271
 Alpha Exchange  Energy =    -3.9112592669
 Beta  Exchange  Energy =    -3.9112592669
 DFT   Exchange  Energy =   -22.2118663733
 DFT Correlation Energy =    -0.7950249534
 Nuclear Repu.   Energy =    33.4798678169
 Nuclear Attr.   Energy = -1102.1109314633
 Kinetic         Energy =   435.3421854669
 SCF time:  CPU 22.75 s  wall 23.13 s
 Final Alpha MO Eigenvalues
            1           2           3           4           5           6
    1 -88.5301555 -10.4340117  -8.1747417  -6.1582021  -6.1582000  -6.1569983
            7           8           9          10          11          12
    1  -1.0975138  -0.7079020  -0.5025366  -0.5025363  -0.4848593   0.0156978
           13          14          15          16
    1   0.0157008   0.0705103   0.0788830   0.1000045
 Analysis of SCF Wavefunction
 
 --------------------------------------------------------------
                    Orbital Energies (a.u.)
 --------------------------------------------------------------
 
 Alpha MOs
 -- Occupied --
-88.530 -10.434  -8.175  -6.158  -6.158  -6.157  -1.098  -0.708
 -0.503  -0.503  -0.485
 -- Virtual --
  0.016   0.016   0.071   0.079   0.100   0.100   0.136   0.162
  0.162   0.223   0.261   0.311   0.311   0.400   0.431   0.431
  0.498   0.498   0.543   0.687   0.687   0.746   0.813   0.813
  0.867   0.992   0.992   1.008   1.008   1.088   1.131   1.131
  1.158   1.192   1.192   1.200   1.200   1.493   1.500   1.500
  1.629   1.980   1.980   2.198   2.926   2.926   3.012   3.012
  3.078   3.078   3.081   3.081   3.183   3.400   3.526   3.526
  3.659   3.659   3.730   3.730   3.776   3.776   3.943   4.171
  4.171   4.547   4.743   4.745   5.173   5.173   5.552   8.635
 17.250  17.250  17.769  23.513  23.602  23.684  23.802  23.802
 24.237  27.409  27.409  27.963  31.057  31.057  31.066  31.066
 31.097  31.097  31.139  40.966  41.082  41.208  41.245  41.245
189.240
 --------------------------------------------------------------
 
          Ground-State Mulliken Net Atomic Charges

     Atom                 Charge (a.u.)
  ----------------------------------------
      1 C                     0.049689
      2 S                    -0.049689
  ----------------------------------------
  Sum of atomic charges =     0.000000

 -----------------------------------------------------------------
                    Cartesian Multipole Moments
 -----------------------------------------------------------------
    Charge (ESU x 10^10)
                 0.0000
    Dipole Moment (Debye)
         X       0.0000      Y       0.0000      Z       1.8763
       Tot       1.8763
    Quadrupole Moments (Debye-Ang)
        XX     -18.1275     XY       0.0000     YY     -18.1275
        XZ       0.0001     YZ       0.0000     ZZ     -15.8920
    Octapole Moments (Debye-Ang^2)
       XXX       0.0000    XXY       0.0000    XYY       0.0000
       YYY       0.0000    XXZ     -18.3538    XYZ       0.0001
       YYZ     -18.3538    XZZ       0.0002    YZZ      -0.0001
       ZZZ     -47.7307
    Hexadecapole Moments (Debye-Ang^3)
      XXXX     -22.2479   XXXY       0.0000   XXYY      -7.4160
      XYYY       0.0000   YYYY     -22.2479   XXXZ       0.0002
      XXYZ       0.0000   XYYZ       0.0001   YYYZ       0.0000
      XXZZ     -35.1085   XYZZ       0.0000   YYZZ     -35.1085
      XZZZ       0.0007   YZZZ      -0.0002   ZZZZ    -176.0204
 -----------------------------------------------------------------
 Total job time:  23.25s(wall), 22.86s(cpu) 
 Sun Jul  7 08:38:46 2013

        *************************************************************
        *                                                           *
        *  Thank you very much for using Q-Chem.  Have a nice day.  *
        *                                                           *
        *************************************************************


0 sent ACK to 0 
now end server 0 ... 
 
**********************************************************************
Job 3 of 3 
**********************************************************************
 
Process 0 of 1 is on cl214.stfx.acenet.ca - thread support 1
initial socket setup ...start
initial socket setup ...done 
now start server 0 ... 

cmd = /usr/bin/ssh clhead /usr/local/qchem/bin/get_hostid 1053503938 > /scratch/tmp/6063492.1.medium.q/qchem19609/lic.dat
                  Welcome to Q-Chem
     A Quantum Leap Into The Future Of Chemistry

 Y. Shao, L. Fusti-Molnar, Y. Jung, J. Kussmann, C. Ochsenfeld,
 S. T. Brown, A. T. B. Gilbert, L. V. Slipchenko,S. V. Levchenko,
 D. P. O'Neill, R. A. DiStasio Jr., R. C. Lochan, T. Wang,
 G. J. O. Beran, N. A. Besley, J. M. Herbert, C. Y. Lin,
 T. Van Voorhis, S. H. Chien, A. Sodt, R. P. Steele, 
 V. A. Rassolov, P. E. Maslen, P. P. Korambath, R. D. Adamson,
 B. Austin, J. Baker, E. F. C. Byrd, H. Dachsel, R. J. Doerksen,
 A. Dreuw, B. D. Dunietz, A. D. Dutoi, T. R. Furlani,
 S. R. Gwaltney, A. Heyden, S. Hirata, C.-P. Hsu, G. Kedziora,
 R. Z. Khaliullin, P. Klunzinger, A. M. Lee, M. S. Lee, W. Liang,
 I. Lotan, N. Nair, B. Peters, E. I. Proynov, P. A. Pieniazek, 
 Y. M. Rhee, J. Ritchie, E. Rosta, C. D. Sherrill, 
 A. C. Simmonett, J. E. Subotnik, H. L. Woodcock III,
 W. Zhang, A. T. Bell, A. K. Chakraborty, D. M. Chipman,
 F. J. Keil, A. Warshel, W. J. Hehre, H. F. Schaefer III,
 J. Kong, A. I. Krylov, P. M. W. Gill, M. Head-Gordon,
 Q-Chem, Version 3.1, Q-Chem, Inc., Pittsburgh, PA (2007).

 Additional authors for Version 3.1: 
 Z. Gan, Y. Zhao, N. E. Schultz, D. Truhlar, E. Epifanovsky and M. Oana.

 Additional authors for Version 3.2: 
 R. Baer, B. R. Brooks, D. Casanova, J.-D. Chai, C.-L. Cheng, 
 C. Cramer, D. Crittenden, A. Ghysels, G. Hawkins, E. G. Hohenstein, 
 C. Kelley, W. Kurlancheek, D. Liotard, E. Livshits, P. Manohar, 
 A. Marenich, D. Neuhauser, R. Olson, M. A. Rohrdanz, K. S. Thanthiriwatte, 
 A. J. W. Thom, V. Vanovschi, C. F. Williams, Q. Wu and Z.-Q. You. 


 Intel X86 Linux Version

 Q-chem begins on Sun Jul  7 08:38:49 2013  

 Parallel job on  1  processors
Processing $rem in /usr/local/qchem/config/preferences.

theFileMan(): MAXOPENFILES=974 MAX_SUB_FILE_NUM=16
Maximum size of a physical file is 2.0 GB, maximum size of a tmp-file is 32.0 GB


--------------------------------------------------------------
User input:
--------------------------------------------------------------

$molecule
1,2
C          0.00000        0.00000        0.01515
S          0.00000        0.00000        1.53251
$end

$comment
positive
$end

$xc_functional
C PBE   1.00
X wPBE  1.00
$end

$rem
SYMMETRY_DECOMPOSITION	0
LRC_DFT                 true
exchange 		general
BASIS                   g3large
omega			800
mem_static              760
max_scf_cycles          200
scf_final_print         1
sym_ignore              true
$end

--------------------------------------------------------------
 Writing REM_CC_EA            2
 ----------------------------------------------------
       Standard Nuclear Orientation (Angstroms)
    I     Atom         X            Y            Z
 ----------------------------------------------------
    1      C       0.000000     0.000000     0.015150
    2      S       0.000000     0.000000     1.532510
 ----------------------------------------------------
 Nuclear Repulsion Energy =    33.4798678210 hartrees
 There are       11 alpha and       10 beta electrons
 Requested basis set is G3large
 There are 29 shells and 108 basis functions

Total QAlloc Memory Limit   2000 MB
Mega-Array Size       743 MB
MEM_STATIC part       760 MB

                       Distance Matrix (Angstroms)
             C (  1)
   S (  2)  1.517360
 
 A cutoff of  1.0D-08 yielded    423 shell pairs
 There are   5944 function pairs (  8263 Cartesian)
Evaluating contribution to one-electron hamiltonian from nuclear
 Smallest overlap matrix eigenvalue = 6.21E-04
 Multipole matrices computed through 2nd order

  Scale SEOQF with 1.000000e-01/1.000000e-01/1.000000e-01

 Standard Electronic Orientation quadrupole field applied
 Nucleus-field energy     =    -0.0000000040 hartrees
 Guess from superposition of atomic densities
 Warning:  Energy on first SCF cycle will be non-variational
 Long-range K will be added via erf
 Coulomb attenuation parameter = 0.8 bohr**(-1)
 An unrestricted Kohn-Sham SCF calculation will be
 performed using Pulay DIIS extrapolation
 Exchange:  wPBE + LR-HF      Correlation:  PBE
 Using SG-1 standard quadrature grid
 SCF converges when DIIS error is below 1.0E-05
 Requested basis set is G3large
 There are 29 shells and 108 basis functions
 A cutoff of  1.0D-08 yielded    423 shell pairs
 There are   5944 function pairs (  8263 Cartesian)
 Warning!  Inaccurate integrated density:
   Number of electrons =    21
   Numerical integral  =    21.999971347074
   Relative error      =     4.7617683194 %
 ---------------------------------------
  Cycle       Energy         DIIS Error
 ---------------------------------------
    1    -436.2507019929      3.46E-02
    2    -435.5436373906      4.92E-03
    3    -435.6139392247      3.21E-03
    4    -435.6334864818      1.42E-03
    5    -435.6408692193      6.63E-04
    6    -435.6455828132      3.74E-04
    7    -435.6490398319      1.57E-04
    8    -435.6508374834      5.54E-05
    9    -435.6520824107      3.66E-05
   10    -435.6525622621      3.67E-05
   11    -435.6518683044      3.85E-05
   12    -435.6538787394      4.55E-05
   13    -435.6521736800      4.84E-05
   14    -435.6560089935      3.97E-05
   15    -435.6563925405      1.89E-05
   16    -435.6564025963      1.75E-06 Convergence criterion met
 ---------------------------------------
 One-Electron    Energy =  -659.3188087493
 Total Coulomb   Energy =   220.7396193299
 Alpha Exchange  Energy =    -3.9652830356
 Beta  Exchange  Energy =    -3.6628155353
 DFT   Exchange  Energy =   -22.1825526731
 DFT Correlation Energy =    -0.7464297497
 Nuclear Repu.   Energy =    33.4798678169
 Nuclear Attr.   Energy = -1094.1707385944
 Kinetic         Energy =   434.8519298451
 <S^2> = 1.1872
 SCF time:  CPU 47.48 s  wall 48.22 s
 Final Alpha MO Eigenvalues
            1           2           3           4           5           6
    1 -88.8859992 -10.8073220  -8.5207274  -6.5070482  -6.5023380  -6.5023337
            7           8           9          10          11          12
    1  -1.4234754  -1.0491458  -0.8845682  -0.8249813  -0.8248824  -0.2940656
           13          14          15          16
    1  -0.2940003  -0.1080473  -0.0863765  -0.0619799
 Final Beta MO Eigenvalues
            1           2           3           4           5           6
    1 -88.8902458 -10.7753290  -8.5249169  -6.5113840  -6.5113768  -6.5064741
            7           8           9          10          11          12
    1  -1.3999635  -0.9801697  -0.8175843  -0.8174875  -0.3497426  -0.2357804
           13          14          15
    1  -0.2356847  -0.1053070  -0.0855163
 Analysis of SCF Wavefunction
 
 --------------------------------------------------------------
                    Orbital Energies (a.u.)
 --------------------------------------------------------------
 
 Alpha MOs
 -- Occupied --
-88.886 -10.807  -8.521  -6.507  -6.502  -6.502  -1.423  -1.049
 -0.885  -0.825  -0.825
 -- Virtual --
 -0.294  -0.294  -0.108  -0.086  -0.062  -0.062  -0.045  -0.009
 -0.009   0.020   0.049   0.076   0.076   0.170   0.170   0.199
  0.280   0.280   0.281   0.410   0.410   0.445   0.517   0.517
  0.596   0.713   0.713   0.745   0.745   0.791   0.854   0.854
  0.896   0.916   0.916   0.918   0.918   1.203   1.203   1.213
  1.293   1.699   1.699   1.896   2.581   2.581   2.665   2.666
  2.733   2.733   2.740   2.740   2.829   3.032   3.135   3.135
  3.364   3.364   3.366   3.366   3.418   3.418   3.551   3.838
  3.838   4.184   4.418   4.420   4.838   4.838   5.214   8.301
 16.910  16.910  17.420  23.151  23.261  23.342  23.456  23.456
 23.879  27.040  27.040  27.581  30.712  30.712  30.719  30.719
 30.750  30.750  30.791  40.601  40.705  40.844  40.873  40.873
188.887
 
 Beta MOs
 -- Occupied --
-88.890 -10.775  -8.525  -6.511  -6.511  -6.506  -1.400  -0.980
 -0.818  -0.817
 -- Virtual --
 -0.350  -0.236  -0.236  -0.105  -0.086  -0.063  -0.063  -0.035
 -0.003  -0.003   0.028   0.043   0.043   0.066   0.185   0.185
  0.199   0.267   0.267   0.314   0.448   0.448   0.495   0.553
  0.553   0.619   0.725   0.725   0.738   0.738   0.811   0.815
  0.815   0.905   0.923   0.923   0.927   0.927   1.220   1.220
  1.223   1.332   1.677   1.677   1.910   2.636   2.636   2.729
  2.729   2.770   2.770   2.789   2.789   2.884   3.082   3.241
  3.241   3.319   3.319   3.401   3.401   3.472   3.472   3.623
  3.846   3.846   4.220   4.404   4.406   4.841   4.841   5.221
  8.297  16.898  16.898  17.423  23.169  23.248  23.330  23.452
 23.452  23.893  27.075  27.075  27.621  30.708  30.708  30.717
 30.717  30.748  30.748  30.790  40.636  40.745  40.876  40.909
 40.909 188.882
 --------------------------------------------------------------
 
          Ground-State Mulliken Net Atomic Charges

     Atom                 Charge (a.u.)    Spin (a.u.)
  --------------------------------------------------------
      1 C                     0.603018       1.712379
      2 S                     0.396982      -0.712379
  --------------------------------------------------------
  Sum of atomic charges =     1.000000
  Sum of spin   charges =     1.000000

 -----------------------------------------------------------------
                    Cartesian Multipole Moments
 -----------------------------------------------------------------
    Charge (ESU x 10^10)
                 4.8032
    Dipole Moment (Debye)
         X       0.0000      Y      -0.0001      Z       4.5915
       Tot       4.5915
    Quadrupole Moments (Debye-Ang)
        XX     -14.9238     XY      -0.0001     YY     -14.9238
        XZ       0.0000     YZ       0.0002     ZZ      -4.7883
    Octapole Moments (Debye-Ang^2)
       XXX       0.0000    XXY       0.0000    XYY       0.0000
       YYY      -0.0001    XXZ     -15.5079    XYZ      -0.0003
       YYZ     -15.5076    XZZ       0.0001    YZZ       0.0003
       ZZZ     -28.8757
    Hexadecapole Moments (Debye-Ang^3)
      XXXX     -15.3488   XXXY      -0.0003   XXYY      -5.1163
      XYYY      -0.0003   YYYY     -15.3487   XXXZ       0.0000
      XXYZ       0.0001   XYYZ       0.0000   YYYZ       0.0002
      XXZZ     -27.2983   XYZZ      -0.0003   YYZZ     -27.2977
      XZZZ       0.0002   YZZZ       0.0008   ZZZZ    -121.4636
 -----------------------------------------------------------------
 Total job time:  48.34s(wall), 47.60s(cpu) 
 Sun Jul  7 08:39:37 2013

        *************************************************************
        *                                                           *
        *  Thank you very much for using Q-Chem.  Have a nice day.  *
        *                                                           *
        *************************************************************


0 sent ACK to 0 
now end server 0 ... 
