Process 0 of 1 is on cl149.stfx.acenet.ca - thread support 1
initial socket setup ...start
initial socket setup ...done 
now start server 0 ... 

cmd = /usr/bin/ssh clhead /usr/local/qchem/bin/get_hostid 232091309 > /scratch/tmp/5955042.1.medium.q/qchem7460/lic.dat
                  Welcome to Q-Chem
     A Quantum Leap Into The Future Of Chemistry

 Y. Shao, L. Fusti-Molnar, Y. Jung, J. Kussmann, C. Ochsenfeld,
 S. T. Brown, A. T. B. Gilbert, L. V. Slipchenko,S. V. Levchenko,
 D. P. O'Neill, R. A. DiStasio Jr., R. C. Lochan, T. Wang,
 G. J. O. Beran, N. A. Besley, J. M. Herbert, C. Y. Lin,
 T. Van Voorhis, S. H. Chien, A. Sodt, R. P. Steele, 
 V. A. Rassolov, P. E. Maslen, P. P. Korambath, R. D. Adamson,
 B. Austin, J. Baker, E. F. C. Byrd, H. Dachsel, R. J. Doerksen,
 A. Dreuw, B. D. Dunietz, A. D. Dutoi, T. R. Furlani,
 S. R. Gwaltney, A. Heyden, S. Hirata, C.-P. Hsu, G. Kedziora,
 R. Z. Khaliullin, P. Klunzinger, A. M. Lee, M. S. Lee, W. Liang,
 I. Lotan, N. Nair, B. Peters, E. I. Proynov, P. A. Pieniazek, 
 Y. M. Rhee, J. Ritchie, E. Rosta, C. D. Sherrill, 
 A. C. Simmonett, J. E. Subotnik, H. L. Woodcock III,
 W. Zhang, A. T. Bell, A. K. Chakraborty, D. M. Chipman,
 F. J. Keil, A. Warshel, W. J. Hehre, H. F. Schaefer III,
 J. Kong, A. I. Krylov, P. M. W. Gill, M. Head-Gordon,
 Q-Chem, Version 3.1, Q-Chem, Inc., Pittsburgh, PA (2007).

 Additional authors for Version 3.1: 
 Z. Gan, Y. Zhao, N. E. Schultz, D. Truhlar, E. Epifanovsky and M. Oana.

 Additional authors for Version 3.2: 
 R. Baer, B. R. Brooks, D. Casanova, J.-D. Chai, C.-L. Cheng, 
 C. Cramer, D. Crittenden, A. Ghysels, G. Hawkins, E. G. Hohenstein, 
 C. Kelley, W. Kurlancheek, D. Liotard, E. Livshits, P. Manohar, 
 A. Marenich, D. Neuhauser, R. Olson, M. A. Rohrdanz, K. S. Thanthiriwatte, 
 A. J. W. Thom, V. Vanovschi, C. F. Williams, Q. Wu and Z.-Q. You. 


 Intel X86 Linux Version

 Q-chem begins on Wed Apr 24 16:08:19 2013  

 Parallel job on  1  processors
Processing $rem in /usr/local/qchem/config/preferences.

theFileMan(): MAXOPENFILES=974 MAX_SUB_FILE_NUM=16
Maximum size of a physical file is 2.0 GB, maximum size of a tmp-file is 32.0 GB


--------------------------------------------------------------
User input:
--------------------------------------------------------------

$molecule
-1,2
C1
C2,C1,rcc
O1,C1,rco,C2,a1
H,C1,rch,C2,a2,O1,180.0,0
O2,C2,rco,C1,a1,O1,180.,0
H,C2,rch,C1,a2,O1,0.,0

rcc=1.52501583
rco=1.20949276
rch=1.10918789
a1=121.52291302
a2=114.69886473

$end

$comment
negative
$end

$xc_functional
C PBE   1.00
X wPBE  1.00
$end

$rem
SYMMETRY_DECOMPOSITION	0
exchange 		general
LRC_DFT                 true
BASIS                   g3large
omega			2000
mem_static              760
max_scf_cycles          200
scf_final_print         1
sym_ignore              true
$end

--------------------------------------------------------------
 Writing REM_CC_EA            6
 ----------------------------------------------------
       Standard Nuclear Orientation (Angstroms)
    I     Atom         X            Y            Z
 ----------------------------------------------------
    1      C       0.000000     0.000000     0.000000
    2      C       0.000000     0.000000     1.525016
    3      O       1.031009     0.000000    -0.632371
    4      H      -1.007715     0.000000    -0.463473
    5      O      -1.031009     0.000000     2.157386
    6      H       1.007715     0.000000     1.988489
 ----------------------------------------------------
 Nuclear Repulsion Energy =   101.6119437778 hartrees
 There are       16 alpha and       15 beta electrons
 Requested basis set is G3large
 There are 52 shells and 188 basis functions

Total QAlloc Memory Limit   2000 MB
Mega-Array Size       743 MB
MEM_STATIC part       760 MB

                       Distance Matrix (Angstroms)
             C (  1)   C (  2)   O (  3)   H (  4)   O (  5)
   C (  2)  1.525016
   O (  3)  1.209493  2.391087
   H (  4)  1.109188  2.229255  2.045709
   O (  5)  2.391087  1.209493  3.469101  2.620963
   H (  6)  2.229255  1.109188  2.620963  3.173969  2.045709
 
 A cutoff of  1.0D-08 yielded   1239 shell pairs
 There are  16161 function pairs ( 20529 Cartesian)
Evaluating contribution to one-electron hamiltonian from nuclear
 Smallest overlap matrix eigenvalue = 1.82E-04
 Multipole matrices computed through 2nd order

  Scale SEOQF with 1.000000e-01/1.000000e-01/1.000000e-01

 Standard Electronic Orientation quadrupole field applied
 Nucleus-field energy     =    -0.0000000056 hartrees
 Guess from superposition of atomic densities
 Warning:  Energy on first SCF cycle will be non-variational
 Long-range K will be added via erf
 Coulomb attenuation parameter = 2 bohr**(-1)
 An unrestricted Kohn-Sham SCF calculation will be
 performed using Pulay DIIS extrapolation
 Exchange:  wPBE + LR-HF      Correlation:  PBE
 Using SG-1 standard quadrature grid
 SCF converges when DIIS error is below 1.0E-05
 Requested basis set is G3large
 There are 52 shells and 188 basis functions
 A cutoff of  1.0D-08 yielded   1239 shell pairs
 There are  16161 function pairs ( 20529 Cartesian)
 Warning!  Inaccurate integrated density:
   Number of electrons =    31
   Numerical integral  =    29.999862858428
   Relative error      =    -3.2262488438 %
 ---------------------------------------
  Cycle       Energy         DIIS Error
 ---------------------------------------
    1    -228.8216461378      3.85E-02
    2    -227.5282070661      6.39E-03
    3    -227.6251327880      4.86E-03
    4    -227.7001805765      5.72E-04
    5    -227.7051976560      1.74E-04
    6    -227.7062235715      7.70E-05
    7    -227.7066417371      5.00E-05
    8    -227.7068278156      2.90E-05
    9    -227.7069306665      1.04E-05
   10    -227.7069446025      3.01E-06 Convergence criterion met
 ---------------------------------------
 One-Electron    Energy =  -519.6428376472
 Total Coulomb   Energy =   219.1699928570
 Alpha Exchange  Energy =    -8.9289804984
 Beta  Exchange  Energy =    -8.3994010529
 DFT   Exchange  Energy =   -10.4865418059
 DFT Correlation Energy =    -1.0311202274
 Nuclear Repu.   Energy =   101.6119437722
 Nuclear Attr.   Energy =  -746.4363023437
 Kinetic         Energy =   226.7934646965
 <S^2> = 0.7857
 SCF time:  CPU 102.10 s  wall 102.71 s
 Final Alpha MO Eigenvalues
            1           2           3           4           5           6
    1 -19.4812139 -19.4812058 -10.6646126 -10.6638409  -1.2094446  -1.1937978
            7           8           9          10          11          12
    1  -0.7423180  -0.6011500  -0.4812746  -0.4730109  -0.4342926  -0.4317839
           13          14          15          16          17          18
    1  -0.3888975  -0.2948741  -0.2083541  -0.0789488   0.1774204   0.1781360
           19          20          21
    1   0.2394428   0.2566177   0.2645970
 Final Beta MO Eigenvalues
            1           2           3           4           5           6
    1 -19.4701611 -19.4701537 -10.6625911 -10.6619617  -1.1796589  -1.1630189
            7           8           9          10          11          12
    1  -0.7022792  -0.5894544  -0.4659038  -0.4655073  -0.4201351  -0.3385572
           13          14          15          16          17          18
    1  -0.2806003  -0.2737244  -0.1953663   0.1775086   0.1784581   0.2397350
           19          20
    1   0.2509035   0.2569293
 Analysis of SCF Wavefunction
 
 --------------------------------------------------------------
                    Orbital Energies (a.u.)
 --------------------------------------------------------------
 
 Alpha MOs
 -- Occupied --
-19.481 -19.481 -10.665 -10.664  -1.209  -1.194  -0.742  -0.601
 -0.481  -0.473  -0.434  -0.432  -0.389  -0.295  -0.208  -0.079
 -- Virtual --
  0.177   0.178   0.239   0.257   0.265   0.265   0.278   0.312
  0.317   0.351   0.361   0.437   0.443   0.455   0.476   0.501
  0.522   0.537   0.541   0.554   0.585   0.696   0.732   0.755
  0.829   0.864   0.886   0.894   0.908   0.964   0.966   0.966
  1.036   1.056   1.127   1.166   1.185   1.331   1.338   1.374
  1.379   1.411   1.439   1.444   1.471   1.502   1.521   1.529
  1.571   1.591   1.663   1.735   1.795   1.907   1.936   1.969
  2.071   2.160   2.160   2.203   2.263   2.378   2.459   2.555
  2.654   2.907   2.909   2.937   3.068   3.103   3.116   3.211
  3.252   3.343   3.393   3.409   3.437   3.500   3.542   3.602
  3.641   3.738   3.755   3.828   3.857   3.866   3.874   3.950
  4.016   4.049   4.158   4.174   4.205   4.333   4.375   4.393
  4.581   4.637   4.686   4.713   4.738   4.999   5.176   5.185
  5.598   5.635   5.638   5.643   5.673   5.692   5.693   5.773
  5.872   5.955   6.082   6.086   6.088   6.105   6.370   6.442
  6.865   6.887   7.097   7.404   7.502   7.515   7.520   7.575
  7.632   7.635   7.852   7.914   8.085   8.130   8.281   8.347
 25.306  25.418  28.029  28.146  28.485  28.972  29.014  29.318
 41.745  41.835  41.884  41.916  41.921  41.935  41.985  41.990
 42.147  42.154  44.662  44.681  44.694  44.703  44.788  44.812
 44.829  44.870  44.935  44.958  46.670  46.674  46.772  46.805
 47.488  47.511  51.064  51.087
 
 Beta MOs
 -- Occupied --
-19.470 -19.470 -10.663 -10.662  -1.180  -1.163  -0.702  -0.589
 -0.466  -0.466  -0.420  -0.339  -0.281  -0.274  -0.195
 -- Virtual --
  0.178   0.178   0.240   0.251   0.257   0.275   0.279   0.309
  0.312   0.324   0.352   0.400   0.440   0.444   0.457   0.514
  0.522   0.527   0.539   0.542   0.556   0.585   0.702   0.735
  0.766   0.831   0.887   0.899   0.910   0.911   0.968   0.975
  0.975   1.056   1.057   1.130   1.171   1.196   1.336   1.347
  1.377   1.380   1.423   1.442   1.447   1.498   1.504   1.524
  1.565   1.574   1.618   1.668   1.739   1.797   1.910   1.946
  1.976   2.094   2.174   2.177   2.224   2.272   2.400   2.466
  2.576   2.656   2.912   2.914   2.945   3.080   3.105   3.124
  3.221   3.265   3.347   3.398   3.414   3.439   3.505   3.545
  3.613   3.646   3.742   3.758   3.832   3.858   3.874   3.879
  3.954   4.019   4.059   4.168   4.177   4.206   4.333   4.379
  4.396   4.585   4.638   4.689   4.716   4.741   5.002   5.178
  5.187   5.602   5.654   5.678   5.679   5.696   5.707   5.708
  5.781   5.882   5.961   6.093   6.097   6.104   6.120   6.372
  6.444   6.882   6.904   7.101   7.413   7.537   7.542   7.554
  7.582   7.643   7.661   7.881   7.943   8.092   8.138   8.294
  8.360  25.308  25.420  28.032  28.149  28.485  28.972  29.015
 29.319  41.748  41.839  41.885  41.919  41.923  41.935  41.987
 41.992  42.147  42.154  44.686  44.706  44.717  44.726  44.810
 44.835  44.836  44.876  44.946  44.968  46.685  46.689  46.776
 46.809  47.492  47.515  51.075  51.098
 --------------------------------------------------------------
 
          Ground-State Mulliken Net Atomic Charges

     Atom                 Charge (a.u.)    Spin (a.u.)
  --------------------------------------------------------
      1 C                    -0.025751       0.248837
      2 C                    -0.025752       0.248822
      3 O                    -0.509490       0.278080
      4 H                     0.035244      -0.026913
      5 O                    -0.509494       0.278083
      6 H                     0.035243      -0.026908
  --------------------------------------------------------
  Sum of atomic charges =    -1.000000
  Sum of spin   charges =     1.000000

 -----------------------------------------------------------------
                    Cartesian Multipole Moments
 -----------------------------------------------------------------
    Charge (ESU x 10^10)
                -4.8032
    Dipole Moment (Debye)
         X       0.0000      Y       0.0000      Z      -3.6625
       Tot       3.6625
    Quadrupole Moments (Debye-Ang)
        XX     -32.1317     XY       0.0003     YY     -25.7834
        XZ       9.7067     YZ      -0.0007     ZZ     -39.1909
    Octapole Moments (Debye-Ang^2)
       XXX       0.0000    XXY       0.0000    XYY       0.0000
       YYY      -0.0001    XXZ     -24.5007    XYZ       0.0002
       YYZ     -19.6600    XZZ      14.8028    YZZ      -0.0011
       ZZZ     -85.3913
    Hexadecapole Moments (Debye-Ang^3)
      XXXX    -125.1878   XXXY       0.0002   XXYY     -24.4624
      XYYY      -0.0010   YYYY     -30.6324   XXXZ      57.4285
      XXYZ      -0.0021   XYYZ      14.9013   YYYZ      -0.0005
      XXZZ     -88.5896   XYZZ       0.0013   YYZZ     -57.0611
      XZZZ      85.4772   YZZZ      -0.0040   ZZZZ    -381.4678
 -----------------------------------------------------------------
 Total job time:  102.94s(wall), 102.31s(cpu) 
 Wed Apr 24 16:10:02 2013

        *************************************************************
        *                                                           *
        *  Thank you very much for using Q-Chem.  Have a nice day.  *
        *                                                           *
        *************************************************************


0 sent ACK to 0 
now end server 0 ... 
 
**********************************************************************
Job 2 of 3 
**********************************************************************
 
Process 0 of 1 is on cl149.stfx.acenet.ca - thread support 1
initial socket setup ...start
initial socket setup ...done 
now start server 0 ... 

cmd = /usr/bin/ssh clhead /usr/local/qchem/bin/get_hostid 198371523 > /scratch/tmp/5955042.1.medium.q/qchem7460/lic.dat
                  Welcome to Q-Chem
     A Quantum Leap Into The Future Of Chemistry

 Y. Shao, L. Fusti-Molnar, Y. Jung, J. Kussmann, C. Ochsenfeld,
 S. T. Brown, A. T. B. Gilbert, L. V. Slipchenko,S. V. Levchenko,
 D. P. O'Neill, R. A. DiStasio Jr., R. C. Lochan, T. Wang,
 G. J. O. Beran, N. A. Besley, J. M. Herbert, C. Y. Lin,
 T. Van Voorhis, S. H. Chien, A. Sodt, R. P. Steele, 
 V. A. Rassolov, P. E. Maslen, P. P. Korambath, R. D. Adamson,
 B. Austin, J. Baker, E. F. C. Byrd, H. Dachsel, R. J. Doerksen,
 A. Dreuw, B. D. Dunietz, A. D. Dutoi, T. R. Furlani,
 S. R. Gwaltney, A. Heyden, S. Hirata, C.-P. Hsu, G. Kedziora,
 R. Z. Khaliullin, P. Klunzinger, A. M. Lee, M. S. Lee, W. Liang,
 I. Lotan, N. Nair, B. Peters, E. I. Proynov, P. A. Pieniazek, 
 Y. M. Rhee, J. Ritchie, E. Rosta, C. D. Sherrill, 
 A. C. Simmonett, J. E. Subotnik, H. L. Woodcock III,
 W. Zhang, A. T. Bell, A. K. Chakraborty, D. M. Chipman,
 F. J. Keil, A. Warshel, W. J. Hehre, H. F. Schaefer III,
 J. Kong, A. I. Krylov, P. M. W. Gill, M. Head-Gordon,
 Q-Chem, Version 3.1, Q-Chem, Inc., Pittsburgh, PA (2007).

 Additional authors for Version 3.1: 
 Z. Gan, Y. Zhao, N. E. Schultz, D. Truhlar, E. Epifanovsky and M. Oana.

 Additional authors for Version 3.2: 
 R. Baer, B. R. Brooks, D. Casanova, J.-D. Chai, C.-L. Cheng, 
 C. Cramer, D. Crittenden, A. Ghysels, G. Hawkins, E. G. Hohenstein, 
 C. Kelley, W. Kurlancheek, D. Liotard, E. Livshits, P. Manohar, 
 A. Marenich, D. Neuhauser, R. Olson, M. A. Rohrdanz, K. S. Thanthiriwatte, 
 A. J. W. Thom, V. Vanovschi, C. F. Williams, Q. Wu and Z.-Q. You. 


 Intel X86 Linux Version

 Q-chem begins on Wed Apr 24 16:10:05 2013  

 Parallel job on  1  processors
Processing $rem in /usr/local/qchem/config/preferences.

theFileMan(): MAXOPENFILES=974 MAX_SUB_FILE_NUM=16
Maximum size of a physical file is 2.0 GB, maximum size of a tmp-file is 32.0 GB


--------------------------------------------------------------
User input:
--------------------------------------------------------------

$molecule
0,1
C1
C2,C1,rcc
O1,C1,rco,C2,a1
H,C1,rch,C2,a2,O1,180.0,0
O2,C2,rco,C1,a1,O1,180.,0
H,C2,rch,C1,a2,O1,0.,0

rcc=1.52501583
rco=1.20949276
rch=1.10918789
a1=121.52291302
a2=114.69886473

$end

$comment
neutral
$end

$xc_functional
C PBE   1.00
X wPBE  1.00
$end


$rem
SYMMETRY_DECOMPOSITION	0
LRC_DFT                 true
exchange 		general
BASIS                   g3large
omega			2000
mem_static              760
max_scf_cycles          200
scf_final_print         1
sym_ignore              true
$end

--------------------------------------------------------------
 Writing REM_CC_EA            6
 ----------------------------------------------------
       Standard Nuclear Orientation (Angstroms)
    I     Atom         X            Y            Z
 ----------------------------------------------------
    1      C       0.000000     0.000000     0.000000
    2      C       0.000000     0.000000     1.525016
    3      O       1.031009     0.000000    -0.632371
    4      H      -1.007715     0.000000    -0.463473
    5      O      -1.031009     0.000000     2.157386
    6      H       1.007715     0.000000     1.988489
 ----------------------------------------------------
 Nuclear Repulsion Energy =   101.6119437778 hartrees
 There are       15 alpha and       15 beta electrons
 Requested basis set is G3large
 There are 52 shells and 188 basis functions

Total QAlloc Memory Limit   2000 MB
Mega-Array Size       743 MB
MEM_STATIC part       760 MB

                       Distance Matrix (Angstroms)
             C (  1)   C (  2)   O (  3)   H (  4)   O (  5)
   C (  2)  1.525016
   O (  3)  1.209493  2.391087
   H (  4)  1.109188  2.229255  2.045709
   O (  5)  2.391087  1.209493  3.469101  2.620963
   H (  6)  2.229255  1.109188  2.620963  3.173969  2.045709
 
 A cutoff of  1.0D-08 yielded   1239 shell pairs
 There are  16161 function pairs ( 20529 Cartesian)
Evaluating contribution to one-electron hamiltonian from nuclear
 Smallest overlap matrix eigenvalue = 1.82E-04
 Multipole matrices computed through 2nd order

  Scale SEOQF with 1.000000e-01/1.000000e-01/1.000000e-01

 Standard Electronic Orientation quadrupole field applied
 Nucleus-field energy     =    -0.0000000056 hartrees
 Guess from superposition of atomic densities
 Warning:  Energy on first SCF cycle will be non-variational
 Long-range K will be added via erf
 Coulomb attenuation parameter = 2 bohr**(-1)
 A restricted Kohn-Sham SCF calculation will be
 performed using Pulay DIIS extrapolation
 Exchange:  wPBE + LR-HF      Correlation:  PBE
 Using SG-1 standard quadrature grid
 SCF converges when DIIS error is below 1.0E-05
 Requested basis set is G3large
 There are 52 shells and 188 basis functions
 A cutoff of  1.0D-08 yielded   1239 shell pairs
 There are  16161 function pairs ( 20529 Cartesian)
 ---------------------------------------
  Cycle       Energy         DIIS Error
 ---------------------------------------
    1    -228.8216461378      3.85E-02
    2    -227.4491557339      6.91E-03
    3    -227.5442404119      6.06E-03
    4    -227.6600906208      7.43E-04
    5    -227.6658458857      2.88E-04
    6    -227.6669179749      1.02E-04
    7    -227.6670985350      2.95E-05
    8    -227.6671090294      7.79E-06 Convergence criterion met
 ---------------------------------------
 One-Electron    Energy =  -511.3676079888
 Total Coulomb   Energy =   210.5926351268
 Alpha Exchange  Energy =    -8.5195391630
 Beta  Exchange  Energy =    -8.5195391630
 DFT   Exchange  Energy =   -10.4681439491
 DFT Correlation Energy =    -0.9968576643
 Nuclear Repu.   Energy =   101.6119437722
 Nuclear Attr.   Energy =  -737.7998293420
 Kinetic         Energy =   226.4322213532
 SCF time:  CPU 65.31 s  wall 66.13 s
 Final Alpha MO Eigenvalues
            1           2           3           4           5           6
    1 -19.7727829 -19.7727480 -10.9539122 -10.9532578  -1.4735385  -1.4563861
            7           8           9          10          11          12
    1  -1.0033236  -0.8628316  -0.7460136  -0.7455033  -0.6962245  -0.6390306
           13          14          15          16          17          18
    1  -0.5777754  -0.5636501  -0.4760390  -0.0030170   0.0465955   0.0515015
           19          20
    1   0.0939207   0.1054456
 Analysis of SCF Wavefunction
 
 --------------------------------------------------------------
                    Orbital Energies (a.u.)
 --------------------------------------------------------------
 
 Alpha MOs
 -- Occupied --
-19.773 -19.773 -10.954 -10.953  -1.474  -1.456  -1.003  -0.863
 -0.746  -0.746  -0.696  -0.639  -0.578  -0.564  -0.476
 -- Virtual --
 -0.003   0.047   0.052   0.094   0.105   0.107   0.116   0.134
  0.154   0.170   0.173   0.194   0.255   0.255   0.271   0.304
  0.332   0.342   0.352   0.363   0.380   0.397   0.456   0.516
  0.519   0.608   0.639   0.658   0.659   0.690   0.715   0.726
  0.739   0.800   0.832   0.887   0.920   0.941   1.086   1.095
  1.137   1.153   1.166   1.213   1.215   1.253   1.264   1.293
  1.306   1.327   1.346   1.415   1.491   1.552   1.668   1.693
  1.716   1.822   1.909   1.910   1.955   1.998   2.124   2.205
  2.303   2.402   2.653   2.657   2.680   2.785   2.845   2.846
  2.932   2.969   3.072   3.118   3.130   3.157   3.231   3.267
  3.321   3.366   3.463   3.475   3.551   3.583   3.586   3.605
  3.668   3.749   3.775   3.882   3.905   3.936   4.063   4.101
  4.121   4.296   4.377   4.422   4.440   4.463   4.730   4.910
  4.913   5.331   5.370   5.373   5.383   5.405   5.425   5.426
  5.503   5.601   5.687   5.811   5.815   5.816   5.831   6.101
  6.175   6.589   6.612   6.821   7.133   7.236   7.246   7.253
  7.300   7.360   7.367   7.583   7.646   7.816   7.860   8.012
  8.076  25.019  25.129  27.737  27.855  28.195  28.684  28.726
 29.030  41.454  41.545  41.596  41.626  41.630  41.647  41.694
 41.699  41.858  41.865  44.377  44.395  44.408  44.417  44.501
 44.525  44.541  44.581  44.647  44.669  46.376  46.379  46.481
 46.514  47.196  47.218  50.774  50.797
 --------------------------------------------------------------
 
          Ground-State Mulliken Net Atomic Charges

     Atom                 Charge (a.u.)
  ----------------------------------------
      1 C                     0.169983
      2 C                     0.170006
      3 O                    -0.290001
      4 H                     0.120018
      5 O                    -0.290025
      6 H                     0.120018
  ----------------------------------------
  Sum of atomic charges =     0.000000

 -----------------------------------------------------------------
                    Cartesian Multipole Moments
 -----------------------------------------------------------------
    Charge (ESU x 10^10)
                 0.0000
    Dipole Moment (Debye)
         X       0.0001      Y       0.0000      Z      -0.0001
       Tot       0.0001
    Quadrupole Moments (Debye-Ang)
        XX     -25.2920     XY      -0.0003     YY     -21.1546
        XZ       7.0798     YZ      -0.0004     ZZ     -26.6369
    Octapole Moments (Debye-Ang^2)
       XXX       0.0001    XXY       0.0000    XYY       0.0000
       YYY       0.0000    XXZ     -19.2855    XYZ      -0.0003
       YYZ     -16.1305    XZZ      10.7969    YZZ      -0.0005
       ZZZ     -60.9326
    Hexadecapole Moments (Debye-Ang^3)
      XXXX    -101.8311   XXXY      -0.0011   XXYY     -19.1227
      XYYY       0.0001   YYYY     -17.8302   XXXZ      50.3490
      XXYZ       0.0001   XYYZ      13.6030   YYYZ      -0.0007
      XXZZ     -67.7490   XYZZ      -0.0002   YYZZ     -46.9812
      XZZZ      69.3428   YZZZ      -0.0021   ZZZZ    -302.7618
 -----------------------------------------------------------------
 Total job time:  66.34s(wall), 65.51s(cpu) 
 Wed Apr 24 16:11:11 2013

        *************************************************************
        *                                                           *
        *  Thank you very much for using Q-Chem.  Have a nice day.  *
        *                                                           *
        *************************************************************


0 sent ACK to 0 
now end server 0 ... 
 
**********************************************************************
Job 3 of 3 
**********************************************************************
 
Process 0 of 1 is on cl149.stfx.acenet.ca - thread support 1
initial socket setup ...start
initial socket setup ...done 
now start server 0 ... 

cmd = /usr/bin/ssh clhead /usr/local/qchem/bin/get_hostid 1777278016 > /scratch/tmp/5955042.1.medium.q/qchem7460/lic.dat
                  Welcome to Q-Chem
     A Quantum Leap Into The Future Of Chemistry

 Y. Shao, L. Fusti-Molnar, Y. Jung, J. Kussmann, C. Ochsenfeld,
 S. T. Brown, A. T. B. Gilbert, L. V. Slipchenko,S. V. Levchenko,
 D. P. O'Neill, R. A. DiStasio Jr., R. C. Lochan, T. Wang,
 G. J. O. Beran, N. A. Besley, J. M. Herbert, C. Y. Lin,
 T. Van Voorhis, S. H. Chien, A. Sodt, R. P. Steele, 
 V. A. Rassolov, P. E. Maslen, P. P. Korambath, R. D. Adamson,
 B. Austin, J. Baker, E. F. C. Byrd, H. Dachsel, R. J. Doerksen,
 A. Dreuw, B. D. Dunietz, A. D. Dutoi, T. R. Furlani,
 S. R. Gwaltney, A. Heyden, S. Hirata, C.-P. Hsu, G. Kedziora,
 R. Z. Khaliullin, P. Klunzinger, A. M. Lee, M. S. Lee, W. Liang,
 I. Lotan, N. Nair, B. Peters, E. I. Proynov, P. A. Pieniazek, 
 Y. M. Rhee, J. Ritchie, E. Rosta, C. D. Sherrill, 
 A. C. Simmonett, J. E. Subotnik, H. L. Woodcock III,
 W. Zhang, A. T. Bell, A. K. Chakraborty, D. M. Chipman,
 F. J. Keil, A. Warshel, W. J. Hehre, H. F. Schaefer III,
 J. Kong, A. I. Krylov, P. M. W. Gill, M. Head-Gordon,
 Q-Chem, Version 3.1, Q-Chem, Inc., Pittsburgh, PA (2007).

 Additional authors for Version 3.1: 
 Z. Gan, Y. Zhao, N. E. Schultz, D. Truhlar, E. Epifanovsky and M. Oana.

 Additional authors for Version 3.2: 
 R. Baer, B. R. Brooks, D. Casanova, J.-D. Chai, C.-L. Cheng, 
 C. Cramer, D. Crittenden, A. Ghysels, G. Hawkins, E. G. Hohenstein, 
 C. Kelley, W. Kurlancheek, D. Liotard, E. Livshits, P. Manohar, 
 A. Marenich, D. Neuhauser, R. Olson, M. A. Rohrdanz, K. S. Thanthiriwatte, 
 A. J. W. Thom, V. Vanovschi, C. F. Williams, Q. Wu and Z.-Q. You. 


 Intel X86 Linux Version

 Q-chem begins on Wed Apr 24 16:11:14 2013  

 Parallel job on  1  processors
Processing $rem in /usr/local/qchem/config/preferences.

theFileMan(): MAXOPENFILES=974 MAX_SUB_FILE_NUM=16
Maximum size of a physical file is 2.0 GB, maximum size of a tmp-file is 32.0 GB


--------------------------------------------------------------
User input:
--------------------------------------------------------------

$molecule
1,2
C1
C2,C1,rcc
O1,C1,rco,C2,a1
H,C1,rch,C2,a2,O1,180.0,0
O2,C2,rco,C1,a1,O1,180.,0
H,C2,rch,C1,a2,O1,0.,0

rcc=1.52501583
rco=1.20949276
rch=1.10918789
a1=121.52291302
a2=114.69886473

$end

$comment
positive
$end

$xc_functional
C PBE   1.00
X wPBE  1.00
$end

$rem
SYMMETRY_DECOMPOSITION	0
LRC_DFT                 true
exchange 		general
BASIS                   g3large
omega			2000
mem_static              760
max_scf_cycles          200
scf_final_print         1
sym_ignore              true
$end

--------------------------------------------------------------
 Writing REM_CC_EA            6
 ----------------------------------------------------
       Standard Nuclear Orientation (Angstroms)
    I     Atom         X            Y            Z
 ----------------------------------------------------
    1      C       0.000000     0.000000     0.000000
    2      C       0.000000     0.000000     1.525016
    3      O       1.031009     0.000000    -0.632371
    4      H      -1.007715     0.000000    -0.463473
    5      O      -1.031009     0.000000     2.157386
    6      H       1.007715     0.000000     1.988489
 ----------------------------------------------------
 Nuclear Repulsion Energy =   101.6119437778 hartrees
 There are       15 alpha and       14 beta electrons
 Requested basis set is G3large
 There are 52 shells and 188 basis functions

Total QAlloc Memory Limit   2000 MB
Mega-Array Size       743 MB
MEM_STATIC part       760 MB

                       Distance Matrix (Angstroms)
             C (  1)   C (  2)   O (  3)   H (  4)   O (  5)
   C (  2)  1.525016
   O (  3)  1.209493  2.391087
   H (  4)  1.109188  2.229255  2.045709
   O (  5)  2.391087  1.209493  3.469101  2.620963
   H (  6)  2.229255  1.109188  2.620963  3.173969  2.045709
 
 A cutoff of  1.0D-08 yielded   1239 shell pairs
 There are  16161 function pairs ( 20529 Cartesian)
Evaluating contribution to one-electron hamiltonian from nuclear
 Smallest overlap matrix eigenvalue = 1.82E-04
 Multipole matrices computed through 2nd order

  Scale SEOQF with 1.000000e-01/1.000000e-01/1.000000e-01

 Standard Electronic Orientation quadrupole field applied
 Nucleus-field energy     =    -0.0000000056 hartrees
 Guess from superposition of atomic densities
 Warning:  Energy on first SCF cycle will be non-variational
 Long-range K will be added via erf
 Coulomb attenuation parameter = 2 bohr**(-1)
 An unrestricted Kohn-Sham SCF calculation will be
 performed using Pulay DIIS extrapolation
 Exchange:  wPBE + LR-HF      Correlation:  PBE
 Using SG-1 standard quadrature grid
 SCF converges when DIIS error is below 1.0E-05
 Requested basis set is G3large
 There are 52 shells and 188 basis functions
 A cutoff of  1.0D-08 yielded   1239 shell pairs
 There are  16161 function pairs ( 20529 Cartesian)
 Warning!  Inaccurate integrated density:
   Number of electrons =    29
   Numerical integral  =    29.999862858428
   Relative error      =     3.4478029601 %
 ---------------------------------------
  Cycle       Energy         DIIS Error
 ---------------------------------------
    1    -228.8216461378      3.85E-02
    2    -226.9771725157      6.81E-03
    3    -227.0934939225      6.14E-03
    4    -227.2240655089      9.26E-04
    5    -227.2311726490      3.37E-04
    6    -227.2336878904      1.28E-04
    7    -227.2344305359      4.89E-05
    8    -227.2346863079      2.68E-05
    9    -227.2348888048      2.06E-05
   10    -227.2350598193      2.04E-05
   11    -227.2350634848      2.04E-05
   12    -227.2351420341      2.07E-05
   13    -227.2351611983      2.10E-05
   14    -227.2346630861      1.79E-05
   15    -227.2343496404      1.46E-05
   16    -227.2342412192      1.08E-05
   17    -227.2343720448      6.52E-06 Convergence criterion met
 ---------------------------------------
 One-Electron    Energy =  -502.3854164481
 Total Coulomb   Energy =   201.5800100560
 Alpha Exchange  Energy =    -8.6684870204
 Beta  Exchange  Energy =    -7.9698185146
 DFT   Exchange  Energy =   -10.4432813489
 DFT Correlation Energy =    -0.9593225408
 Nuclear Repu.   Energy =   101.6119437722
 Nuclear Attr.   Energy =  -728.3524645348
 Kinetic         Energy =   225.9670480867
 <S^2> = 0.7930
 SCF time:  CPU 168.28 s  wall 169.71 s
 Final Alpha MO Eigenvalues
            1           2           3           4           5           6
    1 -20.1145741 -20.1144953 -11.2548257 -11.2541488  -1.7972077  -1.7821357
            7           8           9          10          11          12
    1  -1.3165338  -1.1570279  -1.0616932  -1.0592114  -1.0038673  -0.9407658
           13          14          15          16          17          18
    1  -0.9049008  -0.8923395  -0.8112218  -0.2876265  -0.1226944  -0.1038609
           19          20
    1  -0.0963119  -0.0694368
 Final Beta MO Eigenvalues
            1           2           3           4           5           6
    1 -20.0984689 -20.0984046 -11.2554975 -11.2549918  -1.7535281  -1.7345428
            7           8           9          10          11          12
    1  -1.2701668  -1.1236453  -1.0190605  -1.0059894  -0.9528664  -0.9260743
           13          14          15          16          17          18
    1  -0.8672181  -0.6984449  -0.3887388  -0.2774981  -0.1240585  -0.1026918
           19
    1  -0.0944138
 Analysis of SCF Wavefunction
 
 --------------------------------------------------------------
                    Orbital Energies (a.u.)
 --------------------------------------------------------------
 
 Alpha MOs
 -- Occupied --
-20.115 -20.114 -11.255 -11.254  -1.797  -1.782  -1.317  -1.157
 -1.062  -1.059  -1.004  -0.941  -0.905  -0.892  -0.811
 -- Virtual --
 -0.288  -0.123  -0.104  -0.096  -0.069  -0.060  -0.044  -0.020
 -0.008   0.000   0.018   0.041   0.051   0.061   0.079   0.102
  0.137   0.155   0.164   0.172   0.192   0.201   0.215   0.290
  0.295   0.375   0.402   0.416   0.417   0.457   0.469   0.485
  0.500   0.553   0.603   0.644   0.661   0.685   0.816   0.849
  0.884   0.909   0.910   0.970   0.971   1.006   1.007   1.042
  1.046   1.067   1.076   1.142   1.224   1.297   1.414   1.429
  1.440   1.533   1.626   1.633   1.667   1.702   1.844   1.922
  2.028   2.116   2.375   2.380   2.400   2.486   2.559   2.565
  2.651   2.685   2.776   2.835   2.848   2.867   2.949   2.980
  3.036   3.082   3.178   3.186   3.266   3.294   3.295   3.320
  3.381   3.461   3.487   3.594   3.619   3.648   3.769   3.806
  3.828   4.001   4.092   4.135   4.142   4.166   4.436   4.611
  4.611   5.013   5.058   5.067   5.069   5.096   5.104   5.112
  5.161   5.282   5.389   5.504   5.504   5.517   5.533   5.786
  5.861   6.288   6.312   6.498   6.815   6.895   6.906   6.912
  6.992   7.034   7.051   7.278   7.340   7.484   7.524   7.699
  7.764  24.720  24.829  27.437  27.555  27.891  28.385  28.427
 28.728  41.152  41.243  41.295  41.324  41.328  41.344  41.393
 41.399  41.556  41.563  44.026  44.046  44.057  44.066  44.170
 44.190  44.193  44.229  44.305  44.328  46.044  46.048  46.130
 46.162  46.863  46.886  50.435  50.458
 
 Beta MOs
 -- Occupied --
-20.098 -20.098 -11.255 -11.255  -1.754  -1.735  -1.270  -1.124
 -1.019  -1.006  -0.953  -0.926  -0.867  -0.698
 -- Virtual --
 -0.389  -0.277  -0.124  -0.103  -0.094  -0.068  -0.060  -0.041
 -0.015  -0.010   0.000   0.021   0.042   0.056   0.071   0.081
  0.106   0.144   0.157   0.167   0.177   0.201   0.218   0.236
  0.296   0.301   0.394   0.402   0.413   0.425   0.458   0.470
  0.489   0.508   0.551   0.608   0.647   0.665   0.688   0.822
  0.853   0.892   0.910   0.915   0.978   0.979   1.014   1.023
  1.056   1.062   1.082   1.083   1.171   1.247   1.301   1.421
  1.440   1.453   1.560   1.651   1.652   1.695   1.720   1.849
  1.938   2.032   2.138   2.385   2.394   2.410   2.495   2.568
  2.576   2.648   2.684   2.793   2.837   2.847   2.870   2.952
  2.986   3.033   3.081   3.182   3.192   3.265   3.290   3.300
  3.324   3.379   3.469   3.488   3.596   3.622   3.651   3.774
  3.812   3.833   4.003   4.099   4.142   4.150   4.173   4.443
  4.621   4.625   5.043   5.079   5.084   5.089   5.115   5.130
  5.134   5.215   5.313   5.398   5.519   5.521   5.529   5.543
  5.804   5.878   6.295   6.319   6.522   6.837   6.945   6.955
  6.962   7.002   7.063   7.076   7.290   7.352   7.522   7.565
  7.716   7.781  24.719  24.828  27.436  27.554  27.892  28.384
 28.426  28.729  41.152  41.243  41.295  41.324  41.329  41.345
 41.392  41.398  41.556  41.563  44.059  44.078  44.091  44.100
 44.180  44.205  44.220  44.261  44.326  44.348  46.051  46.055
 46.151  46.183  46.869  46.892  50.450  50.473
 --------------------------------------------------------------
 
          Ground-State Mulliken Net Atomic Charges

     Atom                 Charge (a.u.)    Spin (a.u.)
  --------------------------------------------------------
      1 C                     0.240602      -0.062027
      2 C                     0.240459      -0.062003
      3 O                     0.029098       0.476419
      4 H                     0.230636       0.086009
      5 O                     0.028640       0.475676
      6 H                     0.230565       0.085926
  --------------------------------------------------------
  Sum of atomic charges =     1.000000
  Sum of spin   charges =     1.000000

 -----------------------------------------------------------------
                    Cartesian Multipole Moments
 -----------------------------------------------------------------
    Charge (ESU x 10^10)
                 4.8032
    Dipole Moment (Debye)
         X       0.0019      Y       0.0000      Z       3.6585
       Tot       3.6585
    Quadrupole Moments (Debye-Ang)
        XX     -18.0989     XY      -0.0008     YY     -19.1270
        XZ       4.2828     YZ      -0.0038     ZZ     -12.8038
    Octapole Moments (Debye-Ang^2)
       XXX       0.0037    XXY       0.0000    XYY       0.0002
       YYY       0.0000    XXZ     -13.8050    XYZ      -0.0006
       YYZ     -14.5853    XZZ       6.5343    YZZ      -0.0058
       ZZZ     -33.5525
    Hexadecapole Moments (Debye-Ang^3)
      XXXX     -80.6382   XXXY      -0.0065   XXYY     -16.3981
      XYYY       0.0000   YYYY     -14.4546   XXXZ      43.8489
      XXYZ       0.0008   XYYZ      12.6338   YYYZ      -0.0021
      XXZZ     -48.1630   XYZZ       0.0061   YYZZ     -41.5788
      XZZZ      52.2066   YZZZ      -0.0243   ZZZZ    -216.4508
 -----------------------------------------------------------------
 Total job time:  169.93s(wall), 168.48s(cpu) 
 Wed Apr 24 16:14:04 2013

        *************************************************************
        *                                                           *
        *  Thank you very much for using Q-Chem.  Have a nice day.  *
        *                                                           *
        *************************************************************


0 sent ACK to 0 
now end server 0 ... 
