Process 0 of 1 is on cl248.stfx.acenet.ca - thread support 1
initial socket setup ...start
initial socket setup ...done 
now start server 0 ... 

cmd = /usr/bin/ssh clhead /usr/local/qchem/bin/get_hostid 1266917691 > /scratch/tmp/6064614.1.long.q/qchem25227/lic.dat
                  Welcome to Q-Chem
     A Quantum Leap Into The Future Of Chemistry

 Y. Shao, L. Fusti-Molnar, Y. Jung, J. Kussmann, C. Ochsenfeld,
 S. T. Brown, A. T. B. Gilbert, L. V. Slipchenko,S. V. Levchenko,
 D. P. O'Neill, R. A. DiStasio Jr., R. C. Lochan, T. Wang,
 G. J. O. Beran, N. A. Besley, J. M. Herbert, C. Y. Lin,
 T. Van Voorhis, S. H. Chien, A. Sodt, R. P. Steele, 
 V. A. Rassolov, P. E. Maslen, P. P. Korambath, R. D. Adamson,
 B. Austin, J. Baker, E. F. C. Byrd, H. Dachsel, R. J. Doerksen,
 A. Dreuw, B. D. Dunietz, A. D. Dutoi, T. R. Furlani,
 S. R. Gwaltney, A. Heyden, S. Hirata, C.-P. Hsu, G. Kedziora,
 R. Z. Khaliullin, P. Klunzinger, A. M. Lee, M. S. Lee, W. Liang,
 I. Lotan, N. Nair, B. Peters, E. I. Proynov, P. A. Pieniazek, 
 Y. M. Rhee, J. Ritchie, E. Rosta, C. D. Sherrill, 
 A. C. Simmonett, J. E. Subotnik, H. L. Woodcock III,
 W. Zhang, A. T. Bell, A. K. Chakraborty, D. M. Chipman,
 F. J. Keil, A. Warshel, W. J. Hehre, H. F. Schaefer III,
 J. Kong, A. I. Krylov, P. M. W. Gill, M. Head-Gordon,
 Q-Chem, Version 3.1, Q-Chem, Inc., Pittsburgh, PA (2007).

 Additional authors for Version 3.1: 
 Z. Gan, Y. Zhao, N. E. Schultz, D. Truhlar, E. Epifanovsky and M. Oana.

 Additional authors for Version 3.2: 
 R. Baer, B. R. Brooks, D. Casanova, J.-D. Chai, C.-L. Cheng, 
 C. Cramer, D. Crittenden, A. Ghysels, G. Hawkins, E. G. Hohenstein, 
 C. Kelley, W. Kurlancheek, D. Liotard, E. Livshits, P. Manohar, 
 A. Marenich, D. Neuhauser, R. Olson, M. A. Rohrdanz, K. S. Thanthiriwatte, 
 A. J. W. Thom, V. Vanovschi, C. F. Williams, Q. Wu and Z.-Q. You. 


 Intel X86 Linux Version

 Q-chem begins on Mon Jul  8 12:24:21 2013  

 Parallel job on  1  processors
Processing $rem in /usr/local/qchem/config/preferences.

theFileMan(): MAXOPENFILES=974 MAX_SUB_FILE_NUM=16
Maximum size of a physical file is 2.0 GB, maximum size of a tmp-file is 32.0 GB


--------------------------------------------------------------
User input:
--------------------------------------------------------------

$molecule
-1,2
F          0.00000        0.00000        0.01141
H          0.00000        0.00000        0.92248
$end

$comment
negative
$end

$xc_functional
C PBE   1.00
X wPBE  1.00
$end

$rem
SYMMETRY_DECOMPOSITION	0
exchange 		general
LRC_DFT                 true
BASIS                   g3large
omega			400
mem_static              760
max_scf_cycles          200
scf_final_print         1
sym_ignore              true
$end

--------------------------------------------------------------
 Writing REM_CC_EA            2
 ----------------------------------------------------
       Standard Nuclear Orientation (Angstroms)
    I     Atom         X            Y            Z
 ----------------------------------------------------
    1      F       0.000000     0.000000     0.011410
    2      H       0.000000     0.000000     0.922480
 ----------------------------------------------------
 Nuclear Repulsion Energy =     5.2274741756 hartrees
 There are        6 alpha and        5 beta electrons
 Requested basis set is G3large
 There are 16 shells and 52 basis functions

Total QAlloc Memory Limit   2000 MB
Mega-Array Size       743 MB
MEM_STATIC part       760 MB

                       Distance Matrix (Angstroms)
             F (  1)
   H (  2)  0.911070
 
 A cutoff of  1.0D-08 yielded    136 shell pairs
 There are   1462 function pairs (  1834 Cartesian)
Evaluating contribution to one-electron hamiltonian from nuclear
 Smallest overlap matrix eigenvalue = 4.76E-03
 Multipole matrices computed through 2nd order

  Scale SEOQF with 1.000000e+00/1.000000e+00/1.000000e+00

 Standard Electronic Orientation quadrupole field applied
 Nucleus-field energy     =    -0.0000000009 hartrees
 Guess from superposition of atomic densities
 Warning:  Energy on first SCF cycle will be non-variational
 Long-range K will be added via erf
 Coulomb attenuation parameter = 0.4 bohr**(-1)
 An unrestricted Kohn-Sham SCF calculation will be
 performed using Pulay DIIS extrapolation
 Exchange:  wPBE + LR-HF      Correlation:  PBE
 Using SG-1 standard quadrature grid
 SCF converges when DIIS error is below 1.0E-05
 Requested basis set is G3large
 There are 16 shells and 52 basis functions
 A cutoff of  1.0D-08 yielded    136 shell pairs
 There are   1462 function pairs (  1834 Cartesian)
 Warning!  Inaccurate integrated density:
   Number of electrons =    11
   Numerical integral  =     9.999999861930
   Relative error      =    -9.0909103461 %
 ---------------------------------------
  Cycle       Energy         DIIS Error
 ---------------------------------------
    1    -100.3346030904      4.56E-02
    2    -100.3393436833      1.33E-02
    3    -100.3535070175      1.43E-02
    4    -100.3891175072      1.05E-03
    5    -100.3901737264      3.10E-04
    6    -100.3904513345      1.26E-04
    7    -100.3905403913      4.63E-05
    8    -100.3905510310      1.08E-05
    9    -100.3905514364      1.27E-06 Convergence criterion met
 ---------------------------------------
 One-Electron    Energy =  -152.5752506708
 Total Coulomb   Energy =    57.8379454469
 Alpha Exchange  Energy =    -1.1317444773
 Beta  Exchange  Energy =    -1.0409018331
 DFT   Exchange  Energy =    -8.3641778804
 DFT Correlation Energy =    -0.3438961964
 Nuclear Repu.   Energy =     5.2274741747
 Nuclear Attr.   Energy =  -252.8935647036
 Kinetic         Energy =   100.3183140328
 <S^2> = 0.7501
 SCF time:  CPU 5.36 s  wall 5.74 s
 Final Alpha MO Eigenvalues
            1           2           3           4           5           6
    1 -24.2511741  -1.1171419  -0.4756215  -0.3372619  -0.3372617   0.0284782
            7           8           9          10          11
    1   0.3549238   0.4460278   0.4479138   0.4479161   0.5636600
 Final Beta MO Eigenvalues
            1           2           3           4           5           6
    1 -24.2502388  -1.1143836  -0.4720381  -0.3360629  -0.3360626   0.1961262
            7           8           9          10
    1   0.3786467   0.4540348   0.4567028   0.4567045
 Analysis of SCF Wavefunction
 
 --------------------------------------------------------------
                    Orbital Energies (a.u.)
 --------------------------------------------------------------
 
 Alpha MOs
 -- Occupied --
-24.251  -1.117  -0.476  -0.337  -0.337   0.028
 -- Virtual --
  0.355   0.446   0.448   0.448   0.564   0.777   1.028   1.028
  1.426   1.577   1.577   1.687   2.030   2.310   2.310   2.458
  2.568   2.568   3.503   4.057   4.057   4.740   6.418   6.418
  6.748   6.893   6.893   6.929   6.929   7.302   7.302   8.623
  9.309   9.309   9.495   9.495  10.165  50.283  50.329  50.407
 50.407  50.599  55.773  55.773  56.243  66.758
 
 Beta MOs
 -- Occupied --
-24.250  -1.114  -0.472  -0.336  -0.336
 -- Virtual --
  0.196   0.379   0.454   0.457   0.457   0.569   0.781   1.036
  1.036   1.430   1.578   1.578   1.693   2.031   2.310   2.310
  2.461   2.570   2.570   3.506   4.061   4.061   4.747   6.419
  6.419   6.751   6.894   6.894   6.929   6.929   7.304   7.304
  8.628   9.310   9.310   9.498   9.498  10.167  50.282  50.329
 50.408  50.408  50.601  55.774  55.774  56.245  66.759
 --------------------------------------------------------------
 
          Ground-State Mulliken Net Atomic Charges

     Atom                 Charge (a.u.)    Spin (a.u.)
  --------------------------------------------------------
      1 F                    -0.193793      -0.203251
      2 H                    -0.806207       1.203251
  --------------------------------------------------------
  Sum of atomic charges =    -1.000000
  Sum of spin   charges =     1.000000

 -----------------------------------------------------------------
                    Cartesian Multipole Moments
 -----------------------------------------------------------------
    Charge (ESU x 10^10)
                -4.8032
    Dipole Moment (Debye)
         X       0.0000      Y       0.0000      Z      -4.2927
       Tot       4.2927
    Quadrupole Moments (Debye-Ang)
        XX     -18.2085     XY       0.0000     YY     -18.2085
        XZ       0.0000     YZ       0.0000     ZZ     -22.4052
    Octapole Moments (Debye-Ang^2)
       XXX      -0.0002    XXY       0.0000    XYY      -0.0001
       YYY       0.0001    XXZ     -13.9982    XYZ       0.0000
       YYZ     -13.9982    XZZ      -0.0001    YZZ       0.0000
       ZZZ     -46.4807
    Hexadecapole Moments (Debye-Ang^3)
      XXXX     -87.6339   XXXY       0.0000   XXYY     -29.2113
      XYYY       0.0000   YYYY     -87.6339   XXXZ      -0.0001
      XXYZ       0.0000   XYYZ       0.0000   YYYZ       0.0000
      XXZZ     -42.7220   XYZZ       0.0000   YYZZ     -42.7220
      XZZZ      -0.0001   YZZZ       0.0001   ZZZZ    -172.7059
 -----------------------------------------------------------------
 Total job time:  5.85s(wall), 5.42s(cpu) 
 Mon Jul  8 12:24:27 2013

        *************************************************************
        *                                                           *
        *  Thank you very much for using Q-Chem.  Have a nice day.  *
        *                                                           *
        *************************************************************


0 sent ACK to 0 
now end server 0 ... 
 
**********************************************************************
Job 2 of 3 
**********************************************************************
 
Process 0 of 1 is on cl248.stfx.acenet.ca - thread support 1
initial socket setup ...start
initial socket setup ...done 
now start server 0 ... 

cmd = /usr/bin/ssh clhead /usr/local/qchem/bin/get_hostid 974154479 > /scratch/tmp/6064614.1.long.q/qchem25227/lic.dat
                  Welcome to Q-Chem
     A Quantum Leap Into The Future Of Chemistry

 Y. Shao, L. Fusti-Molnar, Y. Jung, J. Kussmann, C. Ochsenfeld,
 S. T. Brown, A. T. B. Gilbert, L. V. Slipchenko,S. V. Levchenko,
 D. P. O'Neill, R. A. DiStasio Jr., R. C. Lochan, T. Wang,
 G. J. O. Beran, N. A. Besley, J. M. Herbert, C. Y. Lin,
 T. Van Voorhis, S. H. Chien, A. Sodt, R. P. Steele, 
 V. A. Rassolov, P. E. Maslen, P. P. Korambath, R. D. Adamson,
 B. Austin, J. Baker, E. F. C. Byrd, H. Dachsel, R. J. Doerksen,
 A. Dreuw, B. D. Dunietz, A. D. Dutoi, T. R. Furlani,
 S. R. Gwaltney, A. Heyden, S. Hirata, C.-P. Hsu, G. Kedziora,
 R. Z. Khaliullin, P. Klunzinger, A. M. Lee, M. S. Lee, W. Liang,
 I. Lotan, N. Nair, B. Peters, E. I. Proynov, P. A. Pieniazek, 
 Y. M. Rhee, J. Ritchie, E. Rosta, C. D. Sherrill, 
 A. C. Simmonett, J. E. Subotnik, H. L. Woodcock III,
 W. Zhang, A. T. Bell, A. K. Chakraborty, D. M. Chipman,
 F. J. Keil, A. Warshel, W. J. Hehre, H. F. Schaefer III,
 J. Kong, A. I. Krylov, P. M. W. Gill, M. Head-Gordon,
 Q-Chem, Version 3.1, Q-Chem, Inc., Pittsburgh, PA (2007).

 Additional authors for Version 3.1: 
 Z. Gan, Y. Zhao, N. E. Schultz, D. Truhlar, E. Epifanovsky and M. Oana.

 Additional authors for Version 3.2: 
 R. Baer, B. R. Brooks, D. Casanova, J.-D. Chai, C.-L. Cheng, 
 C. Cramer, D. Crittenden, A. Ghysels, G. Hawkins, E. G. Hohenstein, 
 C. Kelley, W. Kurlancheek, D. Liotard, E. Livshits, P. Manohar, 
 A. Marenich, D. Neuhauser, R. Olson, M. A. Rohrdanz, K. S. Thanthiriwatte, 
 A. J. W. Thom, V. Vanovschi, C. F. Williams, Q. Wu and Z.-Q. You. 


 Intel X86 Linux Version

 Q-chem begins on Mon Jul  8 12:24:29 2013  

 Parallel job on  1  processors
Processing $rem in /usr/local/qchem/config/preferences.

theFileMan(): MAXOPENFILES=974 MAX_SUB_FILE_NUM=16
Maximum size of a physical file is 2.0 GB, maximum size of a tmp-file is 32.0 GB


--------------------------------------------------------------
User input:
--------------------------------------------------------------

$molecule
0,1
F          0.00000        0.00000        0.01141
H          0.00000        0.00000        0.92248
$end

$comment
neutral
$end

$xc_functional
C PBE   1.00
X wPBE  1.00
$end


$rem
SYMMETRY_DECOMPOSITION	0
LRC_DFT                 true
exchange 		general
BASIS                   g3large
omega			400
mem_static              760
max_scf_cycles          200
scf_final_print         1
sym_ignore              true
$end

--------------------------------------------------------------
 Writing REM_CC_EA            2
 ----------------------------------------------------
       Standard Nuclear Orientation (Angstroms)
    I     Atom         X            Y            Z
 ----------------------------------------------------
    1      F       0.000000     0.000000     0.011410
    2      H       0.000000     0.000000     0.922480
 ----------------------------------------------------
 Nuclear Repulsion Energy =     5.2274741756 hartrees
 There are        5 alpha and        5 beta electrons
 Requested basis set is G3large
 There are 16 shells and 52 basis functions

Total QAlloc Memory Limit   2000 MB
Mega-Array Size       743 MB
MEM_STATIC part       760 MB

                       Distance Matrix (Angstroms)
             F (  1)
   H (  2)  0.911070
 
 A cutoff of  1.0D-08 yielded    136 shell pairs
 There are   1462 function pairs (  1834 Cartesian)
Evaluating contribution to one-electron hamiltonian from nuclear
 Smallest overlap matrix eigenvalue = 4.76E-03
 Multipole matrices computed through 2nd order

  Scale SEOQF with 1.000000e+00/1.000000e+00/1.000000e+00

 Standard Electronic Orientation quadrupole field applied
 Nucleus-field energy     =    -0.0000000009 hartrees
 Guess from superposition of atomic densities
 Warning:  Energy on first SCF cycle will be non-variational
 Long-range K will be added via erf
 Coulomb attenuation parameter = 0.4 bohr**(-1)
 A restricted Kohn-Sham SCF calculation will be
 performed using Pulay DIIS extrapolation
 Exchange:  wPBE + LR-HF      Correlation:  PBE
 Using SG-1 standard quadrature grid
 SCF converges when DIIS error is below 1.0E-05
 Requested basis set is G3large
 There are 16 shells and 52 basis functions
 A cutoff of  1.0D-08 yielded    136 shell pairs
 There are   1462 function pairs (  1834 Cartesian)
 ---------------------------------------
  Cycle       Energy         DIIS Error
 ---------------------------------------
    1    -100.3346030904      4.56E-02
    2    -100.3901510205      1.22E-02
    3    -100.4000401751      1.17E-02
    4    -100.4227044956      7.80E-04
    5    -100.4227873641      1.60E-04
    6    -100.4227940331      2.21E-05
    7    -100.4227942649      2.13E-06 Convergence criterion met
 ---------------------------------------
 One-Electron    Energy =  -150.5131791658
 Total Coulomb   Energy =    55.6319666401
 Alpha Exchange  Energy =    -1.0417505701
 Beta  Exchange  Energy =    -1.0417505701
 DFT   Exchange  Energy =    -8.3499464107
 DFT Correlation Energy =    -0.3356083629
 Nuclear Repu.   Energy =     5.2274741747
 Nuclear Attr.   Energy =  -250.7352549821
 Kinetic         Energy =   100.2220758163
 SCF time:  CPU 4.05 s  wall 4.25 s
 Final Alpha MO Eigenvalues
            1           2           3           4           5           6
    1 -24.4640533  -1.3288584  -0.6832452  -0.5449942  -0.5449938   0.0382840
            7           8           9          10
    1   0.1887929   0.2864662   0.2864664   0.2918088
 Analysis of SCF Wavefunction
 
 --------------------------------------------------------------
                    Orbital Energies (a.u.)
 --------------------------------------------------------------
 
 Alpha MOs
 -- Occupied --
-24.464  -1.329  -0.683  -0.545  -0.545
 -- Virtual --
  0.038   0.189   0.286   0.286   0.292   0.388   0.572   0.812
  0.812   1.233   1.383   1.383   1.481   1.829   2.103   2.103
  2.240   2.359   2.359   3.292   3.830   3.830   4.520   6.211
  6.211   6.540   6.684   6.684   6.721   6.721   7.091   7.091
  8.409   9.100   9.100   9.286   9.286   9.957  50.071  50.117
 50.195  50.195  50.387  55.561  55.561  56.030  66.546
 --------------------------------------------------------------
 
          Ground-State Mulliken Net Atomic Charges

     Atom                 Charge (a.u.)
  ----------------------------------------
      1 F                    -0.344706
      2 H                     0.344706
  ----------------------------------------
  Sum of atomic charges =     0.000000

 -----------------------------------------------------------------
                    Cartesian Multipole Moments
 -----------------------------------------------------------------
    Charge (ESU x 10^10)
                 0.0000
    Dipole Moment (Debye)
         X       0.0000      Y       0.0000      Z       1.8772
       Tot       1.8772
    Quadrupole Moments (Debye-Ang)
        XX      -5.8601     XY       0.0000     YY      -5.8601
        XZ       0.0000     YZ       0.0000     ZZ      -3.3865
    Octapole Moments (Debye-Ang^2)
       XXX       0.0000    XXY       0.0000    XYY       0.0000
       YYY       0.0000    XXZ      -0.4221    XYZ       0.0000
       YYZ      -0.4221    XZZ       0.0000    YZZ       0.0000
       ZZZ       0.7532
    Hexadecapole Moments (Debye-Ang^3)
      XXXX      -4.1285   XXXY       0.0000   XXYY      -1.3762
      XYYY       0.0000   YYYY      -4.1285   XXXZ       0.0000
      XXYZ       0.0000   XYYZ       0.0000   YYYZ       0.0000
      XXZZ      -1.5672   XYZZ       0.0000   YYZZ      -1.5672
      XZZZ       0.0000   YZZZ       0.0000   ZZZZ      -3.1189
 -----------------------------------------------------------------
 Total job time:  4.32s(wall), 4.12s(cpu) 
 Mon Jul  8 12:24:34 2013

        *************************************************************
        *                                                           *
        *  Thank you very much for using Q-Chem.  Have a nice day.  *
        *                                                           *
        *************************************************************


0 sent ACK to 0 
now end server 0 ... 
 
**********************************************************************
Job 3 of 3 
**********************************************************************
 
Process 0 of 1 is on cl248.stfx.acenet.ca - thread support 1
initial socket setup ...start
initial socket setup ...done 
now start server 0 ... 

cmd = /usr/bin/ssh clhead /usr/local/qchem/bin/get_hostid 2065720460 > /scratch/tmp/6064614.1.long.q/qchem25227/lic.dat
                  Welcome to Q-Chem
     A Quantum Leap Into The Future Of Chemistry

 Y. Shao, L. Fusti-Molnar, Y. Jung, J. Kussmann, C. Ochsenfeld,
 S. T. Brown, A. T. B. Gilbert, L. V. Slipchenko,S. V. Levchenko,
 D. P. O'Neill, R. A. DiStasio Jr., R. C. Lochan, T. Wang,
 G. J. O. Beran, N. A. Besley, J. M. Herbert, C. Y. Lin,
 T. Van Voorhis, S. H. Chien, A. Sodt, R. P. Steele, 
 V. A. Rassolov, P. E. Maslen, P. P. Korambath, R. D. Adamson,
 B. Austin, J. Baker, E. F. C. Byrd, H. Dachsel, R. J. Doerksen,
 A. Dreuw, B. D. Dunietz, A. D. Dutoi, T. R. Furlani,
 S. R. Gwaltney, A. Heyden, S. Hirata, C.-P. Hsu, G. Kedziora,
 R. Z. Khaliullin, P. Klunzinger, A. M. Lee, M. S. Lee, W. Liang,
 I. Lotan, N. Nair, B. Peters, E. I. Proynov, P. A. Pieniazek, 
 Y. M. Rhee, J. Ritchie, E. Rosta, C. D. Sherrill, 
 A. C. Simmonett, J. E. Subotnik, H. L. Woodcock III,
 W. Zhang, A. T. Bell, A. K. Chakraborty, D. M. Chipman,
 F. J. Keil, A. Warshel, W. J. Hehre, H. F. Schaefer III,
 J. Kong, A. I. Krylov, P. M. W. Gill, M. Head-Gordon,
 Q-Chem, Version 3.1, Q-Chem, Inc., Pittsburgh, PA (2007).

 Additional authors for Version 3.1: 
 Z. Gan, Y. Zhao, N. E. Schultz, D. Truhlar, E. Epifanovsky and M. Oana.

 Additional authors for Version 3.2: 
 R. Baer, B. R. Brooks, D. Casanova, J.-D. Chai, C.-L. Cheng, 
 C. Cramer, D. Crittenden, A. Ghysels, G. Hawkins, E. G. Hohenstein, 
 C. Kelley, W. Kurlancheek, D. Liotard, E. Livshits, P. Manohar, 
 A. Marenich, D. Neuhauser, R. Olson, M. A. Rohrdanz, K. S. Thanthiriwatte, 
 A. J. W. Thom, V. Vanovschi, C. F. Williams, Q. Wu and Z.-Q. You. 


 Intel X86 Linux Version

 Q-chem begins on Mon Jul  8 12:24:36 2013  

 Parallel job on  1  processors
Processing $rem in /usr/local/qchem/config/preferences.

theFileMan(): MAXOPENFILES=974 MAX_SUB_FILE_NUM=16
Maximum size of a physical file is 2.0 GB, maximum size of a tmp-file is 32.0 GB


--------------------------------------------------------------
User input:
--------------------------------------------------------------

$molecule
1,2
F          0.00000        0.00000        0.01141
H          0.00000        0.00000        0.92248
$end

$comment
positive
$end

$xc_functional
C PBE   1.00
X wPBE  1.00
$end

$rem
SYMMETRY_DECOMPOSITION	0
LRC_DFT                 true
exchange 		general
BASIS                   g3large
omega			400
mem_static              760
max_scf_cycles          200
scf_final_print         1
sym_ignore              true
$end

--------------------------------------------------------------
 Writing REM_CC_EA            2
 ----------------------------------------------------
       Standard Nuclear Orientation (Angstroms)
    I     Atom         X            Y            Z
 ----------------------------------------------------
    1      F       0.000000     0.000000     0.011410
    2      H       0.000000     0.000000     0.922480
 ----------------------------------------------------
 Nuclear Repulsion Energy =     5.2274741756 hartrees
 There are        5 alpha and        4 beta electrons
 Requested basis set is G3large
 There are 16 shells and 52 basis functions

Total QAlloc Memory Limit   2000 MB
Mega-Array Size       743 MB
MEM_STATIC part       760 MB

                       Distance Matrix (Angstroms)
             F (  1)
   H (  2)  0.911070
 
 A cutoff of  1.0D-08 yielded    136 shell pairs
 There are   1462 function pairs (  1834 Cartesian)
Evaluating contribution to one-electron hamiltonian from nuclear
 Smallest overlap matrix eigenvalue = 4.76E-03
 Multipole matrices computed through 2nd order

  Scale SEOQF with 1.000000e+00/1.000000e+00/1.000000e+00

 Standard Electronic Orientation quadrupole field applied
 Nucleus-field energy     =    -0.0000000009 hartrees
 Guess from superposition of atomic densities
 Warning:  Energy on first SCF cycle will be non-variational
 Long-range K will be added via erf
 Coulomb attenuation parameter = 0.4 bohr**(-1)
 An unrestricted Kohn-Sham SCF calculation will be
 performed using Pulay DIIS extrapolation
 Exchange:  wPBE + LR-HF      Correlation:  PBE
 Using SG-1 standard quadrature grid
 SCF converges when DIIS error is below 1.0E-05
 Requested basis set is G3large
 There are 16 shells and 52 basis functions
 A cutoff of  1.0D-08 yielded    136 shell pairs
 There are   1462 function pairs (  1834 Cartesian)
 Warning!  Inaccurate integrated density:
   Number of electrons =     9
   Numerical integral  =     9.999999861930
   Relative error      =    11.1111095770 %
 ---------------------------------------
  Cycle       Energy         DIIS Error
 ---------------------------------------
    1    -100.3346030904      4.56E-02
    2     -99.7586292534      1.45E-02
    3     -99.8039267844      9.82E-03
    4     -99.8189788816      8.29E-04
    5     -99.8191868170      2.14E-04
    6     -99.8192293979      7.31E-05
    7     -99.8192513511      4.91E-05
    8     -99.8192696294      1.34E-05
    9     -99.8192709587      1.57E-06 Convergence criterion met
 ---------------------------------------
 One-Electron    Energy =  -144.6169482459
 Total Coulomb   Energy =    49.9320371894
 Alpha Exchange  Energy =    -1.0580464786
 Beta  Exchange  Energy =    -0.8444664390
 DFT   Exchange  Energy =    -8.1654890964
 DFT Correlation Energy =    -0.2938320630
 Nuclear Repu.   Energy =     5.2274741747
 Nuclear Attr.   Energy =  -244.4174909240
 Kinetic         Energy =    99.8005426781
 <S^2> = 0.7515
 SCF time:  CPU 5.28 s  wall 5.58 s
 Final Alpha MO Eigenvalues
            1           2           3           4           5           6
    1 -25.1375168  -1.9409862  -1.2460153  -1.2166028  -1.1195237  -0.2315456
            7           8           9          10
    1  -0.0800536  -0.0213033  -0.0072229   0.0074674
 Final Beta MO Eigenvalues
            1           2           3           4           5           6
    1 -25.1073093  -1.8602100  -1.2154172  -1.0883208  -0.6609798  -0.2249888
            7           8           9
    1  -0.0772340  -0.0045332  -0.0040192
 Analysis of SCF Wavefunction
 
 --------------------------------------------------------------
                    Orbital Energies (a.u.)
 --------------------------------------------------------------
 
 Alpha MOs
 -- Occupied --
-25.138  -1.941  -1.246  -1.217  -1.120
 -- Virtual --
 -0.232  -0.080  -0.021  -0.007   0.007   0.101   0.229   0.424
  0.438   0.857   0.898   0.943   1.064   1.340   1.541   1.544
  1.814   1.815   1.863   2.794   3.363   3.378   4.044   5.531
  5.619   5.932   6.077   6.088   6.090   6.090   6.478   6.539
  7.843   8.415   8.416   8.604   8.686   9.348  49.365  49.408
 49.490  49.550  49.726  54.850  54.906  55.374  65.876
 
 Beta MOs
 -- Occupied --
-25.107  -1.860  -1.215  -1.088
 -- Virtual --
 -0.661  -0.225  -0.077  -0.005  -0.004   0.012   0.106   0.233
  0.438   0.439   0.866   0.956   0.970   1.076   1.385   1.611
  1.622   1.819   1.872   1.879   2.817   3.372   3.373   4.050
  5.649   5.687   5.989   6.138   6.147   6.186   6.190   6.550
  6.558   7.870   8.541   8.569   8.708   8.735   9.404  49.451
 49.502  49.559  49.577  49.759  54.925  54.943  55.394  65.908
 --------------------------------------------------------------
 
          Ground-State Mulliken Net Atomic Charges

     Atom                 Charge (a.u.)    Spin (a.u.)
  --------------------------------------------------------
      1 F                     0.503397       1.011948
      2 H                     0.496603      -0.011948
  --------------------------------------------------------
  Sum of atomic charges =     1.000000
  Sum of spin   charges =     1.000000

 -----------------------------------------------------------------
                    Cartesian Multipole Moments
 -----------------------------------------------------------------
    Charge (ESU x 10^10)
                 4.8032
    Dipole Moment (Debye)
         X       0.0000      Y       0.0000      Z       2.5551
       Tot       2.5551
    Quadrupole Moments (Debye-Ang)
        XX      -4.0277     XY       0.3817     YY      -4.0277
        XZ       0.0000     YZ       0.0000     ZZ      -1.5264
    Octapole Moments (Debye-Ang^2)
       XXX       0.0000    XXY       0.0000    XYY       0.0000
       YYY       0.0000    XXZ      -0.2545    XYZ       0.0182
       YYZ      -0.2545    XZZ       0.0000    YZZ       0.0000
       ZZZ       1.8019
    Hexadecapole Moments (Debye-Ang^3)
      XXXX      -1.9670   XXXY       0.1663   XXYY      -0.6557
      XYYY       0.1663   YYYY      -1.9670   XXXZ       0.0000
      XXYZ       0.0000   XYYZ       0.0000   YYYZ       0.0000
      XXZZ      -0.8350   XYZZ       0.0607   YYZZ      -0.8350
      XZZZ       0.0000   YZZZ       0.0000   ZZZZ      -0.4172
 -----------------------------------------------------------------
 Total job time:  5.65s(wall), 5.34s(cpu) 
 Mon Jul  8 12:24:42 2013

        *************************************************************
        *                                                           *
        *  Thank you very much for using Q-Chem.  Have a nice day.  *
        *                                                           *
        *************************************************************


0 sent ACK to 0 
now end server 0 ... 
