Process 0 of 1 is on cl064.stfx.acenet.ca - thread support 1
initial socket setup ...start
initial socket setup ...done 
now start server 0 ... 

cmd = /usr/bin/ssh clhead /usr/local/qchem/bin/get_hostid 1766315658 > /scratch/tmp/6063444.1.short.q/qchem21331/lic.dat
                  Welcome to Q-Chem
     A Quantum Leap Into The Future Of Chemistry

 Y. Shao, L. Fusti-Molnar, Y. Jung, J. Kussmann, C. Ochsenfeld,
 S. T. Brown, A. T. B. Gilbert, L. V. Slipchenko,S. V. Levchenko,
 D. P. O'Neill, R. A. DiStasio Jr., R. C. Lochan, T. Wang,
 G. J. O. Beran, N. A. Besley, J. M. Herbert, C. Y. Lin,
 T. Van Voorhis, S. H. Chien, A. Sodt, R. P. Steele, 
 V. A. Rassolov, P. E. Maslen, P. P. Korambath, R. D. Adamson,
 B. Austin, J. Baker, E. F. C. Byrd, H. Dachsel, R. J. Doerksen,
 A. Dreuw, B. D. Dunietz, A. D. Dutoi, T. R. Furlani,
 S. R. Gwaltney, A. Heyden, S. Hirata, C.-P. Hsu, G. Kedziora,
 R. Z. Khaliullin, P. Klunzinger, A. M. Lee, M. S. Lee, W. Liang,
 I. Lotan, N. Nair, B. Peters, E. I. Proynov, P. A. Pieniazek, 
 Y. M. Rhee, J. Ritchie, E. Rosta, C. D. Sherrill, 
 A. C. Simmonett, J. E. Subotnik, H. L. Woodcock III,
 W. Zhang, A. T. Bell, A. K. Chakraborty, D. M. Chipman,
 F. J. Keil, A. Warshel, W. J. Hehre, H. F. Schaefer III,
 J. Kong, A. I. Krylov, P. M. W. Gill, M. Head-Gordon,
 Q-Chem, Version 3.1, Q-Chem, Inc., Pittsburgh, PA (2007).

 Additional authors for Version 3.1: 
 Z. Gan, Y. Zhao, N. E. Schultz, D. Truhlar, E. Epifanovsky and M. Oana.

 Additional authors for Version 3.2: 
 R. Baer, B. R. Brooks, D. Casanova, J.-D. Chai, C.-L. Cheng, 
 C. Cramer, D. Crittenden, A. Ghysels, G. Hawkins, E. G. Hohenstein, 
 C. Kelley, W. Kurlancheek, D. Liotard, E. Livshits, P. Manohar, 
 A. Marenich, D. Neuhauser, R. Olson, M. A. Rohrdanz, K. S. Thanthiriwatte, 
 A. J. W. Thom, V. Vanovschi, C. F. Williams, Q. Wu and Z.-Q. You. 


 Intel X86 Linux Version

 Q-chem begins on Sun Jul  7 08:37:36 2013  

 Parallel job on  1  processors
Processing $rem in /usr/local/qchem/config/preferences.

theFileMan(): MAXOPENFILES=974 MAX_SUB_FILE_NUM=16
Maximum size of a physical file is 2.0 GB, maximum size of a tmp-file is 32.0 GB


--------------------------------------------------------------
User input:
--------------------------------------------------------------

$molecule
-1,2
C          0.00000        0.00000        0.00556
N          0.00000        0.00000        1.14270
H          0.00000        0.00000       -1.06160
$end

$comment
negative
$end

$xc_functional
C PBE   1.00
X wPBE  1.00
$end

$rem
SYMMETRY_DECOMPOSITION	0
exchange 		general
LRC_DFT                 true
BASIS                   g3large
omega			400
mem_static              760
max_scf_cycles          200
scf_final_print         1
sym_ignore              true
$end

--------------------------------------------------------------
 Writing REM_CC_EA            3
 ----------------------------------------------------
       Standard Nuclear Orientation (Angstroms)
    I     Atom         X            Y            Z
 ----------------------------------------------------
    1      C       0.000000     0.000000     0.005560
    2      N       0.000000     0.000000     1.142700
    3      H       0.000000     0.000000    -1.061600
 ----------------------------------------------------
 Nuclear Repulsion Energy =    24.2007434348 hartrees
 There are        8 alpha and        7 beta electrons
 Requested basis set is G3large
 There are 26 shells and 94 basis functions

Total QAlloc Memory Limit   2000 MB
Mega-Array Size       743 MB
MEM_STATIC part       760 MB

                       Distance Matrix (Angstroms)
             C (  1)   N (  2)
   N (  2)  1.137140
   H (  3)  1.067160  2.204300
 
 A cutoff of  1.0D-08 yielded    346 shell pairs
 There are   4554 function pairs (  5821 Cartesian)
Evaluating contribution to one-electron hamiltonian from nuclear
 Smallest overlap matrix eigenvalue = 4.78E-04
 Multipole matrices computed through 2nd order

  Scale SEOQF with 1.000000e-01/1.000000e-01/1.000000e-01

 Standard Electronic Orientation quadrupole field applied
 Nucleus-field energy     =    -0.0000000011 hartrees
 Guess from superposition of atomic densities
 Warning:  Energy on first SCF cycle will be non-variational
 Long-range K will be added via erf
 Coulomb attenuation parameter = 0.4 bohr**(-1)
 An unrestricted Kohn-Sham SCF calculation will be
 performed using Pulay DIIS extrapolation
 Exchange:  wPBE + LR-HF      Correlation:  PBE
 Using SG-1 standard quadrature grid
 SCF converges when DIIS error is below 1.0E-05
 Requested basis set is G3large
 There are 26 shells and 94 basis functions
 A cutoff of  1.0D-08 yielded    346 shell pairs
 There are   4554 function pairs (  5821 Cartesian)
 Warning!  Inaccurate integrated density:
   Number of electrons =    15
   Numerical integral  =    14.000041603855
   Relative error      =    -6.6663893076 %
 ---------------------------------------
  Cycle       Energy         DIIS Error
 ---------------------------------------
    1     -93.5376473103      4.62E-02
    2     -93.1164477999      1.09E-02
    3     -93.0040272186      1.71E-02
    4     -93.3217669506      3.80E-03
    5     -93.3411172897      2.15E-03
    6     -93.3487792123      2.96E-04
    7     -93.3494229800      1.28E-04
    8     -93.3495616856      5.13E-05
    9     -93.3495860384      5.37E-06 Convergence criterion met
 ---------------------------------------
 One-Electron    Energy =  -175.4934247087
 Total Coulomb   Energy =    70.5992656313
 Alpha Exchange  Energy =    -1.4883032854
 Beta  Exchange  Energy =    -1.4003182576
 DFT   Exchange  Energy =    -9.3177438973
 DFT Correlation Energy =    -0.4498049545
 Nuclear Repu.   Energy =    24.2007434337
 Nuclear Attr.   Energy =  -268.6720945681
 Kinetic         Energy =    93.1786698594
 <S^2> = 0.7501
 SCF time:  CPU 15.62 s  wall 17.06 s
 Final Alpha MO Eigenvalues
            1           2           3           4           5           6
    1 -14.0729398 -10.0054639  -0.9245605  -0.5803584  -0.3753429  -0.3537579
            7           8           9          10          11          12
    1  -0.3537272   0.0212860   0.1842405   0.2012325   0.2012397   0.2651024
           13
    1   0.2651848
 Final Beta MO Eigenvalues
            1           2           3           4           5           6
    1 -14.0731300 -10.0045396  -0.9245355  -0.5764961  -0.3750561  -0.3535701
            7           8           9          10          11          12
    1  -0.3535210   0.1729692   0.2108944   0.2109101   0.2134395   0.2670477
 Analysis of SCF Wavefunction
 
 --------------------------------------------------------------
                    Orbital Energies (a.u.)
 --------------------------------------------------------------
 
 Alpha MOs
 -- Occupied --
-14.073 -10.005  -0.925  -0.580  -0.375  -0.354  -0.354   0.021
 -- Virtual --
  0.184   0.201   0.201   0.265   0.265   0.285   0.325   0.366
  0.366   0.382   0.448   0.613   0.765   0.765   0.820   0.873
  0.873   0.907   0.956   0.956   0.990   1.044   1.044   1.188
  1.406   1.418   1.418   1.452   1.452   1.718   1.996   1.996
  2.051   2.266   2.697   2.938   2.938   3.006   3.006   3.071
  3.071   3.134   3.134   3.239   3.458   3.458   3.526   3.526
  3.658   3.903   3.903   4.014   4.015   4.468   4.552   4.552
  4.592   4.640   4.640   5.027   5.028   5.331   5.331   5.439
  6.238   6.238   6.486   7.429  24.526  27.422  27.422  28.919
 36.222  37.662  37.662  38.465  40.590  40.702  40.773  40.805
 40.805  40.966  41.232  41.444  41.444  41.748
 
 Beta MOs
 -- Occupied --
-14.073 -10.005  -0.925  -0.576  -0.375  -0.354  -0.354
 -- Virtual --
  0.173   0.211   0.211   0.213   0.267   0.267   0.295   0.340
  0.369   0.369   0.386   0.450   0.613   0.766   0.766   0.820
  0.874   0.874   0.907   0.956   0.956   0.990   1.044   1.044
  1.189   1.406   1.418   1.418   1.453   1.453   1.719   1.996
  1.996   2.051   2.266   2.697   2.939   2.939   3.008   3.008
  3.071   3.071   3.137   3.137   3.240   3.462   3.462   3.527
  3.527   3.660   3.902   3.902   4.014   4.014   4.469   4.552
  4.552   4.592   4.640   4.640   5.026   5.026   5.331   5.331
  5.440   6.239   6.239   6.487   7.430  24.527  27.423  27.423
 28.921  36.222  37.661  37.661  38.465  40.589  40.701  40.773
 40.805  40.805  40.967  41.232  41.445  41.445  41.749
 --------------------------------------------------------------
 
          Ground-State Mulliken Net Atomic Charges

     Atom                 Charge (a.u.)    Spin (a.u.)
  --------------------------------------------------------
      1 C                     2.374117      -2.273901
      2 N                    -0.362994       0.060304
      3 H                    -3.011123       3.213597
  --------------------------------------------------------
  Sum of atomic charges =    -1.000000
  Sum of spin   charges =     1.000000

 -----------------------------------------------------------------
                    Cartesian Multipole Moments
 -----------------------------------------------------------------
    Charge (ESU x 10^10)
                -4.8032
    Dipole Moment (Debye)
         X      -0.0019      Y      -0.0006      Z       8.1429
       Tot       8.1429
    Quadrupole Moments (Debye-Ang)
        XX     -26.1637     XY       0.0001     YY     -26.1637
        XZ       0.0028     YZ       0.0009     ZZ     -54.0373
    Octapole Moments (Debye-Ang^2)
       XXX      -0.0149    XXY      -0.0016    XYY      -0.0050
       YYY      -0.0049    XXZ      23.8537    XYZ      -0.0002
       YYZ      23.8537    XZZ      -0.0073    YZZ      -0.0024
       ZZZ     115.1997
    Hexadecapole Moments (Debye-Ang^3)
      XXXX    -133.6386   XXXY       0.0002   XXYY     -44.5462
      XYYY       0.0002   YYYY    -133.6386   XXXZ       0.0165
      XXYZ       0.0018   XYYZ       0.0055   YYYZ       0.0054
      XXZZ    -113.9554   XYZZ      -0.0001   YYZZ    -113.9554
      XZZZ       0.0190   YZZZ       0.0061   ZZZZ    -634.5964
 -----------------------------------------------------------------
 Total job time:  17.18s(wall), 15.71s(cpu) 
 Sun Jul  7 08:37:54 2013

        *************************************************************
        *                                                           *
        *  Thank you very much for using Q-Chem.  Have a nice day.  *
        *                                                           *
        *************************************************************


0 sent ACK to 0 
now end server 0 ... 
 
**********************************************************************
Job 2 of 3 
**********************************************************************
 
Process 0 of 1 is on cl064.stfx.acenet.ca - thread support 1
initial socket setup ...start
initial socket setup ...done 
now start server 0 ... 

cmd = /usr/bin/ssh clhead /usr/local/qchem/bin/get_hostid 1070236864 > /scratch/tmp/6063444.1.short.q/qchem21331/lic.dat
                  Welcome to Q-Chem
     A Quantum Leap Into The Future Of Chemistry

 Y. Shao, L. Fusti-Molnar, Y. Jung, J. Kussmann, C. Ochsenfeld,
 S. T. Brown, A. T. B. Gilbert, L. V. Slipchenko,S. V. Levchenko,
 D. P. O'Neill, R. A. DiStasio Jr., R. C. Lochan, T. Wang,
 G. J. O. Beran, N. A. Besley, J. M. Herbert, C. Y. Lin,
 T. Van Voorhis, S. H. Chien, A. Sodt, R. P. Steele, 
 V. A. Rassolov, P. E. Maslen, P. P. Korambath, R. D. Adamson,
 B. Austin, J. Baker, E. F. C. Byrd, H. Dachsel, R. J. Doerksen,
 A. Dreuw, B. D. Dunietz, A. D. Dutoi, T. R. Furlani,
 S. R. Gwaltney, A. Heyden, S. Hirata, C.-P. Hsu, G. Kedziora,
 R. Z. Khaliullin, P. Klunzinger, A. M. Lee, M. S. Lee, W. Liang,
 I. Lotan, N. Nair, B. Peters, E. I. Proynov, P. A. Pieniazek, 
 Y. M. Rhee, J. Ritchie, E. Rosta, C. D. Sherrill, 
 A. C. Simmonett, J. E. Subotnik, H. L. Woodcock III,
 W. Zhang, A. T. Bell, A. K. Chakraborty, D. M. Chipman,
 F. J. Keil, A. Warshel, W. J. Hehre, H. F. Schaefer III,
 J. Kong, A. I. Krylov, P. M. W. Gill, M. Head-Gordon,
 Q-Chem, Version 3.1, Q-Chem, Inc., Pittsburgh, PA (2007).

 Additional authors for Version 3.1: 
 Z. Gan, Y. Zhao, N. E. Schultz, D. Truhlar, E. Epifanovsky and M. Oana.

 Additional authors for Version 3.2: 
 R. Baer, B. R. Brooks, D. Casanova, J.-D. Chai, C.-L. Cheng, 
 C. Cramer, D. Crittenden, A. Ghysels, G. Hawkins, E. G. Hohenstein, 
 C. Kelley, W. Kurlancheek, D. Liotard, E. Livshits, P. Manohar, 
 A. Marenich, D. Neuhauser, R. Olson, M. A. Rohrdanz, K. S. Thanthiriwatte, 
 A. J. W. Thom, V. Vanovschi, C. F. Williams, Q. Wu and Z.-Q. You. 


 Intel X86 Linux Version

 Q-chem begins on Sun Jul  7 08:37:56 2013  

 Parallel job on  1  processors
Processing $rem in /usr/local/qchem/config/preferences.

theFileMan(): MAXOPENFILES=974 MAX_SUB_FILE_NUM=16
Maximum size of a physical file is 2.0 GB, maximum size of a tmp-file is 32.0 GB


--------------------------------------------------------------
User input:
--------------------------------------------------------------

$molecule
0,1
C          0.00000        0.00000        0.00556
N          0.00000        0.00000        1.14270
H          0.00000        0.00000       -1.06160
$end

$comment
neutral
$end

$xc_functional
C PBE   1.00
X wPBE  1.00
$end


$rem
SYMMETRY_DECOMPOSITION	0
LRC_DFT                 true
exchange 		general
BASIS                   g3large
omega			400
mem_static              760
max_scf_cycles          200
scf_final_print         1
sym_ignore              true
$end

--------------------------------------------------------------
 Writing REM_CC_EA            3
 ----------------------------------------------------
       Standard Nuclear Orientation (Angstroms)
    I     Atom         X            Y            Z
 ----------------------------------------------------
    1      C       0.000000     0.000000     0.005560
    2      N       0.000000     0.000000     1.142700
    3      H       0.000000     0.000000    -1.061600
 ----------------------------------------------------
 Nuclear Repulsion Energy =    24.2007434348 hartrees
 There are        7 alpha and        7 beta electrons
 Requested basis set is G3large
 There are 26 shells and 94 basis functions

Total QAlloc Memory Limit   2000 MB
Mega-Array Size       743 MB
MEM_STATIC part       760 MB

                       Distance Matrix (Angstroms)
             C (  1)   N (  2)
   N (  2)  1.137140
   H (  3)  1.067160  2.204300
 
 A cutoff of  1.0D-08 yielded    346 shell pairs
 There are   4554 function pairs (  5821 Cartesian)
Evaluating contribution to one-electron hamiltonian from nuclear
 Smallest overlap matrix eigenvalue = 4.78E-04
 Multipole matrices computed through 2nd order

  Scale SEOQF with 1.000000e-01/1.000000e-01/1.000000e-01

 Standard Electronic Orientation quadrupole field applied
 Nucleus-field energy     =    -0.0000000011 hartrees
 Guess from superposition of atomic densities
 Warning:  Energy on first SCF cycle will be non-variational
 Long-range K will be added via erf
 Coulomb attenuation parameter = 0.4 bohr**(-1)
 A restricted Kohn-Sham SCF calculation will be
 performed using Pulay DIIS extrapolation
 Exchange:  wPBE + LR-HF      Correlation:  PBE
 Using SG-1 standard quadrature grid
 SCF converges when DIIS error is below 1.0E-05
 Requested basis set is G3large
 There are 26 shells and 94 basis functions
 A cutoff of  1.0D-08 yielded    346 shell pairs
 There are   4554 function pairs (  5821 Cartesian)
 ---------------------------------------
  Cycle       Energy         DIIS Error
 ---------------------------------------
    1     -93.5376473103      4.62E-02
    2     -93.3121430898      7.26E-03
    3     -93.2887855222      9.87E-03
    4     -93.3741787837      6.19E-04
    5     -93.3752602859      3.00E-04
    6     -93.3755879673      1.03E-04
    7     -93.3756278642      2.28E-05
    8     -93.3756305721      4.18E-06 Convergence criterion met
 ---------------------------------------
 One-Electron    Energy =  -173.4681659395
 Total Coulomb   Energy =    68.4394633289
 Alpha Exchange  Energy =    -1.4006758106
 Beta  Exchange  Energy =    -1.4006758106
 DFT   Exchange  Energy =    -9.3045145258
 DFT Correlation Energy =    -0.4418052482
 Nuclear Repu.   Energy =    24.2007434337
 Nuclear Attr.   Energy =  -266.5716421941
 Kinetic         Energy =    93.1034762545
 SCF time:  CPU 12.02 s  wall 14.03 s
 Final Alpha MO Eigenvalues
            1           2           3           4           5           6
    1 -14.2206037 -10.1553605  -1.0693108  -0.7431753  -0.5127189  -0.4976942
            7           8           9          10          11          12
    1  -0.4976926   0.0350524   0.0760735   0.0760753   0.0826517   0.1367468
 Analysis of SCF Wavefunction
 
 --------------------------------------------------------------
                    Orbital Energies (a.u.)
 --------------------------------------------------------------
 
 Alpha MOs
 -- Occupied --
-14.221 -10.155  -1.069  -0.743  -0.513  -0.498  -0.498
 -- Virtual --
  0.035   0.076   0.076   0.083   0.137   0.137   0.162   0.188
  0.248   0.248   0.262   0.322   0.467   0.619   0.619   0.662
  0.725   0.725   0.766   0.791   0.791   0.858   0.915   0.915
  1.039   1.267   1.279   1.279   1.292   1.292   1.540   1.851
  1.851   1.903   2.132   2.535   2.791   2.791   2.858   2.858
  2.924   2.924   2.977   2.977   3.089   3.309   3.309   3.376
  3.376   3.498   3.762   3.762   3.868   3.868   4.320   4.409
  4.409   4.441   4.476   4.476   4.884   4.884   5.191   5.191
  5.291   6.089   6.089   6.336   7.273  24.377  27.272  27.272
 28.769  36.074  37.514  37.514  38.318  40.442  40.554  40.625
 40.657  40.657  40.817  41.083  41.295  41.295  41.599
 --------------------------------------------------------------
 
          Ground-State Mulliken Net Atomic Charges

     Atom                 Charge (a.u.)
  ----------------------------------------
      1 C                     0.049436
      2 N                    -0.202331
      3 H                     0.152895
  ----------------------------------------
  Sum of atomic charges =     0.000000

 -----------------------------------------------------------------
                    Cartesian Multipole Moments
 -----------------------------------------------------------------
    Charge (ESU x 10^10)
                 0.0000
    Dipole Moment (Debye)
         X       0.0000      Y       0.0000      Z      -3.1143
       Tot       3.1143
    Quadrupole Moments (Debye-Ang)
        XX     -11.6904     XY       0.0000     YY     -11.6904
        XZ       0.0000     YZ       0.0000     ZZ     -12.8020
    Octapole Moments (Debye-Ang^2)
       XXX       0.0000    XXY       0.0000    XYY       0.0000
       YYY       0.0000    XXZ      -6.1967    XYZ       0.0001
       YYZ      -6.1967    XZZ       0.0000    YZZ       0.0000
       ZZZ     -24.7053
    Hexadecapole Moments (Debye-Ang^3)
      XXXX     -11.8542   XXXY      -0.0001   XXYY      -3.9514
      XYYY      -0.0001   YYYY     -11.8542   XXXZ       0.0000
      XXYZ       0.0000   XYYZ       0.0000   YYYZ       0.0000
      XXZZ     -12.3709   XYZZ       0.0000   YYZZ     -12.3709
      XZZZ       0.0000   YZZZ       0.0000   ZZZZ     -67.1813
 -----------------------------------------------------------------
 Total job time:  14.14s(wall), 12.12s(cpu) 
 Sun Jul  7 08:38:11 2013

        *************************************************************
        *                                                           *
        *  Thank you very much for using Q-Chem.  Have a nice day.  *
        *                                                           *
        *************************************************************


0 sent ACK to 0 
now end server 0 ... 
 
**********************************************************************
Job 3 of 3 
**********************************************************************
 
Process 0 of 1 is on cl064.stfx.acenet.ca - thread support 1
initial socket setup ...start
initial socket setup ...done 
now start server 0 ... 

cmd = /usr/bin/ssh clhead /usr/local/qchem/bin/get_hostid 184436117 > /scratch/tmp/6063444.1.short.q/qchem21331/lic.dat
                  Welcome to Q-Chem
     A Quantum Leap Into The Future Of Chemistry

 Y. Shao, L. Fusti-Molnar, Y. Jung, J. Kussmann, C. Ochsenfeld,
 S. T. Brown, A. T. B. Gilbert, L. V. Slipchenko,S. V. Levchenko,
 D. P. O'Neill, R. A. DiStasio Jr., R. C. Lochan, T. Wang,
 G. J. O. Beran, N. A. Besley, J. M. Herbert, C. Y. Lin,
 T. Van Voorhis, S. H. Chien, A. Sodt, R. P. Steele, 
 V. A. Rassolov, P. E. Maslen, P. P. Korambath, R. D. Adamson,
 B. Austin, J. Baker, E. F. C. Byrd, H. Dachsel, R. J. Doerksen,
 A. Dreuw, B. D. Dunietz, A. D. Dutoi, T. R. Furlani,
 S. R. Gwaltney, A. Heyden, S. Hirata, C.-P. Hsu, G. Kedziora,
 R. Z. Khaliullin, P. Klunzinger, A. M. Lee, M. S. Lee, W. Liang,
 I. Lotan, N. Nair, B. Peters, E. I. Proynov, P. A. Pieniazek, 
 Y. M. Rhee, J. Ritchie, E. Rosta, C. D. Sherrill, 
 A. C. Simmonett, J. E. Subotnik, H. L. Woodcock III,
 W. Zhang, A. T. Bell, A. K. Chakraborty, D. M. Chipman,
 F. J. Keil, A. Warshel, W. J. Hehre, H. F. Schaefer III,
 J. Kong, A. I. Krylov, P. M. W. Gill, M. Head-Gordon,
 Q-Chem, Version 3.1, Q-Chem, Inc., Pittsburgh, PA (2007).

 Additional authors for Version 3.1: 
 Z. Gan, Y. Zhao, N. E. Schultz, D. Truhlar, E. Epifanovsky and M. Oana.

 Additional authors for Version 3.2: 
 R. Baer, B. R. Brooks, D. Casanova, J.-D. Chai, C.-L. Cheng, 
 C. Cramer, D. Crittenden, A. Ghysels, G. Hawkins, E. G. Hohenstein, 
 C. Kelley, W. Kurlancheek, D. Liotard, E. Livshits, P. Manohar, 
 A. Marenich, D. Neuhauser, R. Olson, M. A. Rohrdanz, K. S. Thanthiriwatte, 
 A. J. W. Thom, V. Vanovschi, C. F. Williams, Q. Wu and Z.-Q. You. 


 Intel X86 Linux Version

 Q-chem begins on Sun Jul  7 08:38:13 2013  

 Parallel job on  1  processors
Processing $rem in /usr/local/qchem/config/preferences.

theFileMan(): MAXOPENFILES=974 MAX_SUB_FILE_NUM=16
Maximum size of a physical file is 2.0 GB, maximum size of a tmp-file is 32.0 GB


--------------------------------------------------------------
User input:
--------------------------------------------------------------

$molecule
1,2
C          0.00000        0.00000        0.00556
N          0.00000        0.00000        1.14270
H          0.00000        0.00000       -1.06160
$end

$comment
positive
$end

$xc_functional
C PBE   1.00
X wPBE  1.00
$end

$rem
SYMMETRY_DECOMPOSITION	0
LRC_DFT                 true
exchange 		general
BASIS                   g3large
omega			400
mem_static              760
max_scf_cycles          200
scf_final_print         1
sym_ignore              true
$end

--------------------------------------------------------------
 Writing REM_CC_EA            3
 ----------------------------------------------------
       Standard Nuclear Orientation (Angstroms)
    I     Atom         X            Y            Z
 ----------------------------------------------------
    1      C       0.000000     0.000000     0.005560
    2      N       0.000000     0.000000     1.142700
    3      H       0.000000     0.000000    -1.061600
 ----------------------------------------------------
 Nuclear Repulsion Energy =    24.2007434348 hartrees
 There are        7 alpha and        6 beta electrons
 Requested basis set is G3large
 There are 26 shells and 94 basis functions

Total QAlloc Memory Limit   2000 MB
Mega-Array Size       743 MB
MEM_STATIC part       760 MB

                       Distance Matrix (Angstroms)
             C (  1)   N (  2)
   N (  2)  1.137140
   H (  3)  1.067160  2.204300
 
 A cutoff of  1.0D-08 yielded    346 shell pairs
 There are   4554 function pairs (  5821 Cartesian)
Evaluating contribution to one-electron hamiltonian from nuclear
 Smallest overlap matrix eigenvalue = 4.78E-04
 Multipole matrices computed through 2nd order

  Scale SEOQF with 1.000000e-01/1.000000e-01/1.000000e-01

 Standard Electronic Orientation quadrupole field applied
 Nucleus-field energy     =    -0.0000000011 hartrees
 Guess from superposition of atomic densities
 Warning:  Energy on first SCF cycle will be non-variational
 Long-range K will be added via erf
 Coulomb attenuation parameter = 0.4 bohr**(-1)
 An unrestricted Kohn-Sham SCF calculation will be
 performed using Pulay DIIS extrapolation
 Exchange:  wPBE + LR-HF      Correlation:  PBE
 Using SG-1 standard quadrature grid
 SCF converges when DIIS error is below 1.0E-05
 Requested basis set is G3large
 There are 26 shells and 94 basis functions
 A cutoff of  1.0D-08 yielded    346 shell pairs
 There are   4554 function pairs (  5821 Cartesian)
 Warning!  Inaccurate integrated density:
   Number of electrons =    13
   Numerical integral  =    14.000041603855
   Relative error      =     7.6926277220 %
 ---------------------------------------
  Cycle       Energy         DIIS Error
 ---------------------------------------
    1     -93.5376473103      4.62E-02
    2     -92.8211657010      5.01E-03
    3     -92.8594617676      2.66E-03
    4     -92.8650977990      9.50E-04
    5     -92.8661526169      3.99E-04
    6     -92.8664116387      8.89E-05
    7     -92.8664959040      3.78E-05
    8     -92.8665057542      3.04E-06 Convergence criterion met
 ---------------------------------------
 One-Electron    Energy =  -167.7703303231
 Total Coulomb   Energy =    62.9341253844
 Alpha Exchange  Energy =    -1.4164105389
 Beta  Exchange  Energy =    -1.2228675493
 DFT   Exchange  Energy =    -9.1919136543
 DFT Correlation Energy =    -0.3998525067
 Nuclear Repu.   Energy =    24.2007434337
 Nuclear Attr.   Energy =  -260.7405802887
 Kinetic         Energy =    92.9702499656
 <S^2> = 0.7520
 SCF time:  CPU 14.26 s  wall 15.05 s
 Final Alpha MO Eigenvalues
            1           2           3           4           5           6
    1 -14.6577779 -10.5946524  -1.5177882  -1.0979494  -0.9427301  -0.8960591
            7           8           9          10          11          12
    1  -0.8942625  -0.2777732  -0.2436027  -0.1345603  -0.1225349  -0.0784200
 Final Beta MO Eigenvalues
            1           2           3           4           5           6
    1 -14.6464903 -10.5876077  -1.4646371  -1.0862088  -0.8791111  -0.8775290
            7           8           9          10          11
    1  -0.5197152  -0.2338499  -0.1974878  -0.1299270  -0.1175096
 Analysis of SCF Wavefunction
 
 --------------------------------------------------------------
                    Orbital Energies (a.u.)
 --------------------------------------------------------------
 
 Alpha MOs
 -- Occupied --
-14.658 -10.595  -1.518  -1.098  -0.943  -0.896  -0.894
 -- Virtual --
 -0.278  -0.244  -0.135  -0.123  -0.078  -0.072  -0.030  -0.005
  0.033   0.040   0.064   0.105   0.226   0.305   0.323   0.378
  0.379   0.411   0.475   0.480   0.496   0.559   0.600   0.622
  0.724   0.918   0.920   0.951   0.954   0.975   1.239   1.514
  1.535   1.555   1.797   2.215   2.374   2.405   2.459   2.460
  2.513   2.514   2.602   2.624   2.711   2.901   2.901   2.959
  2.991   3.139   3.350   3.350   3.448   3.486   3.922   4.002
  4.002   4.064   4.113   4.131   4.449   4.449   4.780   4.813
  4.931   5.661   5.696   5.940   6.887  23.942  26.825  26.839
 28.336  35.638  37.063  37.083  37.887  39.994  40.105  40.190
 40.209  40.229  40.371  40.637  40.849  40.862  41.165
 
 Beta MOs
 -- Occupied --
-14.646 -10.588  -1.465  -1.086  -0.879  -0.878
 -- Virtual --
 -0.520  -0.234  -0.197  -0.130  -0.118  -0.071  -0.071  -0.027
 -0.004   0.042   0.042   0.067   0.109   0.232   0.327   0.332
  0.410   0.411   0.416   0.491   0.498   0.498   0.570   0.627
  0.631   0.735   0.950   0.953   0.964   0.980   0.983   1.245
  1.538   1.540   1.579   1.810   2.221   2.414   2.424   2.499
  2.500   2.547   2.552   2.627   2.629   2.727   2.938   2.943
  2.996   3.001   3.151   3.399   3.401   3.496   3.509   3.945
  4.037   4.042   4.080   4.132   4.135   4.507   4.515   4.819
  4.827   4.941   5.703   5.712   5.952   6.897  23.951  26.844
 26.847  28.341  35.653  37.091  37.097  37.893  40.022  40.135
 40.198  40.231  40.235  40.387  40.653  40.863  40.865  41.171
 --------------------------------------------------------------
 
          Ground-State Mulliken Net Atomic Charges

     Atom                 Charge (a.u.)    Spin (a.u.)
  --------------------------------------------------------
      1 C                     0.451882       0.432529
      2 N                     0.276665       0.579356
      3 H                     0.271453      -0.011885
  --------------------------------------------------------
  Sum of atomic charges =     1.000000
  Sum of spin   charges =     1.000000

 -----------------------------------------------------------------
                    Cartesian Multipole Moments
 -----------------------------------------------------------------
    Charge (ESU x 10^10)
                 4.8032
    Dipole Moment (Debye)
         X       0.0101      Y      -0.0101      Z      -0.8314
       Tot       0.8315
    Quadrupole Moments (Debye-Ang)
        XX      -8.8505     XY      -0.6667     YY      -8.8500
        XZ       0.0178     YZ      -0.0178     ZZ      -6.9262
    Octapole Moments (Debye-Ang^2)
       XXX       0.0094    XXY      -0.0031    XYY       0.0031
       YYY      -0.0094    XXZ      -4.7416    XYZ      -0.3690
       YYZ      -4.7414    XZZ       0.0318    YZZ      -0.0318
       ZZZ     -18.1434
    Hexadecapole Moments (Debye-Ang^3)
      XXXX      -6.9297   XXXY      -0.4590   XXYY      -2.3103
      XYYY      -0.4590   YYYY      -6.9290   XXXZ       0.0133
      XXYZ      -0.0044   XYYZ       0.0044   YYYZ      -0.0133
      XXZZ      -8.9737   XYZZ      -0.4782   YYZZ      -8.9733
      XZZZ       0.0489   YZZZ      -0.0489   ZZZZ     -47.4857
 -----------------------------------------------------------------
 Total job time:  15.17s(wall), 14.36s(cpu) 
 Sun Jul  7 08:38:28 2013

        *************************************************************
        *                                                           *
        *  Thank you very much for using Q-Chem.  Have a nice day.  *
        *                                                           *
        *************************************************************


0 sent ACK to 0 
now end server 0 ... 
