Process 0 of 1 is on cl064.stfx.acenet.ca - thread support 1
initial socket setup ...start
initial socket setup ...done 
now start server 0 ... 

cmd = /usr/bin/ssh clhead /usr/local/qchem/bin/get_hostid 840137198 > /scratch/tmp/6064805.1.short.q/qchem28993/lic.dat
                  Welcome to Q-Chem
     A Quantum Leap Into The Future Of Chemistry

 Y. Shao, L. Fusti-Molnar, Y. Jung, J. Kussmann, C. Ochsenfeld,
 S. T. Brown, A. T. B. Gilbert, L. V. Slipchenko,S. V. Levchenko,
 D. P. O'Neill, R. A. DiStasio Jr., R. C. Lochan, T. Wang,
 G. J. O. Beran, N. A. Besley, J. M. Herbert, C. Y. Lin,
 T. Van Voorhis, S. H. Chien, A. Sodt, R. P. Steele, 
 V. A. Rassolov, P. E. Maslen, P. P. Korambath, R. D. Adamson,
 B. Austin, J. Baker, E. F. C. Byrd, H. Dachsel, R. J. Doerksen,
 A. Dreuw, B. D. Dunietz, A. D. Dutoi, T. R. Furlani,
 S. R. Gwaltney, A. Heyden, S. Hirata, C.-P. Hsu, G. Kedziora,
 R. Z. Khaliullin, P. Klunzinger, A. M. Lee, M. S. Lee, W. Liang,
 I. Lotan, N. Nair, B. Peters, E. I. Proynov, P. A. Pieniazek, 
 Y. M. Rhee, J. Ritchie, E. Rosta, C. D. Sherrill, 
 A. C. Simmonett, J. E. Subotnik, H. L. Woodcock III,
 W. Zhang, A. T. Bell, A. K. Chakraborty, D. M. Chipman,
 F. J. Keil, A. Warshel, W. J. Hehre, H. F. Schaefer III,
 J. Kong, A. I. Krylov, P. M. W. Gill, M. Head-Gordon,
 Q-Chem, Version 3.1, Q-Chem, Inc., Pittsburgh, PA (2007).

 Additional authors for Version 3.1: 
 Z. Gan, Y. Zhao, N. E. Schultz, D. Truhlar, E. Epifanovsky and M. Oana.

 Additional authors for Version 3.2: 
 R. Baer, B. R. Brooks, D. Casanova, J.-D. Chai, C.-L. Cheng, 
 C. Cramer, D. Crittenden, A. Ghysels, G. Hawkins, E. G. Hohenstein, 
 C. Kelley, W. Kurlancheek, D. Liotard, E. Livshits, P. Manohar, 
 A. Marenich, D. Neuhauser, R. Olson, M. A. Rohrdanz, K. S. Thanthiriwatte, 
 A. J. W. Thom, V. Vanovschi, C. F. Williams, Q. Wu and Z.-Q. You. 


 Intel X86 Linux Version

 Q-chem begins on Mon Jul  8 12:25:34 2013  

 Parallel job on  1  processors
Processing $rem in /usr/local/qchem/config/preferences.

theFileMan(): MAXOPENFILES=974 MAX_SUB_FILE_NUM=16
Maximum size of a physical file is 2.0 GB, maximum size of a tmp-file is 32.0 GB


--------------------------------------------------------------
User input:
--------------------------------------------------------------

$molecule
-1,2
C          0.00000        0.00000        0.00427
C          0.00000        0.00000        1.34256
Cl         1.44225        0.00000       -0.90517
Cl        -1.44225        0.00000       -0.90517
Cl        -1.44225        0.00000        2.25200
Cl         1.44225        0.00000        2.25200
$end

$comment
negative
$end

$xc_functional
C PBE   1.00
X wPBE  1.00
$end

$rem
SYMMETRY_DECOMPOSITION	0
exchange 		general
LRC_DFT                 true
BASIS                   g3large
omega			800
mem_static              760
max_scf_cycles          200
scf_final_print         1
sym_ignore              true
$end

--------------------------------------------------------------
 Writing REM_CC_EA            6
 ----------------------------------------------------
       Standard Nuclear Orientation (Angstroms)
    I     Atom         X            Y            Z
 ----------------------------------------------------
    1      C       0.000000     0.000000     0.004270
    2      C       0.000000     0.000000     1.342560
    3      Cl      1.442250     0.000000    -0.905170
    4      Cl     -1.442250     0.000000    -0.905170
    5      Cl     -1.442250     0.000000     2.252000
    6      Cl      1.442250     0.000000     2.252000
 ----------------------------------------------------
 Nuclear Repulsion Energy =   496.1446596895 hartrees
 There are       41 alpha and       40 beta electrons
 Requested basis set is G3large
 There are 96 shells and 348 basis functions

Total QAlloc Memory Limit   2000 MB
Mega-Array Size       743 MB
MEM_STATIC part       760 MB

                       Distance Matrix (Angstroms)
             C (  1)   C (  2)   Cl(  3)   Cl(  4)   Cl(  5)
   C (  2)  1.338290
   Cl(  3)  1.705041  2.670651
   Cl(  4)  1.705041  2.670651  2.884500
   Cl(  5)  2.670651  1.705041  4.276454  3.157170
   Cl(  6)  2.670651  1.705041  3.157170  4.276454  2.884500
 
 A cutoff of  1.0D-08 yielded   3466 shell pairs
 There are  47748 function pairs ( 66451 Cartesian)
Evaluating contribution to one-electron hamiltonian from nuclear
 Smallest overlap matrix eigenvalue = 9.65E-06

 Q-Chem warning in module mkSTV.C, line 194:

 Overlap eigenvalue is smaller than square root of threshold

 Multipole matrices computed through 2nd order

  Scale SEOQF with 1.000000e-01/1.000000e-01/1.000000e-01

 Standard Electronic Orientation quadrupole field applied
 Nucleus-field energy     =    -0.0000000176 hartrees
 Guess from superposition of atomic densities
 Warning:  Energy on first SCF cycle will be non-variational
 Long-range K will be added via erf
 Coulomb attenuation parameter = 0.8 bohr**(-1)
 An unrestricted Kohn-Sham SCF calculation will be
 performed using Pulay DIIS extrapolation
 Exchange:  wPBE + LR-HF      Correlation:  PBE
 Using SG-1 standard quadrature grid
 SCF converges when DIIS error is below 1.0E-05
 Requested basis set is G3large
 There are 96 shells and 348 basis functions
 A cutoff of  1.0D-08 yielded   3466 shell pairs
 There are  47748 function pairs ( 66451 Cartesian)
 Warning!  Inaccurate integrated density:
   Number of electrons =    81
   Numerical integral  =    80.000162316382
   Relative error      =    -1.2343675106 %
 ---------------------------------------
  Cycle       Energy         DIIS Error
 ---------------------------------------
    1   -1918.2274936529      2.07E-02
    2   -1916.3922725427      1.89E-03
    3   -1916.4550864106      1.34E-03
    4   -1916.4813739961      3.96E-04
    5   -1916.4888489146      1.52E-04
    6   -1916.4920140378      9.77E-05
    7   -1916.4944960427      7.05E-05
    8   -1916.4971302247      5.78E-05
    9   -1916.5005580459      3.73E-05
   10   -1916.5022558845      3.08E-05
   11   -1916.5036621233      4.02E-05
   12   -1916.5039575550      2.16E-05
   13   -1916.5045642277      1.36E-05
   14   -1916.5048437285      1.16E-05
   15   -1916.5050231449      1.57E-05
   16   -1916.5050890291      1.16E-05
   17   -1916.5051661218      8.61E-06 Convergence criterion met
 ---------------------------------------
 One-Electron    Energy = -3644.6249130025
 Total Coulomb   Energy =  1355.5279859108
 Alpha Exchange  Energy =   -14.7670051008
 Beta  Exchange  Energy =   -14.6328158847
 DFT   Exchange  Energy =   -91.0431989036
 DFT Correlation Energy =    -3.1098788129
 Nuclear Repu.   Energy =   496.1446596719
 Nuclear Attr.   Energy = -5558.4294472145
 Kinetic         Energy =  1913.8045342120
 <S^2> = 0.7542
 SCF time:  CPU 1319.73 s  wall 1321.71 s
 Final Alpha MO Eigenvalues
            1           2           3           4           5           6
    1-100.9893050-100.9892924-100.9667413-100.9666344 -10.3057726 -10.3044148
            7           8           9          10          11          12
    1  -9.5166306  -9.5166141  -9.4938910  -9.4937782  -7.3109260  -7.3109105
           13          14          15          16          17          18
    1  -7.3001402  -7.3001236  -7.2991747  -7.2991575  -7.2885370  -7.2884270
           19          20          21          22          23          24
    1  -7.2773270  -7.2772150  -7.2764586  -7.2763447  -1.0966986  -1.0299743
           25          26          27          28          29          30
    1  -0.9783299  -0.9495632  -0.8178938  -0.6138053  -0.5497629  -0.5472203
           31          32          33          34          35          36
    1  -0.4933420  -0.4522752  -0.4131994  -0.3838376  -0.3812585  -0.3727564
           37          38          39          40          41          42
    1  -0.3615990  -0.3594046  -0.3229515  -0.2390790   0.0529760   0.1493303
           43          44          45          46
    1   0.1741341   0.1807702   0.2017497   0.2226602
 Final Beta MO Eigenvalues
            1           2           3           4           5           6
    1-100.9892749-100.9892616-100.9661750-100.9660668 -10.3035468 -10.3022731
            7           8           9          10          11          12
    1  -9.5165790  -9.5165623  -9.4931943  -9.4930782  -7.3109289  -7.3109133
           13          14          15          16          17          18
    1  -7.3000935  -7.3000773  -7.2990763  -7.2990597  -7.2875569  -7.2874442
           19          20          21          22          23          24
    1  -7.2767047  -7.2765892  -7.2757923  -7.2756752  -1.0903861  -1.0271462
           25          26          27          28          29          30
    1  -0.9709707  -0.9446970  -0.8070296  -0.6107724  -0.5453264  -0.5303804
           31          32          33          34          35          36
    1  -0.4907296  -0.4461972  -0.4118374  -0.3795893  -0.3792812  -0.3697827
           37          38          39          40          41          42
    1  -0.3579344  -0.3571909  -0.3201379  -0.2355059   0.1721855   0.1786752
           43          44          45
    1   0.1914314   0.1983736   0.2047003
 Analysis of SCF Wavefunction
 
 --------------------------------------------------------------
                    Orbital Energies (a.u.)
 --------------------------------------------------------------
 
 Alpha MOs
 -- Occupied --
*******-100.989-100.967-100.967 -10.306 -10.304  -9.517  -9.517
 -9.494  -9.494  -7.311  -7.311  -7.300  -7.300  -7.299  -7.299
 -7.289  -7.288  -7.277  -7.277  -7.276  -7.276  -1.097  -1.030
 -0.978  -0.950  -0.818  -0.614  -0.550  -0.547  -0.493  -0.452
 -0.413  -0.384  -0.381  -0.373  -0.362  -0.359  -0.323  -0.239
  0.053
 -- Virtual --
  0.149   0.174   0.181   0.202   0.223   0.225   0.227   0.237
  0.239   0.249   0.254   0.277   0.279   0.282   0.292   0.300
  0.314   0.317   0.325   0.330   0.347   0.350   0.370   0.385
  0.394   0.400   0.409   0.438   0.452   0.460   0.499   0.516
  0.521   0.541   0.550   0.590   0.593   0.601   0.606   0.623
  0.625   0.660   0.668   0.672   0.700   0.701   0.704   0.711
  0.722   0.723   0.741   0.748   0.782   0.796   0.798   0.808
  0.841   0.858   0.877   0.886   0.914   0.951   1.003   1.025
  1.027   1.038   1.044   1.074   1.088   1.120   1.159   1.195
  1.226   1.257   1.258   1.285   1.318   1.320   1.329   1.354
  1.354   1.362   1.380   1.388   1.392   1.402   1.412   1.426
  1.429   1.436   1.441   1.453   1.460   1.467   1.471   1.490
  1.497   1.515   1.531   1.557   1.565   1.572   1.584   1.597
  1.636   1.685   1.694   1.713   1.725   1.735   1.765   1.781
  1.820   1.848   1.891   1.894   1.912   1.923   1.974   1.974
  1.985   1.990   1.998   2.070   2.100   2.104   2.142   2.154
  2.175   2.361   2.456   2.480   2.491   2.546   2.563   2.630
  2.646   2.658   2.735   2.793   2.847   2.923   2.937   3.065
  3.170   3.171   3.196   3.329   3.339   3.439   3.460   3.489
  3.605   3.625   3.630   3.687   3.753   3.791   3.794   3.826
  3.851   3.914   3.935   3.975   3.983   4.092   4.242   4.305
  4.321   4.640   4.645   4.693   4.695   4.699   4.711   4.719
  4.727   4.732   4.774   4.780   4.784   4.788   4.813   4.816
  4.833   4.842   4.846   4.846   4.868   4.892   4.936   4.944
  4.957   4.957   4.977   5.004   5.011   5.080   5.124   5.295
  5.381   5.404   5.426   5.441   5.444   5.450   5.467   5.527
  5.540   5.561   5.576   5.627   5.659   5.688   5.700   5.832
  5.915   6.052   6.208   6.481   6.486  10.152  10.279  10.331
 10.463  20.900  20.904  20.931  20.951  20.959  20.977  21.001
 21.044  21.148  21.232  21.284  21.311  23.939  24.808  27.443
 27.447  27.452  27.488  27.491  27.494  27.495  27.502  27.517
 27.530  27.537  27.540  27.541  27.570  27.575  27.575  27.581
 27.624  27.651  27.685  27.705  27.774  28.481  28.498  28.590
 28.704  37.140  37.141  37.142  37.142  37.142  37.143  37.144
 37.147  37.150  37.152  37.155  37.156  37.166  37.167  37.168
 37.168  37.169  37.171  37.173  37.174  37.176  37.177  37.178
 37.178  37.188  37.189  37.197  37.204  41.111  41.164  41.205
 41.369  41.370  41.417  41.451  41.467  41.527  41.539 216.086
216.225 216.268 216.440
 
 Beta MOs
 -- Occupied --
*******-100.989-100.966-100.966 -10.304 -10.302  -9.517  -9.517
 -9.493  -9.493  -7.311  -7.311  -7.300  -7.300  -7.299  -7.299
 -7.288  -7.287  -7.277  -7.277  -7.276  -7.276  -1.090  -1.027
 -0.971  -0.945  -0.807  -0.611  -0.545  -0.530  -0.491  -0.446
 -0.412  -0.380  -0.379  -0.370  -0.358  -0.357  -0.320  -0.236
 -- Virtual --
  0.172   0.179   0.191   0.198   0.205   0.227   0.234   0.241
  0.246   0.251   0.258   0.259   0.283   0.285   0.291   0.296
  0.302   0.318   0.325   0.337   0.338   0.348   0.352   0.371
  0.386   0.395   0.401   0.415   0.438   0.461   0.467   0.501
  0.517   0.521   0.547   0.551   0.591   0.594   0.603   0.608
  0.623   0.628   0.661   0.670   0.675   0.702   0.702   0.707
  0.717   0.725   0.731   0.743   0.749   0.783   0.796   0.800
  0.808   0.843   0.859   0.882   0.896   0.919   0.954   1.003
  1.028   1.032   1.043   1.044   1.076   1.095   1.125   1.161
  1.197   1.231   1.259   1.260   1.286   1.319   1.323   1.329
  1.355   1.355   1.363   1.382   1.389   1.393   1.403   1.413
  1.427   1.431   1.438   1.442   1.456   1.462   1.470   1.474
  1.491   1.498   1.517   1.534   1.560   1.567   1.574   1.585
  1.597   1.638   1.686   1.696   1.715   1.728   1.735   1.766
  1.783   1.822   1.851   1.893   1.897   1.915   1.924   1.975
  1.978   1.987   1.995   1.999   2.072   2.102   2.106   2.145
  2.155   2.177   2.364   2.458   2.481   2.492   2.547   2.565
  2.631   2.650   2.660   2.738   2.795   2.849   2.924   2.940
  3.068   3.172   3.173   3.197   3.334   3.343   3.443   3.463
  3.492   3.608   3.631   3.634   3.690   3.762   3.794   3.801
  3.830   3.856   3.917   3.946   3.978   3.985   4.100   4.249
  4.309   4.329   4.645   4.647   4.694   4.696   4.701   4.712
  4.720   4.729   4.734   4.776   4.782   4.786   4.790   4.815
  4.818   4.835   4.844   4.847   4.848   4.871   4.894   4.938
  4.946   4.958   4.959   4.979   5.006   5.012   5.082   5.127
  5.297   5.382   5.404   5.426   5.443   5.445   5.452   5.468
  5.527   5.540   5.562   5.577   5.627   5.660   5.688   5.701
  5.833   5.917   6.054   6.210   6.482   6.488  10.152  10.280
 10.332  10.464  20.900  20.904  20.931  20.951  20.960  20.978
 21.001  21.044  21.149  21.232  21.285  21.312  23.941  24.811
 27.443  27.447  27.453  27.488  27.492  27.494  27.496  27.503
 27.518  27.531  27.537  27.540  27.541  27.571  27.576  27.576
 27.582  27.625  27.651  27.686  27.707  27.776  28.482  28.503
 28.595  28.705  37.140  37.141  37.142  37.142  37.142  37.143
 37.144  37.147  37.150  37.152  37.155  37.156  37.167  37.167
 37.168  37.168  37.169  37.171  37.174  37.174  37.177  37.178
 37.178  37.179  37.188  37.190  37.197  37.204  41.111  41.169
 41.208  41.369  41.373  41.420  41.454  41.467  41.529  41.542
216.087 216.225 216.269 216.440
 --------------------------------------------------------------
 
          Ground-State Mulliken Net Atomic Charges

     Atom                 Charge (a.u.)    Spin (a.u.)
  --------------------------------------------------------
      1 C                    -0.552965       1.188647
      2 C                    -0.541643       1.178009
      3 Cl                    0.329397      -0.624607
      4 Cl                   -0.278286      -0.062162
      5 Cl                    0.320920      -0.616400
      6 Cl                   -0.277423      -0.063486
  --------------------------------------------------------
  Sum of atomic charges =    -1.000000
  Sum of spin   charges =     1.000000

 -----------------------------------------------------------------
                    Cartesian Multipole Moments
 -----------------------------------------------------------------
    Charge (ESU x 10^10)
                -4.8032
    Dipole Moment (Debye)
         X      -0.0294      Y       0.0005      Z      -3.2134
       Tot       3.2136
    Quadrupole Moments (Debye-Ang)
        XX     -95.5230     XY       0.0001     YY     -68.7259
        XZ      21.1194     YZ      -0.0001     ZZ     -96.6623
    Octapole Moments (Debye-Ang^2)
       XXX      -0.4105    XXY       0.0054    XYY      -0.0648
       YYY       0.0023    XXZ     -64.1121    XYZ      -0.0079
       YYZ     -46.2332    XZZ      28.2218    YZZ       0.0051
       ZZZ    -192.1236
    Hexadecapole Moments (Debye-Ang^3)
      XXXX   -1146.0792   XXXY      -0.0037   XXYY    -190.4619
      XYYY       0.0003   YYYY    -113.7029   XXXZ     253.4840
      XXYZ      -0.0013   XYYZ      36.2715   YYYZ      -0.0010
      XXZZ    -544.3217   XYZZ      -0.0092   YYZZ    -237.9722
      XZZZ     272.3810   YZZZ       0.0059   ZZZZ   -1526.9866
 -----------------------------------------------------------------
 Total job time:  1322.44s(wall), 1320.44s(cpu) 
 Mon Jul  8 12:47:36 2013

        *************************************************************
        *                                                           *
        *  Thank you very much for using Q-Chem.  Have a nice day.  *
        *                                                           *
        *************************************************************


0 sent ACK to 0 
now end server 0 ... 
 
**********************************************************************
Job 2 of 3 
**********************************************************************
 
Process 0 of 1 is on cl064.stfx.acenet.ca - thread support 1
initial socket setup ...start
initial socket setup ...done 
now start server 0 ... 

cmd = /usr/bin/ssh clhead /usr/local/qchem/bin/get_hostid 507893548 > /scratch/tmp/6064805.1.short.q/qchem28993/lic.dat
                  Welcome to Q-Chem
     A Quantum Leap Into The Future Of Chemistry

 Y. Shao, L. Fusti-Molnar, Y. Jung, J. Kussmann, C. Ochsenfeld,
 S. T. Brown, A. T. B. Gilbert, L. V. Slipchenko,S. V. Levchenko,
 D. P. O'Neill, R. A. DiStasio Jr., R. C. Lochan, T. Wang,
 G. J. O. Beran, N. A. Besley, J. M. Herbert, C. Y. Lin,
 T. Van Voorhis, S. H. Chien, A. Sodt, R. P. Steele, 
 V. A. Rassolov, P. E. Maslen, P. P. Korambath, R. D. Adamson,
 B. Austin, J. Baker, E. F. C. Byrd, H. Dachsel, R. J. Doerksen,
 A. Dreuw, B. D. Dunietz, A. D. Dutoi, T. R. Furlani,
 S. R. Gwaltney, A. Heyden, S. Hirata, C.-P. Hsu, G. Kedziora,
 R. Z. Khaliullin, P. Klunzinger, A. M. Lee, M. S. Lee, W. Liang,
 I. Lotan, N. Nair, B. Peters, E. I. Proynov, P. A. Pieniazek, 
 Y. M. Rhee, J. Ritchie, E. Rosta, C. D. Sherrill, 
 A. C. Simmonett, J. E. Subotnik, H. L. Woodcock III,
 W. Zhang, A. T. Bell, A. K. Chakraborty, D. M. Chipman,
 F. J. Keil, A. Warshel, W. J. Hehre, H. F. Schaefer III,
 J. Kong, A. I. Krylov, P. M. W. Gill, M. Head-Gordon,
 Q-Chem, Version 3.1, Q-Chem, Inc., Pittsburgh, PA (2007).

 Additional authors for Version 3.1: 
 Z. Gan, Y. Zhao, N. E. Schultz, D. Truhlar, E. Epifanovsky and M. Oana.

 Additional authors for Version 3.2: 
 R. Baer, B. R. Brooks, D. Casanova, J.-D. Chai, C.-L. Cheng, 
 C. Cramer, D. Crittenden, A. Ghysels, G. Hawkins, E. G. Hohenstein, 
 C. Kelley, W. Kurlancheek, D. Liotard, E. Livshits, P. Manohar, 
 A. Marenich, D. Neuhauser, R. Olson, M. A. Rohrdanz, K. S. Thanthiriwatte, 
 A. J. W. Thom, V. Vanovschi, C. F. Williams, Q. Wu and Z.-Q. You. 


 Intel X86 Linux Version

 Q-chem begins on Mon Jul  8 12:47:39 2013  

 Parallel job on  1  processors
Processing $rem in /usr/local/qchem/config/preferences.

theFileMan(): MAXOPENFILES=974 MAX_SUB_FILE_NUM=16
Maximum size of a physical file is 2.0 GB, maximum size of a tmp-file is 32.0 GB


--------------------------------------------------------------
User input:
--------------------------------------------------------------

$molecule
0,1
C          0.00000        0.00000        0.00427
C          0.00000        0.00000        1.34256
Cl         1.44225        0.00000       -0.90517
Cl        -1.44225        0.00000       -0.90517
Cl        -1.44225        0.00000        2.25200
Cl         1.44225        0.00000        2.25200
$end

$comment
neutral
$end

$xc_functional
C PBE   1.00
X wPBE  1.00
$end


$rem
SYMMETRY_DECOMPOSITION	0
LRC_DFT                 true
exchange 		general
BASIS                   g3large
omega			800
mem_static              760
max_scf_cycles          200
scf_final_print         1
sym_ignore              true
$end

--------------------------------------------------------------
 Writing REM_CC_EA            6
 ----------------------------------------------------
       Standard Nuclear Orientation (Angstroms)
    I     Atom         X            Y            Z
 ----------------------------------------------------
    1      C       0.000000     0.000000     0.004270
    2      C       0.000000     0.000000     1.342560
    3      Cl      1.442250     0.000000    -0.905170
    4      Cl     -1.442250     0.000000    -0.905170
    5      Cl     -1.442250     0.000000     2.252000
    6      Cl      1.442250     0.000000     2.252000
 ----------------------------------------------------
 Nuclear Repulsion Energy =   496.1446596895 hartrees
 There are       40 alpha and       40 beta electrons
 Requested basis set is G3large
 There are 96 shells and 348 basis functions

Total QAlloc Memory Limit   2000 MB
Mega-Array Size       743 MB
MEM_STATIC part       760 MB

                       Distance Matrix (Angstroms)
             C (  1)   C (  2)   Cl(  3)   Cl(  4)   Cl(  5)
   C (  2)  1.338290
   Cl(  3)  1.705041  2.670651
   Cl(  4)  1.705041  2.670651  2.884500
   Cl(  5)  2.670651  1.705041  4.276454  3.157170
   Cl(  6)  2.670651  1.705041  3.157170  4.276454  2.884500
 
 A cutoff of  1.0D-08 yielded   3466 shell pairs
 There are  47748 function pairs ( 66451 Cartesian)
Evaluating contribution to one-electron hamiltonian from nuclear
 Smallest overlap matrix eigenvalue = 9.65E-06

 Q-Chem warning in module mkSTV.C, line 194:

 Overlap eigenvalue is smaller than square root of threshold

 Multipole matrices computed through 2nd order

  Scale SEOQF with 1.000000e-01/1.000000e-01/1.000000e-01

 Standard Electronic Orientation quadrupole field applied
 Nucleus-field energy     =    -0.0000000176 hartrees
 Guess from superposition of atomic densities
 Warning:  Energy on first SCF cycle will be non-variational
 Long-range K will be added via erf
 Coulomb attenuation parameter = 0.8 bohr**(-1)
 A restricted Kohn-Sham SCF calculation will be
 performed using Pulay DIIS extrapolation
 Exchange:  wPBE + LR-HF      Correlation:  PBE
 Using SG-1 standard quadrature grid
 SCF converges when DIIS error is below 1.0E-05
 Requested basis set is G3large
 There are 96 shells and 348 basis functions
 A cutoff of  1.0D-08 yielded   3466 shell pairs
 There are  47748 function pairs ( 66451 Cartesian)
 ---------------------------------------
  Cycle       Energy         DIIS Error
 ---------------------------------------
    1   -1918.2274936529      2.07E-02
    2   -1916.4346142641      2.55E-03
    3   -1916.4942527682      2.28E-03
    4   -1916.5620320105      3.26E-04
    5   -1916.5665302478      1.21E-04
    6   -1916.5671403540      3.58E-05
    7   -1916.5672040198      9.33E-06 Convergence criterion met
 ---------------------------------------
 One-Electron    Energy = -3632.3649849946
 Total Coulomb   Energy =  1343.0590760924
 Alpha Exchange  Energy =   -14.6497342494
 Beta  Exchange  Energy =   -14.6497342494
 DFT   Exchange  Energy =   -91.0145802023
 DFT Correlation Energy =    -3.0919060883
 Nuclear Repu.   Energy =   496.1446596719
 Nuclear Attr.   Energy = -5545.8576111544
 Kinetic         Energy =  1913.4926261598
 SCF time:  CPU 425.58 s  wall 426.44 s
 Final Alpha MO Eigenvalues
            1           2           3           4           5           6
    1-101.1350341-101.1350338-101.1349316-101.1349310 -10.4789467 -10.4776506
            7           8           9          10          11          12
    1  -9.6620598  -9.6620419  -9.6619844  -9.6619692  -7.4569165  -7.4569143
           13          14          15          16          17          18
    1  -7.4568559  -7.4568537  -7.4452518  -7.4452505  -7.4451909  -7.4451898
           19          20          21          22          23          24
    1  -7.4443833  -7.4443825  -7.4443211  -7.4443203  -1.2538116  -1.1834094
           25          26          27          28          29          30
    1  -1.1318249  -1.1023180  -0.9754979  -0.7674789  -0.7042596  -0.6946264
           31          32          33          34          35          36
    1  -0.6497065  -0.6056317  -0.5629983  -0.5355679  -0.5285198  -0.5256827
           37          38          39          40          41          42
    1  -0.5176211  -0.5101677  -0.4758006  -0.3958635   0.0501791   0.0590473
           43          44          45
    1   0.0695333   0.0733232   0.0929618
 Analysis of SCF Wavefunction
 
 --------------------------------------------------------------
                    Orbital Energies (a.u.)
 --------------------------------------------------------------
 
 Alpha MOs
 -- Occupied --
*******-101.135-101.135-101.135 -10.479 -10.478  -9.662  -9.662
 -9.662  -9.662  -7.457  -7.457  -7.457  -7.457  -7.445  -7.445
 -7.445  -7.445  -7.444  -7.444  -7.444  -7.444  -1.254  -1.183
 -1.132  -1.102  -0.975  -0.767  -0.704  -0.695  -0.650  -0.606
 -0.563  -0.536  -0.529  -0.526  -0.518  -0.510  -0.476  -0.396
 -- Virtual --
  0.050   0.059   0.070   0.073   0.093   0.098   0.111   0.113
  0.115   0.126   0.140   0.140   0.161   0.170   0.170   0.172
  0.184   0.198   0.207   0.207   0.218   0.224   0.233   0.249
  0.263   0.278   0.279   0.291   0.293   0.313   0.323   0.356
  0.371   0.381   0.399   0.408   0.446   0.452   0.464   0.465
  0.476   0.478   0.517   0.527   0.538   0.564   0.565   0.566
  0.579   0.585   0.585   0.604   0.607   0.638   0.662   0.669
  0.670   0.698   0.712   0.736   0.743   0.765   0.800   0.859
  0.878   0.878   0.892   0.900   0.923   0.940   0.973   1.017
  1.048   1.077   1.109   1.110   1.137   1.168   1.172   1.181
  1.204   1.205   1.214   1.233   1.239   1.242   1.254   1.265
  1.278   1.278   1.290   1.292   1.302   1.314   1.315   1.323
  1.341   1.348   1.366   1.378   1.407   1.415   1.419   1.435
  1.447   1.485   1.540   1.545   1.563   1.578   1.585   1.616
  1.630   1.674   1.700   1.739   1.747   1.760   1.774   1.822
  1.828   1.836   1.836   1.848   1.920   1.948   1.949   1.991
  2.004   2.023   2.207   2.305   2.331   2.342   2.395   2.413
  2.479   2.492   2.507   2.581   2.640   2.693   2.771   2.784
  2.903   3.008   3.009   3.030   3.169   3.179   3.277   3.298
  3.328   3.447   3.462   3.469   3.526   3.591   3.631   3.634
  3.667   3.690   3.755   3.773   3.812   3.821   3.929   4.081
  4.146   4.159   4.480   4.486   4.541   4.542   4.546   4.557
  4.568   4.575   4.577   4.617   4.626   4.628   4.634   4.660
  4.660   4.679   4.687   4.692   4.695   4.708   4.737   4.780
  4.788   4.802   4.803   4.816   4.847   4.855   4.921   4.966
  5.136   5.228   5.252   5.271   5.281   5.287   5.295   5.311
  5.371   5.385   5.406   5.419   5.469   5.502   5.531   5.544
  5.674   5.757   5.896   6.051   6.324   6.329   9.997  10.127
 10.173  10.307  20.746  20.755  20.769  20.796  20.801  20.829
 20.837  20.886  20.992  21.077  21.125  21.154  23.767  24.636
 27.287  27.289  27.293  27.333  27.334  27.339  27.341  27.343
 27.357  27.370  27.382  27.385  27.385  27.409  27.416  27.420
 27.423  27.458  27.493  27.526  27.545  27.603  28.309  28.330
 28.422  28.534  36.989  36.990  36.991  36.992  36.992  36.992
 36.993  36.996  37.002  37.002  37.002  37.003  37.004  37.004
 37.004  37.005  37.007  37.008  37.010  37.011  37.015  37.021
 37.022  37.022  37.026  37.027  37.033  37.041  40.937  40.992
 41.033  41.196  41.197  41.244  41.278  41.293  41.354  41.365
215.930 216.071 216.108 216.282
 --------------------------------------------------------------
 
          Ground-State Mulliken Net Atomic Charges

     Atom                 Charge (a.u.)
  ----------------------------------------
      1 C                     0.576947
      2 C                     0.576538
      3 Cl                   -0.288579
      4 Cl                   -0.288245
      5 Cl                   -0.288705
      6 Cl                   -0.287956
  ----------------------------------------
  Sum of atomic charges =     0.000000

 -----------------------------------------------------------------
                    Cartesian Multipole Moments
 -----------------------------------------------------------------
    Charge (ESU x 10^10)
                 0.0000
    Dipole Moment (Debye)
         X       0.0000      Y       0.0000      Z       0.0000
       Tot       0.0000
    Quadrupole Moments (Debye-Ang)
        XX     -57.8539     XY       0.0020     YY     -60.7980
        XZ      -0.0008     YZ      -0.0009     ZZ     -59.8078
    Octapole Moments (Debye-Ang^2)
       XXX       0.0000    XXY       0.0000    XYY       0.0000
       YYY       0.0000    XXZ     -38.9597    XYZ       0.0014
       YYZ     -40.9423    XZZ      -0.0011    YZZ      -0.0012
       ZZZ    -120.8264
    Hexadecapole Moments (Debye-Ang^3)
      XXXX    -633.3791   XXXY       0.0063   XXYY    -126.4913
      XYYY       0.0028   YYYY     -65.9302   XXXZ      -0.0039
      XXYZ      -0.0087   XYYZ      -0.0003   YYYZ      -0.0009
      XXZZ    -243.6072   XYZZ       0.0188   YYZZ    -179.4823
      XZZZ      -0.0015   YZZZ      -0.0103   ZZZZ    -985.0348
 -----------------------------------------------------------------
 Total job time:  427.10s(wall), 426.22s(cpu) 
 Mon Jul  8 12:54:46 2013

        *************************************************************
        *                                                           *
        *  Thank you very much for using Q-Chem.  Have a nice day.  *
        *                                                           *
        *************************************************************


0 sent ACK to 0 
now end server 0 ... 
 
**********************************************************************
Job 3 of 3 
**********************************************************************
 
Process 0 of 1 is on cl064.stfx.acenet.ca - thread support 1
initial socket setup ...start
initial socket setup ...done 
now start server 0 ... 

cmd = /usr/bin/ssh clhead /usr/local/qchem/bin/get_hostid 746633596 > /scratch/tmp/6064805.1.short.q/qchem28993/lic.dat
                  Welcome to Q-Chem
     A Quantum Leap Into The Future Of Chemistry

 Y. Shao, L. Fusti-Molnar, Y. Jung, J. Kussmann, C. Ochsenfeld,
 S. T. Brown, A. T. B. Gilbert, L. V. Slipchenko,S. V. Levchenko,
 D. P. O'Neill, R. A. DiStasio Jr., R. C. Lochan, T. Wang,
 G. J. O. Beran, N. A. Besley, J. M. Herbert, C. Y. Lin,
 T. Van Voorhis, S. H. Chien, A. Sodt, R. P. Steele, 
 V. A. Rassolov, P. E. Maslen, P. P. Korambath, R. D. Adamson,
 B. Austin, J. Baker, E. F. C. Byrd, H. Dachsel, R. J. Doerksen,
 A. Dreuw, B. D. Dunietz, A. D. Dutoi, T. R. Furlani,
 S. R. Gwaltney, A. Heyden, S. Hirata, C.-P. Hsu, G. Kedziora,
 R. Z. Khaliullin, P. Klunzinger, A. M. Lee, M. S. Lee, W. Liang,
 I. Lotan, N. Nair, B. Peters, E. I. Proynov, P. A. Pieniazek, 
 Y. M. Rhee, J. Ritchie, E. Rosta, C. D. Sherrill, 
 A. C. Simmonett, J. E. Subotnik, H. L. Woodcock III,
 W. Zhang, A. T. Bell, A. K. Chakraborty, D. M. Chipman,
 F. J. Keil, A. Warshel, W. J. Hehre, H. F. Schaefer III,
 J. Kong, A. I. Krylov, P. M. W. Gill, M. Head-Gordon,
 Q-Chem, Version 3.1, Q-Chem, Inc., Pittsburgh, PA (2007).

 Additional authors for Version 3.1: 
 Z. Gan, Y. Zhao, N. E. Schultz, D. Truhlar, E. Epifanovsky and M. Oana.

 Additional authors for Version 3.2: 
 R. Baer, B. R. Brooks, D. Casanova, J.-D. Chai, C.-L. Cheng, 
 C. Cramer, D. Crittenden, A. Ghysels, G. Hawkins, E. G. Hohenstein, 
 C. Kelley, W. Kurlancheek, D. Liotard, E. Livshits, P. Manohar, 
 A. Marenich, D. Neuhauser, R. Olson, M. A. Rohrdanz, K. S. Thanthiriwatte, 
 A. J. W. Thom, V. Vanovschi, C. F. Williams, Q. Wu and Z.-Q. You. 


 Intel X86 Linux Version

 Q-chem begins on Mon Jul  8 12:54:49 2013  

 Parallel job on  1  processors
Processing $rem in /usr/local/qchem/config/preferences.

theFileMan(): MAXOPENFILES=974 MAX_SUB_FILE_NUM=16
Maximum size of a physical file is 2.0 GB, maximum size of a tmp-file is 32.0 GB


--------------------------------------------------------------
User input:
--------------------------------------------------------------

$molecule
1,2
C          0.00000        0.00000        0.00427
C          0.00000        0.00000        1.34256
Cl         1.44225        0.00000       -0.90517
Cl        -1.44225        0.00000       -0.90517
Cl        -1.44225        0.00000        2.25200
Cl         1.44225        0.00000        2.25200
$end

$comment
positive
$end

$xc_functional
C PBE   1.00
X wPBE  1.00
$end

$rem
SYMMETRY_DECOMPOSITION	0
LRC_DFT                 true
exchange 		general
BASIS                   g3large
omega			800
mem_static              760
max_scf_cycles          200
scf_final_print         1
sym_ignore              true
$end

--------------------------------------------------------------
 Writing REM_CC_EA            6
 ----------------------------------------------------
       Standard Nuclear Orientation (Angstroms)
    I     Atom         X            Y            Z
 ----------------------------------------------------
    1      C       0.000000     0.000000     0.004270
    2      C       0.000000     0.000000     1.342560
    3      Cl      1.442250     0.000000    -0.905170
    4      Cl     -1.442250     0.000000    -0.905170
    5      Cl     -1.442250     0.000000     2.252000
    6      Cl      1.442250     0.000000     2.252000
 ----------------------------------------------------
 Nuclear Repulsion Energy =   496.1446596895 hartrees
 There are       40 alpha and       39 beta electrons
 Requested basis set is G3large
 There are 96 shells and 348 basis functions

Total QAlloc Memory Limit   2000 MB
Mega-Array Size       743 MB
MEM_STATIC part       760 MB

                       Distance Matrix (Angstroms)
             C (  1)   C (  2)   Cl(  3)   Cl(  4)   Cl(  5)
   C (  2)  1.338290
   Cl(  3)  1.705041  2.670651
   Cl(  4)  1.705041  2.670651  2.884500
   Cl(  5)  2.670651  1.705041  4.276454  3.157170
   Cl(  6)  2.670651  1.705041  3.157170  4.276454  2.884500
 
 A cutoff of  1.0D-08 yielded   3466 shell pairs
 There are  47748 function pairs ( 66451 Cartesian)
Evaluating contribution to one-electron hamiltonian from nuclear
 Smallest overlap matrix eigenvalue = 9.65E-06

 Q-Chem warning in module mkSTV.C, line 194:

 Overlap eigenvalue is smaller than square root of threshold

 Multipole matrices computed through 2nd order

  Scale SEOQF with 1.000000e-01/1.000000e-01/1.000000e-01

 Standard Electronic Orientation quadrupole field applied
 Nucleus-field energy     =    -0.0000000176 hartrees
 Guess from superposition of atomic densities
 Warning:  Energy on first SCF cycle will be non-variational
 Long-range K will be added via erf
 Coulomb attenuation parameter = 0.8 bohr**(-1)
 An unrestricted Kohn-Sham SCF calculation will be
 performed using Pulay DIIS extrapolation
 Exchange:  wPBE + LR-HF      Correlation:  PBE
 Using SG-1 standard quadrature grid
 SCF converges when DIIS error is below 1.0E-05
 Requested basis set is G3large
 There are 96 shells and 348 basis functions
 A cutoff of  1.0D-08 yielded   3466 shell pairs
 There are  47748 function pairs ( 66451 Cartesian)
 Warning!  Inaccurate integrated density:
   Number of electrons =    79
   Numerical integral  =    80.000162316382
   Relative error      =     1.2660282486 %
 ---------------------------------------
  Cycle       Energy         DIIS Error
 ---------------------------------------
    1   -1918.2274936529      2.07E-02
    2   -1915.9428701676      3.58E-03
    3   -1915.9829320230      3.95E-03
    4   -1916.1951376473      4.04E-04
    5   -1916.2016240781      1.82E-04
    6   -1916.2034610517      7.52E-05
    7   -1916.2040683435      2.50E-05
    8   -1916.2042172224      8.94E-06 Convergence criterion met
 ---------------------------------------
 One-Electron    Energy = -3614.9699246513
 Total Coulomb   Energy =  1325.6469504534
 Alpha Exchange  Energy =   -14.6897835595
 Beta  Exchange  Energy =   -14.3480169345
 DFT   Exchange  Energy =   -90.9363482849
 DFT Correlation Energy =    -3.0517539176
 Nuclear Repu.   Energy =   496.1446596719
 Nuclear Attr.   Energy = -5527.9976557319
 Kinetic         Energy =  1913.0277310806
 <S^2> = 0.7594
 SCF time:  CPU 585.69 s  wall 586.78 s
 Final Alpha MO Eigenvalues
            1           2           3           4           5           6
    1-101.3539015-101.3539009-101.3536715-101.3536595 -10.7438494 -10.7424940
            7           8           9          10          11          12
    1  -9.8788194  -9.8788105  -9.8786403  -9.8786306  -7.6739901  -7.6739875
           13          14          15          16          17          18
    1  -7.6738158  -7.6738069  -7.6641269  -7.6641240  -7.6639426  -7.6639338
           19          20          21          22          23          24
    1  -7.6598568  -7.6598550  -7.6596869  -7.6596783  -1.4913376  -1.4007785
           25          26          27          28          29          30
    1  -1.3471067  -1.3150013  -1.2240996  -0.9856883  -0.9248331  -0.9171843
           31          32          33          34          35          36
    1  -0.8949638  -0.8185903  -0.7792534  -0.7453899  -0.7362923  -0.7330283
           37          38          39          40          41          42
    1  -0.7211718  -0.7207046  -0.6799028  -0.6369232  -0.1918626  -0.1181354
           43          44          45
    1  -0.1004264  -0.0959830  -0.0797572
 Final Beta MO Eigenvalues
            1           2           3           4           5           6
    1-101.3531597-101.3531592-101.3529348-101.3529227 -10.7381802 -10.7371163
            7           8           9          10          11          12
    1  -9.8780914  -9.8780823  -9.8779166  -9.8779049  -7.6738065  -7.6738043
           13          14          15          16          17          18
    1  -7.6736373  -7.6736282  -7.6617209  -7.6617198  -7.6615513  -7.6615422
           19          20          21          22          23          24
    1  -7.6594517  -7.6594497  -7.6592850  -7.6592762  -1.4720087  -1.3946210
           25          26          27          28          29          30
    1  -1.3408706  -1.3079696  -1.1946380  -0.9729739  -0.9196111  -0.9096039
           31          32          33          34          35          36
    1  -0.8235279  -0.8158249  -0.7513640  -0.7425172  -0.7311325  -0.7195645
           37          38          39          40          41          42
    1  -0.7002046  -0.6872983  -0.6779156  -0.3275321  -0.1242470  -0.1125875
           43          44
    1  -0.0930068  -0.0864471
 Analysis of SCF Wavefunction
 
 --------------------------------------------------------------
                    Orbital Energies (a.u.)
 --------------------------------------------------------------
 
 Alpha MOs
 -- Occupied --
*******-101.354-101.354-101.354 -10.744 -10.742  -9.879  -9.879
 -9.879  -9.879  -7.674  -7.674  -7.674  -7.674  -7.664  -7.664
 -7.664  -7.664  -7.660  -7.660  -7.660  -7.660  -1.491  -1.401
 -1.347  -1.315  -1.224  -0.986  -0.925  -0.917  -0.895  -0.819
 -0.779  -0.745  -0.736  -0.733  -0.721  -0.721  -0.680  -0.637
 -- Virtual --
 -0.192  -0.118  -0.100  -0.096  -0.080  -0.040  -0.036  -0.033
 -0.027  -0.015   0.004   0.005   0.008   0.034   0.035   0.043
  0.044   0.051   0.053   0.054   0.069   0.084   0.095   0.099
  0.099   0.103   0.115   0.131   0.132   0.140   0.175   0.182
  0.192   0.199   0.215   0.224   0.258   0.262   0.277   0.284
  0.288   0.290   0.332   0.350   0.368   0.376   0.380   0.385
  0.406   0.410   0.418   0.426   0.429   0.444   0.486   0.493
  0.501   0.513   0.521   0.547   0.553   0.555   0.598   0.670
  0.676   0.677   0.691   0.700   0.707   0.722   0.772   0.827
  0.847   0.875   0.909   0.911   0.936   0.967   0.972   0.986
  1.000   1.010   1.015   1.040   1.041   1.043   1.057   1.067
  1.082   1.082   1.092   1.093   1.103   1.115   1.115   1.126
  1.143   1.148   1.166   1.173   1.205   1.209   1.217   1.244
  1.248   1.280   1.344   1.348   1.365   1.383   1.384   1.422
  1.423   1.486   1.494   1.526   1.546   1.553   1.566   1.612
  1.623   1.635   1.637   1.654   1.715   1.736   1.743   1.791
  1.808   1.820   1.993   2.100   2.124   2.134   2.189   2.213
  2.271   2.281   2.304   2.373   2.437   2.475   2.567   2.580
  2.641   2.748   2.753   2.763   2.920   2.940   3.032   3.055
  3.085   3.215   3.227   3.229   3.282   3.328   3.389   3.404
  3.429   3.462   3.512   3.524   3.568   3.571   3.672   3.846
  3.912   3.916   4.252   4.258   4.323   4.328   4.334   4.344
  4.356   4.362   4.364   4.398   4.407   4.415   4.423   4.446
  4.449   4.466   4.473   4.480   4.481   4.486   4.527   4.564
  4.572   4.573   4.589   4.593   4.637   4.644   4.702   4.749
  4.917   5.014   5.039   5.045   5.059   5.074   5.082   5.098
  5.155   5.168   5.193   5.203   5.253   5.284   5.319   5.332
  5.457   5.540   5.679   5.833   6.107   6.109   9.784   9.913
  9.960  10.094  20.528  20.536  20.550  20.582  20.583  20.615
 20.622  20.672  20.776  20.861  20.909  20.937  23.506  24.371
 27.037  27.072  27.076  27.114  27.115  27.117  27.121  27.126
 27.140  27.153  27.166  27.167  27.168  27.187  27.200  27.201
 27.206  27.220  27.273  27.302  27.320  27.336  28.050  28.081
 28.171  28.281  36.772  36.773  36.775  36.775  36.776  36.776
 36.776  36.780  36.785  36.786  36.786  36.786  36.787  36.787
 36.787  36.789  36.790  36.791  36.794  36.794  36.799  36.805
 36.806  36.807  36.810  36.810  36.816  36.824  40.668  40.729
 40.763  40.927  40.929  40.976  41.017  41.024  41.091  41.105
215.712 215.853 215.890 216.064
 
 Beta MOs
 -- Occupied --
*******-101.353-101.353-101.353 -10.738 -10.737  -9.878  -9.878
 -9.878  -9.878  -7.674  -7.674  -7.674  -7.674  -7.662  -7.662
 -7.662  -7.662  -7.659  -7.659  -7.659  -7.659  -1.472  -1.395
 -1.341  -1.308  -1.195  -0.973  -0.920  -0.910  -0.824  -0.816
 -0.751  -0.743  -0.731  -0.720  -0.700  -0.687  -0.678
 -- Virtual --
 -0.328  -0.124  -0.113  -0.093  -0.086  -0.080  -0.039  -0.036
 -0.032  -0.026  -0.013   0.005   0.006   0.009   0.034   0.036
  0.044   0.048   0.053   0.054   0.057   0.070   0.084   0.100
  0.100   0.102   0.107   0.123   0.131   0.134   0.140   0.175
  0.184   0.194   0.204   0.216   0.230   0.265   0.267   0.287
  0.294   0.294   0.300   0.337   0.350   0.374   0.389   0.391
  0.392   0.408   0.411   0.418   0.428   0.435   0.455   0.489
  0.498   0.514   0.519   0.523   0.549   0.554   0.568   0.600
  0.678   0.679   0.680   0.696   0.707   0.720   0.739   0.774
  0.828   0.849   0.877   0.914   0.914   0.940   0.972   0.975
  0.989   1.006   1.012   1.020   1.042   1.043   1.047   1.060
  1.073   1.085   1.086   1.096   1.096   1.109   1.118   1.121
  1.131   1.146   1.152   1.167   1.177   1.210   1.215   1.220
  1.245   1.252   1.285   1.348   1.350   1.367   1.387   1.388
  1.424   1.431   1.487   1.501   1.533   1.549   1.559   1.573
  1.619   1.627   1.639   1.639   1.656   1.722   1.739   1.746
  1.793   1.810   1.822   2.000   2.101   2.132   2.142   2.197
  2.214   2.279   2.282   2.306   2.374   2.439   2.480   2.568
  2.581   2.668   2.772   2.774   2.787   2.937   2.951   3.049
  3.068   3.098   3.224   3.229   3.239   3.298   3.354   3.404
  3.408   3.440   3.466   3.525   3.539   3.583   3.588   3.694
  3.851   3.921   3.928   4.255   4.262   4.331   4.334   4.339
  4.349   4.362   4.369   4.370   4.402   4.416   4.420   4.426
  4.450   4.452   4.469   4.480   4.484   4.485   4.494   4.528
  4.569   4.579   4.586   4.591   4.595   4.638   4.645   4.705
  4.751   4.919   5.017   5.041   5.050   5.061   5.077   5.084
  5.101   5.157   5.171   5.195   5.205   5.255   5.287   5.319
  5.332   5.458   5.541   5.680   5.835   6.108   6.112   9.785
  9.914   9.961  10.095  20.531  20.540  20.554  20.582  20.586
 20.615  20.623  20.672  20.776  20.861  20.909  20.937  23.511
 24.377  27.047  27.074  27.078  27.116  27.118  27.119  27.124
 27.128  27.142  27.155  27.166  27.168  27.169  27.190  27.200
 27.203  27.206  27.226  27.274  27.303  27.321  27.349  28.053
 28.084  28.174  28.284  36.773  36.774  36.775  36.776  36.776
 36.776  36.777  36.780  36.786  36.786  36.786  36.786  36.787
 36.787  36.788  36.789  36.791  36.791  36.795  36.795  36.799
 36.805  36.806  36.807  36.810  36.810  36.816  36.824  40.679
 40.734  40.775  40.936  40.939  40.986  41.019  41.034  41.094
 41.106 215.712 215.854 215.891 216.065
 --------------------------------------------------------------
 
          Ground-State Mulliken Net Atomic Charges

     Atom                 Charge (a.u.)    Spin (a.u.)
  --------------------------------------------------------
      1 C                     0.679278       0.321454
      2 C                     0.679167       0.323424
      3 Cl                   -0.089664       0.089150
      4 Cl                   -0.089670       0.088573
      5 Cl                   -0.089567       0.089113
      6 Cl                   -0.089544       0.088286
  --------------------------------------------------------
  Sum of atomic charges =     1.000000
  Sum of spin   charges =     1.000000

 -----------------------------------------------------------------
                    Cartesian Multipole Moments
 -----------------------------------------------------------------
    Charge (ESU x 10^10)
                 4.8032
    Dipole Moment (Debye)
         X       0.0000      Y       0.0000      Z       3.2346
       Tot       3.2346
    Quadrupole Moments (Debye-Ang)
        XX     -43.7380     XY      -0.0096     YY     -56.2957
        XZ      -0.0027     YZ      -0.0017     ZZ     -41.4927
    Octapole Moments (Debye-Ang^2)
       XXX       0.0000    XXY       0.0000    XYY       0.0000
       YYY       0.0000    XXZ     -29.4536    XYZ      -0.0065
       YYZ     -37.9103    XZZ      -0.0037    YZZ      -0.0022
       ZZZ     -86.7590
    Hexadecapole Moments (Debye-Ang^3)
      XXXX    -556.8801   XXXY      -0.0711   XXYY    -114.2641
      XYYY      -0.0080   YYYY     -57.0146   XXXZ      -0.0095
      XXYZ      -0.0017   XYYZ      -0.0048   YYYZ      -0.0012
      XXZZ    -183.9760   XYZZ      -0.0089   YYZZ    -163.5506
      XZZZ      -0.0175   YZZZ      -0.0168   ZZZZ    -841.5477
 -----------------------------------------------------------------
 Total job time:  587.45s(wall), 586.35s(cpu) 
 Mon Jul  8 13:04:36 2013

        *************************************************************
        *                                                           *
        *  Thank you very much for using Q-Chem.  Have a nice day.  *
        *                                                           *
        *************************************************************


0 sent ACK to 0 
now end server 0 ... 
