Process 0 of 1 is on cl218.stfx.acenet.ca - thread support 1
initial socket setup ...start
initial socket setup ...done 
now start server 0 ... 

cmd = /usr/bin/ssh clhead /usr/local/qchem/bin/get_hostid 978017556 > /globalscratch/itamblyn/bnl/g297_b3lyp_neut_g03Large_worked/g2g71018/omega500/qchem16648/lic.dat
                  Welcome to Q-Chem
     A Quantum Leap Into The Future Of Chemistry

 Y. Shao, L. Fusti-Molnar, Y. Jung, J. Kussmann, C. Ochsenfeld,
 S. T. Brown, A. T. B. Gilbert, L. V. Slipchenko,S. V. Levchenko,
 D. P. O'Neill, R. A. DiStasio Jr., R. C. Lochan, T. Wang,
 G. J. O. Beran, N. A. Besley, J. M. Herbert, C. Y. Lin,
 T. Van Voorhis, S. H. Chien, A. Sodt, R. P. Steele, 
 V. A. Rassolov, P. E. Maslen, P. P. Korambath, R. D. Adamson,
 B. Austin, J. Baker, E. F. C. Byrd, H. Dachsel, R. J. Doerksen,
 A. Dreuw, B. D. Dunietz, A. D. Dutoi, T. R. Furlani,
 S. R. Gwaltney, A. Heyden, S. Hirata, C.-P. Hsu, G. Kedziora,
 R. Z. Khaliullin, P. Klunzinger, A. M. Lee, M. S. Lee, W. Liang,
 I. Lotan, N. Nair, B. Peters, E. I. Proynov, P. A. Pieniazek, 
 Y. M. Rhee, J. Ritchie, E. Rosta, C. D. Sherrill, 
 A. C. Simmonett, J. E. Subotnik, H. L. Woodcock III,
 W. Zhang, A. T. Bell, A. K. Chakraborty, D. M. Chipman,
 F. J. Keil, A. Warshel, W. J. Hehre, H. F. Schaefer III,
 J. Kong, A. I. Krylov, P. M. W. Gill, M. Head-Gordon,
 Q-Chem, Version 3.1, Q-Chem, Inc., Pittsburgh, PA (2007).

 Additional authors for Version 3.1: 
 Z. Gan, Y. Zhao, N. E. Schultz, D. Truhlar, E. Epifanovsky and M. Oana.

 Additional authors for Version 3.2: 
 R. Baer, B. R. Brooks, D. Casanova, J.-D. Chai, C.-L. Cheng, 
 C. Cramer, D. Crittenden, A. Ghysels, G. Hawkins, E. G. Hohenstein, 
 C. Kelley, W. Kurlancheek, D. Liotard, E. Livshits, P. Manohar, 
 A. Marenich, D. Neuhauser, R. Olson, M. A. Rohrdanz, K. S. Thanthiriwatte, 
 A. J. W. Thom, V. Vanovschi, C. F. Williams, Q. Wu and Z.-Q. You. 


 Intel X86 Linux Version

 Q-chem begins on Tue Apr 12 20:35:26 2011  

 Parallel job on  1  processors
Processing $rem in /usr/local/qchem/config/preferences.

theFileMan(): MAXOPENFILES=974 MAX_SUB_FILE_NUM=16
Maximum size of a physical file is 2.0 GB, maximum size of a tmp-file is 32.0 GB


--------------------------------------------------------------
User input:
--------------------------------------------------------------

$molecule
-1,2
P
X,1,1.
H,1,R,2,BETA
H,1,R,2,BETA,3,120.,0
H,1,R,2,BETA,3,-120.,0

 R=1.42430407
 BETA=122.85357649

$end

$comment
negative
$end

$xc_functional
   X HF 1.0
   X BNL 1.0
   C LYP 1.0
$end

$rem
SYMMETRY_DECOMPOSITION	0
exchange 		general
BASIS                   g3large
omega			500
separate_jk		true
mem_static              760
max_scf_cycles          200
scf_final_print         1
sym_ignore              true
$end

--------------------------------------------------------------
 Writing REM_CC_EA            4
 ----------------------------------------------------
       Standard Nuclear Orientation (Angstroms)
    I     Atom         X            Y            Z
 ----------------------------------------------------
    1      P       0.000000     0.000000     0.000000
    2      H       1.196500     0.000000    -0.772676
    3      H      -0.598250    -1.036200    -0.772676
    4      H      -0.598250     1.036200    -0.772676
 ----------------------------------------------------
 Nuclear Repulsion Energy =    17.4850598936 hartrees
 There are       10 alpha and        9 beta electrons
 Requested basis set is G3large
 There are 37 shells and 96 basis functions

Total QAlloc Memory Limit   2000 MB
Mega-Array Size       743 MB
MEM_STATIC part       760 MB

                       Distance Matrix (Angstroms)
             P (  1)   H (  2)   H (  3)
   H (  2)  1.424304
   H (  3)  1.424304  2.072400
   H (  4)  1.424304  2.072400  2.072400
 
 A cutoff of  1.0D-08 yielded    703 shell pairs
 There are   4798 function pairs (  6229 Cartesian)
Evaluating contribution to one-electron hamiltonian from nuclear
 Smallest overlap matrix eigenvalue = 9.84E-04
 Multipole matrices computed through 2nd order

  Scale SEOQF with 1.000000e-01/1.000000e-01/1.000000e-01

 Standard Electronic Orientation quadrupole field applied
 Guess from superposition of atomic densities
 Warning:  Energy on first SCF cycle will be non-variational
 An unrestricted hybrid HF-DFT SCF calculation will be
 performed using Pulay DIIS extrapolation
 Exchange:     1.0000 Hartree-Fock + 1.0000 BNL
 Correlation:  1.0000 LYP
 Using SG-1 standard quadrature grid
 SCF converges when DIIS error is below 1.0E-05
 Warning!  Inaccurate integrated density:
   Number of electrons =    19
   Numerical integral  =    17.999977668261
   Relative error      =    -5.2632754302 %
 ---------------------------------------
  Cycle       Energy         DIIS Error
 ---------------------------------------
    1    -341.4280749864      3.41E-02
    2    -341.5240029872      1.79E-03
    3    -341.5342171757      8.57E-04
    4    -341.5357006887      3.03E-04
    5    -341.5360650796      9.22E-05
    6    -341.5361416691      2.14E-05
    7    -341.5361510934      6.21E-06 Convergence criterion met
 ---------------------------------------
 One-Electron    Energy =  -511.0800904228
 Total Coulomb   Energy =   174.8159685405
 Alpha Exchange  Energy =    -2.2575273139
 Beta  Exchange  Energy =    -2.1846423475
 DFT   Exchange  Energy =   -17.6320926392
 DFT Correlation Energy =    -0.6828268041
 Nuclear Repu.   Energy =    17.4850598936
 Nuclear Attr.   Energy =  -851.9206638619
 Kinetic         Energy =   340.8405734391
 <S^2> = 0.7503
 SCF time:  CPU 15.13 s  wall 20.82 s
 Final Alpha MO Eigenvalues
            1           2           3           4           5           6
    1 -76.0688306  -6.3753037  -4.6121234  -4.6121167  -4.6071042  -0.6622137
            7           8           9          10          11          12
    1  -0.3540401  -0.3540374  -0.2427138   0.0340040   0.1779782   0.1779791
           13          14          15
    1   0.1926320   0.2004751   0.2004773
 Final Beta MO Eigenvalues
            1           2           3           4           5           6
    1 -76.0683242  -6.3747492  -4.6116172  -4.6116112  -4.6064295  -0.6579197
            7           8           9          10          11          12
    1  -0.3529786  -0.3529779  -0.2420883   0.1416255   0.1846970   0.1846997
           13          14
    1   0.1921224   0.1921344
 Analysis of SCF Wavefunction
 
 --------------------------------------------------------------
                    Orbital Energies (a.u.)
 --------------------------------------------------------------
 
 Alpha MOs
 -- Occupied --
-76.069  -6.375  -4.612  -4.612  -4.607  -0.662  -0.354  -0.354
 -0.243   0.034
 -- Virtual --
  0.178   0.178   0.193   0.200   0.200   0.284   0.304   0.304
  0.368   0.408   0.408   0.437   0.500   0.500   0.548   0.591
  0.591   0.739   0.765   0.765   0.906   0.908   0.924   0.924
  0.964   1.071   1.071   1.086   1.086   1.096   1.180   1.191
  1.191   1.314   1.349   1.349   1.511   1.565   1.565   1.629
  1.741   1.741   1.761   1.880   1.880   3.013   3.013   3.131
  3.149   3.149   3.170   3.189   3.226   3.227   3.419   4.221
  4.221   4.237   4.273   4.274   4.274   4.363   4.365   4.368
  4.410   4.410   4.599   5.282   5.283   7.333  13.242  13.245
 13.245  21.582  21.621  21.735  21.977  22.020  28.495  28.495
 28.506  28.509  28.525  28.531  28.532 164.263
 
 Beta MOs
 -- Occupied --
-76.068  -6.375  -4.612  -4.612  -4.606  -0.658  -0.353  -0.353
 -0.242
 -- Virtual --
  0.142   0.185   0.185   0.192   0.192   0.193   0.282   0.299
  0.299   0.366   0.406   0.406   0.433   0.494   0.494   0.545
  0.582   0.582   0.735   0.762   0.762   0.906   0.906   0.924
  0.924   0.963   1.068   1.068   1.084   1.084   1.095   1.179
  1.189   1.189   1.314   1.348   1.348   1.510   1.564   1.564
  1.627   1.741   1.741   1.760   1.878   1.878   3.013   3.013
  3.132   3.150   3.150   3.171   3.190   3.227   3.227   3.418
  4.221   4.221   4.237   4.273   4.274   4.274   4.364   4.365
  4.368   4.410   4.410   4.598   5.283   5.284   7.334  13.242
 13.245  13.245  21.583  21.622  21.736  21.978  22.020  28.495
 28.495  28.507  28.509  28.525  28.532  28.532 164.264
 --------------------------------------------------------------
 
          Ground-State Mulliken Net Atomic Charges

     Atom                 Charge (a.u.)    Spin (a.u.)
  --------------------------------------------------------
      1 P                     4.188982      -4.269127
      2 H                    -1.729599       1.756286
      3 H                    -1.729707       1.756435
      4 H                    -1.729676       1.756407
  --------------------------------------------------------
  Sum of atomic charges =    -1.000000
  Sum of spin   charges =     1.000000

 -----------------------------------------------------------------
                    Cartesian Multipole Moments
 -----------------------------------------------------------------
    Charge (ESU x 10^10)
                -4.8032
    Dipole Moment (Debye)
         X       0.0011      Y       0.0001      Z       2.7520
       Tot       2.7520
    Quadrupole Moments (Debye-Ang)
        XX     -39.5773     XY      -0.0001     YY     -39.5778
        XZ      -0.0005     YZ      -0.0001     ZZ     -37.9935
    Octapole Moments (Debye-Ang^2)
       XXX      -9.7213    XXY       0.0004    XYY       9.7376
       YYY       0.0013    XXZ      20.9798    XYZ       0.0001
       YYZ      20.9799    XZZ       0.0038    YZZ       0.0004
       ZZZ      35.5730
    Hexadecapole Moments (Debye-Ang^3)
      XXXX    -315.3371   XXXY      -0.0006   XXYY    -105.1152
      XYYY      -0.0008   YYYY    -315.3472   XXXZ       7.0622
      XXYZ      -0.0003   XYYZ      -7.0692   YYYZ      -0.0010
      XXZZ    -100.3396   XYZZ      -0.0003   YYZZ    -100.3409
      XZZZ      -0.0041   YZZZ      -0.0008   ZZZZ    -256.3304
 -----------------------------------------------------------------
 Total job time:  21.65s(wall), 15.25s(cpu) 
 Tue Apr 12 20:35:48 2011

        *************************************************************
        *                                                           *
        *  Thank you very much for using Q-Chem.  Have a nice day.  *
        *                                                           *
        *************************************************************


0 sent ACK to 0 
now end server 0 ... 
 
**********************************************************************
Job 2 of 3 
**********************************************************************
 
Process 0 of 1 is on cl218.stfx.acenet.ca - thread support 1
initial socket setup ...start
initial socket setup ...done 
now start server 0 ... 

cmd = /usr/bin/ssh clhead /usr/local/qchem/bin/get_hostid 129875791 > /globalscratch/itamblyn/bnl/g297_b3lyp_neut_g03Large_worked/g2g71018/omega500/qchem16648/lic.dat
                  Welcome to Q-Chem
     A Quantum Leap Into The Future Of Chemistry

 Y. Shao, L. Fusti-Molnar, Y. Jung, J. Kussmann, C. Ochsenfeld,
 S. T. Brown, A. T. B. Gilbert, L. V. Slipchenko,S. V. Levchenko,
 D. P. O'Neill, R. A. DiStasio Jr., R. C. Lochan, T. Wang,
 G. J. O. Beran, N. A. Besley, J. M. Herbert, C. Y. Lin,
 T. Van Voorhis, S. H. Chien, A. Sodt, R. P. Steele, 
 V. A. Rassolov, P. E. Maslen, P. P. Korambath, R. D. Adamson,
 B. Austin, J. Baker, E. F. C. Byrd, H. Dachsel, R. J. Doerksen,
 A. Dreuw, B. D. Dunietz, A. D. Dutoi, T. R. Furlani,
 S. R. Gwaltney, A. Heyden, S. Hirata, C.-P. Hsu, G. Kedziora,
 R. Z. Khaliullin, P. Klunzinger, A. M. Lee, M. S. Lee, W. Liang,
 I. Lotan, N. Nair, B. Peters, E. I. Proynov, P. A. Pieniazek, 
 Y. M. Rhee, J. Ritchie, E. Rosta, C. D. Sherrill, 
 A. C. Simmonett, J. E. Subotnik, H. L. Woodcock III,
 W. Zhang, A. T. Bell, A. K. Chakraborty, D. M. Chipman,
 F. J. Keil, A. Warshel, W. J. Hehre, H. F. Schaefer III,
 J. Kong, A. I. Krylov, P. M. W. Gill, M. Head-Gordon,
 Q-Chem, Version 3.1, Q-Chem, Inc., Pittsburgh, PA (2007).

 Additional authors for Version 3.1: 
 Z. Gan, Y. Zhao, N. E. Schultz, D. Truhlar, E. Epifanovsky and M. Oana.

 Additional authors for Version 3.2: 
 R. Baer, B. R. Brooks, D. Casanova, J.-D. Chai, C.-L. Cheng, 
 C. Cramer, D. Crittenden, A. Ghysels, G. Hawkins, E. G. Hohenstein, 
 C. Kelley, W. Kurlancheek, D. Liotard, E. Livshits, P. Manohar, 
 A. Marenich, D. Neuhauser, R. Olson, M. A. Rohrdanz, K. S. Thanthiriwatte, 
 A. J. W. Thom, V. Vanovschi, C. F. Williams, Q. Wu and Z.-Q. You. 


 Intel X86 Linux Version

 Q-chem begins on Tue Apr 12 20:35:51 2011  

 Parallel job on  1  processors
Processing $rem in /usr/local/qchem/config/preferences.

theFileMan(): MAXOPENFILES=974 MAX_SUB_FILE_NUM=16
Maximum size of a physical file is 2.0 GB, maximum size of a tmp-file is 32.0 GB


--------------------------------------------------------------
User input:
--------------------------------------------------------------

$molecule
0,1
P
X,1,1.
H,1,R,2,BETA
H,1,R,2,BETA,3,120.,0
H,1,R,2,BETA,3,-120.,0

 R=1.42430407
 BETA=122.85357649

$end

$comment
neutral
$end

$xc_functional
   X HF 1.0
   X BNL 1.0
   C LYP 1.0
$end

$rem
SYMMETRY_DECOMPOSITION	0
exchange 		general
BASIS                   g3large
omega			500
separate_jk		true
mem_static              760
max_scf_cycles          200
scf_final_print         1
sym_ignore              true
$end

--------------------------------------------------------------
 Writing REM_CC_EA            4
 ----------------------------------------------------
       Standard Nuclear Orientation (Angstroms)
    I     Atom         X            Y            Z
 ----------------------------------------------------
    1      P       0.000000     0.000000     0.000000
    2      H       1.196500     0.000000    -0.772676
    3      H      -0.598250    -1.036200    -0.772676
    4      H      -0.598250     1.036200    -0.772676
 ----------------------------------------------------
 Nuclear Repulsion Energy =    17.4850598936 hartrees
 There are        9 alpha and        9 beta electrons
 Requested basis set is G3large
 There are 37 shells and 96 basis functions

Total QAlloc Memory Limit   2000 MB
Mega-Array Size       743 MB
MEM_STATIC part       760 MB

                       Distance Matrix (Angstroms)
             P (  1)   H (  2)   H (  3)
   H (  2)  1.424304
   H (  3)  1.424304  2.072400
   H (  4)  1.424304  2.072400  2.072400
 
 A cutoff of  1.0D-08 yielded    703 shell pairs
 There are   4798 function pairs (  6229 Cartesian)
Evaluating contribution to one-electron hamiltonian from nuclear
 Smallest overlap matrix eigenvalue = 9.84E-04
 Multipole matrices computed through 2nd order

  Scale SEOQF with 1.000000e-01/1.000000e-01/1.000000e-01

 Standard Electronic Orientation quadrupole field applied
 Guess from superposition of atomic densities
 Warning:  Energy on first SCF cycle will be non-variational
 A restricted hybrid HF-DFT SCF calculation will be
 performed using Pulay DIIS extrapolation
 Exchange:     1.0000 Hartree-Fock + 1.0000 BNL
 Correlation:  1.0000 LYP
 Using SG-1 standard quadrature grid
 SCF converges when DIIS error is below 1.0E-05
 ---------------------------------------
  Cycle       Energy         DIIS Error
 ---------------------------------------
    1    -341.4280749864      3.41E-02
    2    -341.5619995835      1.91E-03
    3    -341.5691901259      6.91E-04
    4    -341.5698715444      1.97E-04
    5    -341.5699975688      6.09E-05
    6    -341.5700079924      1.61E-05
    7    -341.5700087123      3.52E-06 Convergence criterion met
 ---------------------------------------
 One-Electron    Energy =  -508.2815735897
 Total Coulomb   Energy =   171.9053919176
 Alpha Exchange  Energy =    -2.1877475881
 Beta  Exchange  Energy =    -2.1877475881
 DFT   Exchange  Energy =   -17.6268849892
 DFT Correlation Energy =    -0.6765067684
 Nuclear Repu.   Energy =    17.4850598936
 Nuclear Attr.   Energy =  -849.0397305356
 Kinetic         Energy =   340.7581569459
 SCF time:  CPU 12.91 s  wall 18.78 s
 Final Alpha MO Eigenvalues
            1           2           3           4           5           6
    1 -76.2282635  -6.5338548  -4.7707020  -4.7706953  -4.7656160  -0.8163541
            7           8           9          10          11          12
    1  -0.5105450  -0.5105442  -0.3954034   0.0314923   0.0747835   0.0747862
           13          14
    1   0.0774791   0.0774806
 Analysis of SCF Wavefunction
 
 --------------------------------------------------------------
                    Orbital Energies (a.u.)
 --------------------------------------------------------------
 
 Alpha MOs
 -- Occupied --
-76.228  -6.534  -4.771  -4.771  -4.766  -0.816  -0.511  -0.511
 -0.395
 -- Virtual --
  0.031   0.075   0.075   0.077   0.077   0.086   0.161   0.166
  0.166   0.224   0.256   0.256   0.291   0.357   0.357   0.408
  0.444   0.444   0.587   0.614   0.614   0.751   0.759   0.771
  0.771   0.811   0.917   0.918   0.932   0.932   0.943   1.029
  1.036   1.036   1.160   1.196   1.196   1.355   1.410   1.410
  1.474   1.586   1.586   1.609   1.726   1.726   2.857   2.857
  2.975   2.993   2.993   3.014   3.034   3.070   3.071   3.264
  4.063   4.063   4.079   4.116   4.116   4.117   4.206   4.208
  4.211   4.252   4.253   4.441   5.125   5.126   7.176  13.084
 13.087  13.087  21.424  21.462  21.577  21.819  21.861  28.336
 28.336  28.348  28.350  28.366  28.373  28.373 164.104
 --------------------------------------------------------------
 
          Ground-State Mulliken Net Atomic Charges

     Atom                 Charge (a.u.)
  ----------------------------------------
      1 P                    -0.084526
      2 H                     0.028172
      3 H                     0.028173
      4 H                     0.028182
  ----------------------------------------
  Sum of atomic charges =     0.000000

 -----------------------------------------------------------------
                    Cartesian Multipole Moments
 -----------------------------------------------------------------
    Charge (ESU x 10^10)
                 0.0000
    Dipole Moment (Debye)
         X      -0.0001      Y       0.0000      Z      -0.7234
       Tot       0.7234
    Quadrupole Moments (Debye-Ang)
        XX     -14.8804     XY       0.0000     YY     -14.8804
        XZ       0.0000     YZ       0.0000     ZZ     -16.9809
    Octapole Moments (Debye-Ang^2)
       XXX       0.0986    XXY       0.0000    XYY      -0.0987
       YYY       0.0000    XXZ       1.5600    XYZ       0.0000
       YYZ       1.5600    XZZ      -0.0001    YZZ       0.0000
       ZZZ       5.3501
    Hexadecapole Moments (Debye-Ang^3)
      XXXX     -32.1854   XXXY      -0.0001   XXYY     -10.7285
      XYYY       0.0000   YYYY     -32.1856   XXXZ      -0.7418
      XXYZ       0.0000   XYYZ       0.7417   YYYZ       0.0000
      XXZZ     -11.2675   XYZZ       0.0000   YYZZ     -11.2675
      XZZZ      -0.0001   YZZZ       0.0000   ZZZZ     -38.3010
 -----------------------------------------------------------------
 Total job time:  19.56s(wall), 13.03s(cpu) 
 Tue Apr 12 20:36:10 2011

        *************************************************************
        *                                                           *
        *  Thank you very much for using Q-Chem.  Have a nice day.  *
        *                                                           *
        *************************************************************


0 sent ACK to 0 
now end server 0 ... 
 
**********************************************************************
Job 3 of 3 
**********************************************************************
 
Process 0 of 1 is on cl218.stfx.acenet.ca - thread support 1
initial socket setup ...start
initial socket setup ...done 
now start server 0 ... 

cmd = /usr/bin/ssh clhead /usr/local/qchem/bin/get_hostid 653045025 > /globalscratch/itamblyn/bnl/g297_b3lyp_neut_g03Large_worked/g2g71018/omega500/qchem16648/lic.dat
                  Welcome to Q-Chem
     A Quantum Leap Into The Future Of Chemistry

 Y. Shao, L. Fusti-Molnar, Y. Jung, J. Kussmann, C. Ochsenfeld,
 S. T. Brown, A. T. B. Gilbert, L. V. Slipchenko,S. V. Levchenko,
 D. P. O'Neill, R. A. DiStasio Jr., R. C. Lochan, T. Wang,
 G. J. O. Beran, N. A. Besley, J. M. Herbert, C. Y. Lin,
 T. Van Voorhis, S. H. Chien, A. Sodt, R. P. Steele, 
 V. A. Rassolov, P. E. Maslen, P. P. Korambath, R. D. Adamson,
 B. Austin, J. Baker, E. F. C. Byrd, H. Dachsel, R. J. Doerksen,
 A. Dreuw, B. D. Dunietz, A. D. Dutoi, T. R. Furlani,
 S. R. Gwaltney, A. Heyden, S. Hirata, C.-P. Hsu, G. Kedziora,
 R. Z. Khaliullin, P. Klunzinger, A. M. Lee, M. S. Lee, W. Liang,
 I. Lotan, N. Nair, B. Peters, E. I. Proynov, P. A. Pieniazek, 
 Y. M. Rhee, J. Ritchie, E. Rosta, C. D. Sherrill, 
 A. C. Simmonett, J. E. Subotnik, H. L. Woodcock III,
 W. Zhang, A. T. Bell, A. K. Chakraborty, D. M. Chipman,
 F. J. Keil, A. Warshel, W. J. Hehre, H. F. Schaefer III,
 J. Kong, A. I. Krylov, P. M. W. Gill, M. Head-Gordon,
 Q-Chem, Version 3.1, Q-Chem, Inc., Pittsburgh, PA (2007).

 Additional authors for Version 3.1: 
 Z. Gan, Y. Zhao, N. E. Schultz, D. Truhlar, E. Epifanovsky and M. Oana.

 Additional authors for Version 3.2: 
 R. Baer, B. R. Brooks, D. Casanova, J.-D. Chai, C.-L. Cheng, 
 C. Cramer, D. Crittenden, A. Ghysels, G. Hawkins, E. G. Hohenstein, 
 C. Kelley, W. Kurlancheek, D. Liotard, E. Livshits, P. Manohar, 
 A. Marenich, D. Neuhauser, R. Olson, M. A. Rohrdanz, K. S. Thanthiriwatte, 
 A. J. W. Thom, V. Vanovschi, C. F. Williams, Q. Wu and Z.-Q. You. 


 Intel X86 Linux Version

 Q-chem begins on Tue Apr 12 20:36:13 2011  

 Parallel job on  1  processors
Processing $rem in /usr/local/qchem/config/preferences.

theFileMan(): MAXOPENFILES=974 MAX_SUB_FILE_NUM=16
Maximum size of a physical file is 2.0 GB, maximum size of a tmp-file is 32.0 GB


--------------------------------------------------------------
User input:
--------------------------------------------------------------

$molecule
1,2
P
X,1,1.
H,1,R,2,BETA
H,1,R,2,BETA,3,120.,0
H,1,R,2,BETA,3,-120.,0

 R=1.42430407
 BETA=122.85357649

$end

$comment
positive
$end

$xc_functional
   X HF 1.0
   X BNL 1.0
   C LYP 1.0
$end

$rem
SYMMETRY_DECOMPOSITION	0
exchange 		general
BASIS                   g3large
omega			500
separate_jk		true
mem_static              760
max_scf_cycles          200
scf_final_print         1
sym_ignore              true
$end

--------------------------------------------------------------
 Writing REM_CC_EA            4
 ----------------------------------------------------
       Standard Nuclear Orientation (Angstroms)
    I     Atom         X            Y            Z
 ----------------------------------------------------
    1      P       0.000000     0.000000     0.000000
    2      H       1.196500     0.000000    -0.772676
    3      H      -0.598250    -1.036200    -0.772676
    4      H      -0.598250     1.036200    -0.772676
 ----------------------------------------------------
 Nuclear Repulsion Energy =    17.4850598936 hartrees
 There are        9 alpha and        8 beta electrons
 Requested basis set is G3large
 There are 37 shells and 96 basis functions

Total QAlloc Memory Limit   2000 MB
Mega-Array Size       743 MB
MEM_STATIC part       760 MB

                       Distance Matrix (Angstroms)
             P (  1)   H (  2)   H (  3)
   H (  2)  1.424304
   H (  3)  1.424304  2.072400
   H (  4)  1.424304  2.072400  2.072400
 
 A cutoff of  1.0D-08 yielded    703 shell pairs
 There are   4798 function pairs (  6229 Cartesian)
Evaluating contribution to one-electron hamiltonian from nuclear
 Smallest overlap matrix eigenvalue = 9.84E-04
 Multipole matrices computed through 2nd order

  Scale SEOQF with 1.000000e-01/1.000000e-01/1.000000e-01

 Standard Electronic Orientation quadrupole field applied
 Guess from superposition of atomic densities
 Warning:  Energy on first SCF cycle will be non-variational
 An unrestricted hybrid HF-DFT SCF calculation will be
 performed using Pulay DIIS extrapolation
 Exchange:     1.0000 Hartree-Fock + 1.0000 BNL
 Correlation:  1.0000 LYP
 Using SG-1 standard quadrature grid
 SCF converges when DIIS error is below 1.0E-05
 Warning!  Inaccurate integrated density:
   Number of electrons =    17
   Numerical integral  =    17.999977668261
   Relative error      =     5.8822215780 %
 ---------------------------------------
  Cycle       Energy         DIIS Error
 ---------------------------------------
    1    -341.4280749864      3.41E-02
    2    -341.1418378726      4.45E-03
    3    -341.1799307345      2.20E-03
    4    -341.1834294425      3.82E-04
    5    -341.1837752156      1.02E-04
    6    -341.1838306972      2.62E-05
    7    -341.1838357191      5.59E-06 Convergence criterion met
 ---------------------------------------
 One-Electron    Energy =  -502.2580548316
 Total Coulomb   Energy =   165.9873444901
 Alpha Exchange  Energy =    -2.2081762496
 Beta  Exchange  Energy =    -1.9951014030
 DFT   Exchange  Energy =   -17.5532595710
 DFT Correlation Energy =    -0.6416480478
 Nuclear Repu.   Energy =    17.4850598936
 Nuclear Attr.   Energy =  -842.6565078519
 Kinetic         Energy =   340.3984530203
 <S^2> = 0.7522
 SCF time:  CPU 15.14 s  wall 21.81 s
 Final Alpha MO Eigenvalues
            1           2           3           4           5           6
    1 -76.5901145  -6.8917408  -5.1326260  -5.1253594  -5.1253528  -1.1400287
            7           8           9          10          11          12
    1  -0.8092320  -0.8092314  -0.7576650  -0.1639755  -0.1639730  -0.1401624
           13          14
    1  -0.0781410  -0.0781404
 Final Beta MO Eigenvalues
            1           2           3           4           5           6
    1 -76.5850308  -6.8862327  -5.1213708  -5.1213634  -5.1212459  -1.0968828
            7           8           9          10          11          12
    1  -0.7964073  -0.7964065  -0.3823485  -0.1406012  -0.1405979  -0.1397479
           13
    1  -0.0784778
 Analysis of SCF Wavefunction
 
 --------------------------------------------------------------
                    Orbital Energies (a.u.)
 --------------------------------------------------------------
 
 Alpha MOs
 -- Occupied --
-76.590  -6.892  -5.133  -5.125  -5.125  -1.140  -0.809  -0.809
 -0.758
 -- Virtual --
 -0.164  -0.164  -0.140  -0.078  -0.078  -0.076  -0.030  -0.013
 -0.013  -0.011  -0.011  -0.004   0.066   0.147   0.147   0.172
  0.221   0.221   0.344   0.359   0.359   0.486   0.490   0.490
  0.500   0.532   0.622   0.622   0.622   0.645   0.645   0.752
  0.771   0.771   0.897   0.923   0.923   1.082   1.142   1.142
  1.209   1.287   1.295   1.295   1.424   1.424   2.555   2.555
  2.641   2.641   2.652   2.679   2.696   2.751   2.751   2.975
  3.766   3.767   3.767   3.800   3.801   3.826   3.876   3.892
  3.894   3.939   3.939   4.142   4.797   4.798   6.827  12.719
 12.736  12.736  21.059  21.108  21.220  21.459  21.503  27.978
 27.981  27.987  27.993  28.011  28.015  28.015 163.743
 
 Beta MOs
 -- Occupied --
-76.585  -6.886  -5.121  -5.121  -5.121  -1.097  -0.796  -0.796
 -- Virtual --
 -0.382  -0.141  -0.141  -0.140  -0.078  -0.078  -0.072  -0.011
 -0.011  -0.011  -0.002   0.002   0.002   0.075   0.148   0.148
  0.182   0.228   0.228   0.350   0.363   0.363   0.488   0.497
  0.497   0.505   0.537   0.635   0.635   0.646   0.659   0.659
  0.758   0.775   0.775   0.901   0.927   0.927   1.087   1.145
  1.145   1.216   1.301   1.301   1.307   1.436   1.436   2.568
  2.568   2.662   2.671   2.671   2.705   2.712   2.770   2.770
  2.986   3.777   3.777   3.779   3.809   3.810   3.836   3.890
  3.903   3.904   3.950   3.950   4.154   4.809   4.810   6.838
 12.734  12.740  12.740  21.071  21.113  21.226  21.468  21.511
 27.983  27.985  27.992  27.996  28.014  28.019  28.019 163.749
 --------------------------------------------------------------
 
          Ground-State Mulliken Net Atomic Charges

     Atom                 Charge (a.u.)    Spin (a.u.)
  --------------------------------------------------------
      1 P                     0.511881       0.863215
      2 H                     0.162722       0.045610
      3 H                     0.162700       0.045586
      4 H                     0.162697       0.045588
  --------------------------------------------------------
  Sum of atomic charges =     1.000000
  Sum of spin   charges =     1.000000

 -----------------------------------------------------------------
                    Cartesian Multipole Moments
 -----------------------------------------------------------------
    Charge (ESU x 10^10)
                 4.8032
    Dipole Moment (Debye)
         X       0.0000      Y       0.0000      Z      -0.9087
       Tot       0.9087
    Quadrupole Moments (Debye-Ang)
        XX     -10.6268     XY       0.0000     YY     -10.6268
        XZ       0.0000     YZ       0.0000     ZZ     -10.0560
    Octapole Moments (Debye-Ang^2)
       XXX       1.1501    XXY       0.0000    XYY      -1.1502
       YYY       0.0000    XXZ       0.1768    XYZ       0.0000
       YYZ       0.1767    XZZ      -0.0001    YZZ       0.0000
       ZZZ       3.7101
    Hexadecapole Moments (Debye-Ang^3)
      XXXX     -20.7870   XXXY       0.0000   XXYY      -6.9290
      XYYY       0.0000   YYYY     -20.7870   XXXZ      -1.6697
      XXYZ       0.0000   XYYZ       1.6698   YYYZ       0.0000
      XXZZ      -5.3419   XYZZ       0.0000   YYZZ      -5.3418
      XZZZ       0.0000   YZZZ       0.0000   ZZZZ     -19.0984
 -----------------------------------------------------------------
 Total job time:  22.87s(wall), 15.26s(cpu) 
 Tue Apr 12 20:36:36 2011

        *************************************************************
        *                                                           *
        *  Thank you very much for using Q-Chem.  Have a nice day.  *
        *                                                           *
        *************************************************************


0 sent ACK to 0 
now end server 0 ... 
