Process 0 of 1 is on cl052.stfx.acenet.ca - thread support 1
initial socket setup ...start
initial socket setup ...done 
now start server 0 ... 

cmd = /usr/bin/ssh clhead /usr/local/qchem/bin/get_hostid 126075733 > /scratch/tmp/5956679.1.short.q/qchem21366/lic.dat
                  Welcome to Q-Chem
     A Quantum Leap Into The Future Of Chemistry

 Y. Shao, L. Fusti-Molnar, Y. Jung, J. Kussmann, C. Ochsenfeld,
 S. T. Brown, A. T. B. Gilbert, L. V. Slipchenko,S. V. Levchenko,
 D. P. O'Neill, R. A. DiStasio Jr., R. C. Lochan, T. Wang,
 G. J. O. Beran, N. A. Besley, J. M. Herbert, C. Y. Lin,
 T. Van Voorhis, S. H. Chien, A. Sodt, R. P. Steele, 
 V. A. Rassolov, P. E. Maslen, P. P. Korambath, R. D. Adamson,
 B. Austin, J. Baker, E. F. C. Byrd, H. Dachsel, R. J. Doerksen,
 A. Dreuw, B. D. Dunietz, A. D. Dutoi, T. R. Furlani,
 S. R. Gwaltney, A. Heyden, S. Hirata, C.-P. Hsu, G. Kedziora,
 R. Z. Khaliullin, P. Klunzinger, A. M. Lee, M. S. Lee, W. Liang,
 I. Lotan, N. Nair, B. Peters, E. I. Proynov, P. A. Pieniazek, 
 Y. M. Rhee, J. Ritchie, E. Rosta, C. D. Sherrill, 
 A. C. Simmonett, J. E. Subotnik, H. L. Woodcock III,
 W. Zhang, A. T. Bell, A. K. Chakraborty, D. M. Chipman,
 F. J. Keil, A. Warshel, W. J. Hehre, H. F. Schaefer III,
 J. Kong, A. I. Krylov, P. M. W. Gill, M. Head-Gordon,
 Q-Chem, Version 3.1, Q-Chem, Inc., Pittsburgh, PA (2007).

 Additional authors for Version 3.1: 
 Z. Gan, Y. Zhao, N. E. Schultz, D. Truhlar, E. Epifanovsky and M. Oana.

 Additional authors for Version 3.2: 
 R. Baer, B. R. Brooks, D. Casanova, J.-D. Chai, C.-L. Cheng, 
 C. Cramer, D. Crittenden, A. Ghysels, G. Hawkins, E. G. Hohenstein, 
 C. Kelley, W. Kurlancheek, D. Liotard, E. Livshits, P. Manohar, 
 A. Marenich, D. Neuhauser, R. Olson, M. A. Rohrdanz, K. S. Thanthiriwatte, 
 A. J. W. Thom, V. Vanovschi, C. F. Williams, Q. Wu and Z.-Q. You. 


 Intel X86 Linux Version

 Q-chem begins on Tue Apr 30 23:11:34 2013  

 Parallel job on  1  processors
Processing $rem in /usr/local/qchem/config/preferences.

theFileMan(): MAXOPENFILES=974 MAX_SUB_FILE_NUM=16
Maximum size of a physical file is 2.0 GB, maximum size of a tmp-file is 32.0 GB


--------------------------------------------------------------
User input:
--------------------------------------------------------------

$molecule
-1,1
N
O,1,NO
O,1,NO,2,ONO

 NO=1.20310253
 ONO=133.83428219


$end

$comment
negative
$end

$xc_functional
C PBE   1.00
X wPBE  1.00
$end

$rem
SYMMETRY_DECOMPOSITION	0
exchange 		general
LRC_DFT                 true
BASIS                   g3large
omega			250
mem_static              760
max_scf_cycles          200
scf_final_print         1
sym_ignore              true
$end

--------------------------------------------------------------
 Writing REM_CC_EA            3
 ----------------------------------------------------
       Standard Nuclear Orientation (Angstroms)
    I     Atom         X            Y            Z
 ----------------------------------------------------
    1      N       0.000000     0.000000     0.000000
    2      O       0.000000     0.000000     1.203103
    3      O       0.867853     0.000000    -0.833239
 ----------------------------------------------------
 Nuclear Repulsion Energy =    64.5624403542 hartrees
 There are       12 alpha and       12 beta electrons
 Requested basis set is G3large
 There are 30 shells and 126 basis functions

Total QAlloc Memory Limit   2000 MB
Mega-Array Size       743 MB
MEM_STATIC part       760 MB

                       Distance Matrix (Angstroms)
             N (  1)   O (  2)
   O (  2)  1.203103
   O (  3)  1.203103  2.213561
 
 A cutoff of  1.0D-08 yielded    433 shell pairs
 There are   7808 function pairs ( 10265 Cartesian)
Evaluating contribution to one-electron hamiltonian from nuclear
 Smallest overlap matrix eigenvalue = 1.59E-03
 Multipole matrices computed through 2nd order

  Scale SEOQF with 1.000000e-01/1.000000e-01/1.000000e-01

 Standard Electronic Orientation quadrupole field applied
 Nucleus-field energy     =    -0.0000000016 hartrees
 Guess from superposition of atomic densities
 Warning:  Energy on first SCF cycle will be non-variational
 Long-range K will be added via erf
 Coulomb attenuation parameter = 0.25 bohr**(-1)
 A restricted Kohn-Sham SCF calculation will be
 performed using Pulay DIIS extrapolation
 Exchange:  wPBE + LR-HF      Correlation:  PBE
 Using SG-1 standard quadrature grid
 SCF converges when DIIS error is below 1.0E-05
 Requested basis set is G3large
 There are 30 shells and 126 basis functions
 A cutoff of  1.0D-08 yielded    433 shell pairs
 There are   7808 function pairs ( 10265 Cartesian)
 Warning!  Inaccurate integrated density:
   Number of electrons =    24
   Numerical integral  =    23.000032844356
   Relative error      =    -4.1665298152 %
 ---------------------------------------
  Cycle       Energy         DIIS Error
 ---------------------------------------
    1    -205.6061292268      4.53E-02
    2    -204.8828553239      1.04E-02
    3    -204.8253298107      1.34E-02
    4    -205.0405872660      1.21E-03
    5    -205.0423576197      4.27E-04
    6    -205.0427543029      2.28E-04
    7    -205.0428461247      1.49E-04
    8    -205.0428886135      3.33E-05
    9    -205.0428979206      8.12E-06 Convergence criterion met
 ---------------------------------------
 One-Electron    Energy =  -415.2538304713
 Total Coulomb   Energy =   169.7354303920
 Alpha Exchange  Energy =    -1.6102986088
 Beta  Exchange  Energy =    -1.6102986088
 DFT   Exchange  Energy =   -20.0579517584
 DFT Correlation Energy =    -0.8083892179
 Nuclear Repu.   Energy =    64.5624403526
 Nuclear Attr.   Energy =  -620.1066693064
 Kinetic         Energy =   204.8528388350
 SCF time:  CPU 23.06 s  wall 23.86 s
 Final Alpha MO Eigenvalues
            1           2           3           4           5           6
    1 -18.6628822 -18.6628663 -14.0114019  -1.0078496  -0.8647634  -0.4324692
            7           8           9          10          11          12
    1  -0.3394655  -0.3375537  -0.3196721  -0.1586618  -0.1416708  -0.0226163
           13          14          15          16          17
    1   0.2848599   0.2859764   0.3001541   0.3355687   0.3364984
 Analysis of SCF Wavefunction
 
 --------------------------------------------------------------
                    Orbital Energies (a.u.)
 --------------------------------------------------------------
 
 Alpha MOs
 -- Occupied --
-18.663 -18.663 -14.011  -1.008  -0.865  -0.432  -0.339  -0.338
 -0.320  -0.159  -0.142  -0.023
 -- Virtual --
  0.285   0.286   0.300   0.336   0.336   0.426   0.429   0.445
  0.464   0.481   0.498   0.582   0.627   0.638   0.804   1.029
  1.035   1.080   1.171   1.262   1.266   1.306   1.308   1.314
  1.371   1.380   1.393   1.413   1.729   1.788   1.800   1.828
  1.866   1.902   1.983   2.156   2.326   2.491   2.565   2.694
  2.717   2.876   3.776   3.791   3.899   3.944   3.955   3.999
  4.252   4.263   4.644   4.654   4.723   4.814   4.884   4.953
  5.012   5.197   5.197   5.225   5.273   5.281   5.320   5.323
  5.338   5.553   5.651   5.710   5.731   5.774   5.938   6.368
  6.651   6.976   6.985   6.997   7.028   7.098   7.246   7.273
  7.366   7.373   7.448   7.640   7.846   8.001   8.304  36.016
 37.476  37.663  38.509  40.534  40.623  40.686  40.818  40.917
 43.813  43.827  43.869  43.880  43.917  43.974  43.980  44.014
 44.094  44.154  45.816  45.826  45.837  45.968  46.454  46.800
 50.161  50.209
 --------------------------------------------------------------
 
          Ground-State Mulliken Net Atomic Charges

     Atom                 Charge (a.u.)
  ----------------------------------------
      1 N                    -1.018418
      2 O                     0.009149
      3 O                     0.009269
  ----------------------------------------
  Sum of atomic charges =    -1.000000

 -----------------------------------------------------------------
                    Cartesian Multipole Moments
 -----------------------------------------------------------------
    Charge (ESU x 10^10)
                -4.8032
    Dipole Moment (Debye)
         X      -1.5072      Y       0.0000      Z      -0.6422
       Tot       1.6384
    Quadrupole Moments (Debye-Ang)
        XX     -23.4095     XY      -0.0004     YY     -18.9025
        XZ       0.9118     YZ      -0.0003     ZZ     -25.1605
    Octapole Moments (Debye-Ang^2)
       XXX     -20.3222    XXY      -0.0003    XYY      -5.4380
       YYY      -0.0003    XXZ      -0.9783    XYZ      -0.0001
       YYZ      -2.3170    XZZ      -7.7925    YZZ      -0.0006
       ZZZ     -11.0025
    Hexadecapole Moments (Debye-Ang^3)
      XXXX     -65.4693   XXXY      -0.0009   XXYY     -14.2029
      XYYY      -0.0007   YYYY     -24.3830   XXXZ      12.8973
      XXYZ      -0.0001   XYYZ       3.6971   YYYZ      -0.0005
      XXZZ     -29.5537   XYZZ      -0.0006   YYZZ     -21.3021
      XZZZ      11.3867   YZZZ      -0.0012   ZZZZ    -112.1003
 -----------------------------------------------------------------
 Total job time:  24.08s(wall), 23.21s(cpu) 
 Tue Apr 30 23:11:59 2013

        *************************************************************
        *                                                           *
        *  Thank you very much for using Q-Chem.  Have a nice day.  *
        *                                                           *
        *************************************************************


0 sent ACK to 0 
now end server 0 ... 
 
**********************************************************************
Job 2 of 3 
**********************************************************************
 
Process 0 of 1 is on cl052.stfx.acenet.ca - thread support 1
initial socket setup ...start
initial socket setup ...done 
now start server 0 ... 

cmd = /usr/bin/ssh clhead /usr/local/qchem/bin/get_hostid 1583576191 > /scratch/tmp/5956679.1.short.q/qchem21366/lic.dat
                  Welcome to Q-Chem
     A Quantum Leap Into The Future Of Chemistry

 Y. Shao, L. Fusti-Molnar, Y. Jung, J. Kussmann, C. Ochsenfeld,
 S. T. Brown, A. T. B. Gilbert, L. V. Slipchenko,S. V. Levchenko,
 D. P. O'Neill, R. A. DiStasio Jr., R. C. Lochan, T. Wang,
 G. J. O. Beran, N. A. Besley, J. M. Herbert, C. Y. Lin,
 T. Van Voorhis, S. H. Chien, A. Sodt, R. P. Steele, 
 V. A. Rassolov, P. E. Maslen, P. P. Korambath, R. D. Adamson,
 B. Austin, J. Baker, E. F. C. Byrd, H. Dachsel, R. J. Doerksen,
 A. Dreuw, B. D. Dunietz, A. D. Dutoi, T. R. Furlani,
 S. R. Gwaltney, A. Heyden, S. Hirata, C.-P. Hsu, G. Kedziora,
 R. Z. Khaliullin, P. Klunzinger, A. M. Lee, M. S. Lee, W. Liang,
 I. Lotan, N. Nair, B. Peters, E. I. Proynov, P. A. Pieniazek, 
 Y. M. Rhee, J. Ritchie, E. Rosta, C. D. Sherrill, 
 A. C. Simmonett, J. E. Subotnik, H. L. Woodcock III,
 W. Zhang, A. T. Bell, A. K. Chakraborty, D. M. Chipman,
 F. J. Keil, A. Warshel, W. J. Hehre, H. F. Schaefer III,
 J. Kong, A. I. Krylov, P. M. W. Gill, M. Head-Gordon,
 Q-Chem, Version 3.1, Q-Chem, Inc., Pittsburgh, PA (2007).

 Additional authors for Version 3.1: 
 Z. Gan, Y. Zhao, N. E. Schultz, D. Truhlar, E. Epifanovsky and M. Oana.

 Additional authors for Version 3.2: 
 R. Baer, B. R. Brooks, D. Casanova, J.-D. Chai, C.-L. Cheng, 
 C. Cramer, D. Crittenden, A. Ghysels, G. Hawkins, E. G. Hohenstein, 
 C. Kelley, W. Kurlancheek, D. Liotard, E. Livshits, P. Manohar, 
 A. Marenich, D. Neuhauser, R. Olson, M. A. Rohrdanz, K. S. Thanthiriwatte, 
 A. J. W. Thom, V. Vanovschi, C. F. Williams, Q. Wu and Z.-Q. You. 


 Intel X86 Linux Version

 Q-chem begins on Tue Apr 30 23:12:01 2013  

 Parallel job on  1  processors
Processing $rem in /usr/local/qchem/config/preferences.

theFileMan(): MAXOPENFILES=974 MAX_SUB_FILE_NUM=16
Maximum size of a physical file is 2.0 GB, maximum size of a tmp-file is 32.0 GB


--------------------------------------------------------------
User input:
--------------------------------------------------------------

$molecule
0,2
N
O,1,NO
O,1,NO,2,ONO

 NO=1.20310253
 ONO=133.83428219


$end

$comment
neutral
$end

$xc_functional
C PBE   1.00
X wPBE  1.00
$end


$rem
SYMMETRY_DECOMPOSITION	0
LRC_DFT                 true
exchange 		general
BASIS                   g3large
omega			250
mem_static              760
max_scf_cycles          200
scf_final_print         1
sym_ignore              true
$end

--------------------------------------------------------------
 Writing REM_CC_EA            3
 ----------------------------------------------------
       Standard Nuclear Orientation (Angstroms)
    I     Atom         X            Y            Z
 ----------------------------------------------------
    1      N       0.000000     0.000000     0.000000
    2      O       0.000000     0.000000     1.203103
    3      O       0.867853     0.000000    -0.833239
 ----------------------------------------------------
 Nuclear Repulsion Energy =    64.5624403542 hartrees
 There are       12 alpha and       11 beta electrons
 Requested basis set is G3large
 There are 30 shells and 126 basis functions

Total QAlloc Memory Limit   2000 MB
Mega-Array Size       743 MB
MEM_STATIC part       760 MB

                       Distance Matrix (Angstroms)
             N (  1)   O (  2)
   O (  2)  1.203103
   O (  3)  1.203103  2.213561
 
 A cutoff of  1.0D-08 yielded    433 shell pairs
 There are   7808 function pairs ( 10265 Cartesian)
Evaluating contribution to one-electron hamiltonian from nuclear
 Smallest overlap matrix eigenvalue = 1.59E-03
 Multipole matrices computed through 2nd order

  Scale SEOQF with 1.000000e-01/1.000000e-01/1.000000e-01

 Standard Electronic Orientation quadrupole field applied
 Nucleus-field energy     =    -0.0000000016 hartrees
 Guess from superposition of atomic densities
 Warning:  Energy on first SCF cycle will be non-variational
 Long-range K will be added via erf
 Coulomb attenuation parameter = 0.25 bohr**(-1)
 An unrestricted Kohn-Sham SCF calculation will be
 performed using Pulay DIIS extrapolation
 Exchange:  wPBE + LR-HF      Correlation:  PBE
 Using SG-1 standard quadrature grid
 SCF converges when DIIS error is below 1.0E-05
 Requested basis set is G3large
 There are 30 shells and 126 basis functions
 A cutoff of  1.0D-08 yielded    433 shell pairs
 There are   7808 function pairs ( 10265 Cartesian)
 ---------------------------------------
  Cycle       Energy         DIIS Error
 ---------------------------------------
    1    -205.6061292268      4.53E-02
    2    -204.8427552454      1.00E-02
    3    -204.6626171331      1.60E-02
    4    -204.9924318823      7.70E-04
    5    -204.9931624253      2.38E-04
    6    -204.9932696992      1.52E-04
    7    -204.9933083423      7.54E-05
    8    -204.9933302598      2.74E-05
    9    -204.9933426770      1.15E-05
   10    -204.9933109435      5.92E-06 Convergence criterion met
 ---------------------------------------
 One-Electron    Energy =  -407.9471353548
 Total Coulomb   Energy =   162.1600511562
 Alpha Exchange  Energy =    -1.6208766365
 Beta  Exchange  Energy =    -1.4797681371
 DFT   Exchange  Energy =   -19.8901563939
 DFT Correlation Energy =    -0.7778659299
 Nuclear Repu.   Energy =    64.5624403526
 Nuclear Attr.   Energy =  -612.4235434517
 Kinetic         Energy =   204.4764080968
 <S^2> = 0.7526
 SCF time:  CPU 30.29 s  wall 31.31 s
 Final Alpha MO Eigenvalues
            1           2           3           4           5           6
    1 -18.9989548 -18.9987702 -14.3642347  -1.3362706  -1.1943788  -0.7513977
            7           8           9          10          11          12
    1  -0.6549193  -0.6544951  -0.6506885  -0.4629803  -0.4605553  -0.3687360
           13          14          15          16          17
    1  -0.0270217   0.0905357   0.1288038   0.1426384   0.1454603
 Final Beta MO Eigenvalues
            1           2           3           4           5           6
    1 -18.9911931 -18.9910852 -14.3552327  -1.3219451  -1.1778870  -0.7240531
            7           8           9          10          11          12
    1  -0.6447711  -0.6317218  -0.6193297  -0.4565166  -0.4275508  -0.0837667
           13          14          15          16
    1  -0.0119426   0.0963401   0.1307336   0.1474550
 Analysis of SCF Wavefunction
 
 --------------------------------------------------------------
                    Orbital Energies (a.u.)
 --------------------------------------------------------------
 
 Alpha MOs
 -- Occupied --
-18.999 -18.999 -14.364  -1.336  -1.194  -0.751  -0.655  -0.654
 -0.651  -0.463  -0.461  -0.369
 -- Virtual --
 -0.027   0.091   0.129   0.143   0.145   0.223   0.238   0.253
  0.263   0.285   0.312   0.314   0.377   0.424   0.482   0.747
  0.763   0.808   0.895   0.954   0.998   1.028   1.047   1.051
  1.102   1.104   1.117   1.123   1.429   1.494   1.527   1.554
  1.555   1.596   1.680   1.847   2.035   2.176   2.266   2.404
  2.423   2.564   3.440   3.458   3.571   3.609   3.626   3.681
  3.930   3.937   4.308   4.327   4.396   4.488   4.541   4.602
  4.664   4.874   4.889   4.905   4.956   4.972   5.000   5.002
  5.009   5.236   5.323   5.398   5.409   5.454   5.615   6.029
  6.331   6.650   6.656   6.662   6.699   6.772   6.913   6.942
  7.053   7.057   7.133   7.314   7.531   7.678   7.963  35.665
 37.127  37.301  38.161  40.177  40.266  40.340  40.465  40.565
 43.475  43.490  43.533  43.539  43.576  43.644  43.645  43.672
 43.757  43.817  45.476  45.494  45.506  45.626  46.117  46.465
 49.826  49.874
 
 Beta MOs
 -- Occupied --
-18.991 -18.991 -14.355  -1.322  -1.178  -0.724  -0.645  -0.632
 -0.619  -0.457  -0.428
 -- Virtual --
 -0.084  -0.012   0.096   0.131   0.147   0.148   0.228   0.240
  0.254   0.269   0.287   0.316   0.320   0.382   0.429   0.508
  0.770   0.772   0.812   0.911   0.971   1.007   1.048   1.055
  1.057   1.108   1.119   1.127   1.130   1.441   1.501   1.536
  1.564   1.574   1.616   1.690   1.862   2.039   2.201   2.279
  2.416   2.433   2.589   3.470   3.486   3.585   3.634   3.650
  3.690   3.939   3.955   4.331   4.338   4.410   4.500   4.578
  4.643   4.700   4.895   4.897   4.920   4.974   4.981   5.021
  5.024   5.036   5.256   5.344   5.407   5.427   5.471   5.629
  6.059   6.339   6.672   6.683   6.693   6.726   6.787   6.945
  6.955   7.062   7.069   7.146   7.342   7.547   7.696   7.991
 35.675  37.134  37.325  38.167  40.194  40.283  40.341  40.476
 40.575  43.489  43.503  43.544  43.557  43.595  43.646  43.655
 43.693  43.770  43.830  45.492  45.499  45.510  45.646  46.129
 46.474  49.834  49.883
 --------------------------------------------------------------
 
          Ground-State Mulliken Net Atomic Charges

     Atom                 Charge (a.u.)    Spin (a.u.)
  --------------------------------------------------------
      1 N                     0.004119       0.460548
      2 O                    -0.002161       0.268612
      3 O                    -0.001957       0.270840
  --------------------------------------------------------
  Sum of atomic charges =     0.000000
  Sum of spin   charges =     1.000000

 -----------------------------------------------------------------
                    Cartesian Multipole Moments
 -----------------------------------------------------------------
    Charge (ESU x 10^10)
                 0.0000
    Dipole Moment (Debye)
         X      -0.2956      Y       0.0000      Z      -0.1266
       Tot       0.3215
    Quadrupole Moments (Debye-Ang)
        XX     -16.3057     XY       0.0000     YY     -14.9947
        XZ       0.6992     YZ      -0.0001     ZZ     -17.6499
    Octapole Moments (Debye-Ang^2)
       XXX     -13.9755    XXY      -0.0001    XYY      -4.4038
       YYY       0.0000    XXZ      -1.6987    XYZ       0.0000
       YYZ      -1.8764    XZZ      -4.8133    YZZ       0.0000
       ZZZ      -6.3123
    Hexadecapole Moments (Debye-Ang^3)
      XXXX     -37.4748   XXXY      -0.0002   XXYY      -8.0885
      XYYY       0.0000   YYYY     -11.7888   XXXZ      11.5778
      XXYZ       0.0000   XYYZ       3.8504   YYYZ      -0.0002
      XXZZ     -20.0049   XYZZ       0.0001   YYZZ     -15.4821
      XZZZ      11.8627   YZZZ      -0.0005   ZZZZ     -82.4954
 -----------------------------------------------------------------
 Total job time:  31.45s(wall), 30.42s(cpu) 
 Tue Apr 30 23:12:33 2013

        *************************************************************
        *                                                           *
        *  Thank you very much for using Q-Chem.  Have a nice day.  *
        *                                                           *
        *************************************************************


0 sent ACK to 0 
now end server 0 ... 
 
**********************************************************************
Job 3 of 3 
**********************************************************************
 
Process 0 of 1 is on cl052.stfx.acenet.ca - thread support 1
initial socket setup ...start
initial socket setup ...done 
now start server 0 ... 

cmd = /usr/bin/ssh clhead /usr/local/qchem/bin/get_hostid 912765868 > /scratch/tmp/5956679.1.short.q/qchem21366/lic.dat
                  Welcome to Q-Chem
     A Quantum Leap Into The Future Of Chemistry

 Y. Shao, L. Fusti-Molnar, Y. Jung, J. Kussmann, C. Ochsenfeld,
 S. T. Brown, A. T. B. Gilbert, L. V. Slipchenko,S. V. Levchenko,
 D. P. O'Neill, R. A. DiStasio Jr., R. C. Lochan, T. Wang,
 G. J. O. Beran, N. A. Besley, J. M. Herbert, C. Y. Lin,
 T. Van Voorhis, S. H. Chien, A. Sodt, R. P. Steele, 
 V. A. Rassolov, P. E. Maslen, P. P. Korambath, R. D. Adamson,
 B. Austin, J. Baker, E. F. C. Byrd, H. Dachsel, R. J. Doerksen,
 A. Dreuw, B. D. Dunietz, A. D. Dutoi, T. R. Furlani,
 S. R. Gwaltney, A. Heyden, S. Hirata, C.-P. Hsu, G. Kedziora,
 R. Z. Khaliullin, P. Klunzinger, A. M. Lee, M. S. Lee, W. Liang,
 I. Lotan, N. Nair, B. Peters, E. I. Proynov, P. A. Pieniazek, 
 Y. M. Rhee, J. Ritchie, E. Rosta, C. D. Sherrill, 
 A. C. Simmonett, J. E. Subotnik, H. L. Woodcock III,
 W. Zhang, A. T. Bell, A. K. Chakraborty, D. M. Chipman,
 F. J. Keil, A. Warshel, W. J. Hehre, H. F. Schaefer III,
 J. Kong, A. I. Krylov, P. M. W. Gill, M. Head-Gordon,
 Q-Chem, Version 3.1, Q-Chem, Inc., Pittsburgh, PA (2007).

 Additional authors for Version 3.1: 
 Z. Gan, Y. Zhao, N. E. Schultz, D. Truhlar, E. Epifanovsky and M. Oana.

 Additional authors for Version 3.2: 
 R. Baer, B. R. Brooks, D. Casanova, J.-D. Chai, C.-L. Cheng, 
 C. Cramer, D. Crittenden, A. Ghysels, G. Hawkins, E. G. Hohenstein, 
 C. Kelley, W. Kurlancheek, D. Liotard, E. Livshits, P. Manohar, 
 A. Marenich, D. Neuhauser, R. Olson, M. A. Rohrdanz, K. S. Thanthiriwatte, 
 A. J. W. Thom, V. Vanovschi, C. F. Williams, Q. Wu and Z.-Q. You. 


 Intel X86 Linux Version

 Q-chem begins on Tue Apr 30 23:12:36 2013  

 Parallel job on  1  processors
Processing $rem in /usr/local/qchem/config/preferences.

theFileMan(): MAXOPENFILES=974 MAX_SUB_FILE_NUM=16
Maximum size of a physical file is 2.0 GB, maximum size of a tmp-file is 32.0 GB


--------------------------------------------------------------
User input:
--------------------------------------------------------------

$molecule
1,1
N
O,1,NO
O,1,NO,2,ONO

 NO=1.20310253
 ONO=133.83428219


$end

$comment
positive
$end

$xc_functional
C PBE   1.00
X wPBE  1.00
$end

$rem
SYMMETRY_DECOMPOSITION	0
LRC_DFT                 true
exchange 		general
BASIS                   g3large
omega			250
mem_static              760
max_scf_cycles          200
scf_final_print         1
sym_ignore              true
$end

--------------------------------------------------------------
 Writing REM_CC_EA            3
 ----------------------------------------------------
       Standard Nuclear Orientation (Angstroms)
    I     Atom         X            Y            Z
 ----------------------------------------------------
    1      N       0.000000     0.000000     0.000000
    2      O       0.000000     0.000000     1.203103
    3      O       0.867853     0.000000    -0.833239
 ----------------------------------------------------
 Nuclear Repulsion Energy =    64.5624403542 hartrees
 There are       11 alpha and       11 beta electrons
 Requested basis set is G3large
 There are 30 shells and 126 basis functions

Total QAlloc Memory Limit   2000 MB
Mega-Array Size       743 MB
MEM_STATIC part       760 MB

                       Distance Matrix (Angstroms)
             N (  1)   O (  2)
   O (  2)  1.203103
   O (  3)  1.203103  2.213561
 
 A cutoff of  1.0D-08 yielded    433 shell pairs
 There are   7808 function pairs ( 10265 Cartesian)
Evaluating contribution to one-electron hamiltonian from nuclear
 Smallest overlap matrix eigenvalue = 1.59E-03
 Multipole matrices computed through 2nd order

  Scale SEOQF with 1.000000e-01/1.000000e-01/1.000000e-01

 Standard Electronic Orientation quadrupole field applied
 Nucleus-field energy     =    -0.0000000016 hartrees
 Guess from superposition of atomic densities
 Warning:  Energy on first SCF cycle will be non-variational
 Long-range K will be added via erf
 Coulomb attenuation parameter = 0.25 bohr**(-1)
 A restricted Kohn-Sham SCF calculation will be
 performed using Pulay DIIS extrapolation
 Exchange:  wPBE + LR-HF      Correlation:  PBE
 Using SG-1 standard quadrature grid
 SCF converges when DIIS error is below 1.0E-05
 Requested basis set is G3large
 There are 30 shells and 126 basis functions
 A cutoff of  1.0D-08 yielded    433 shell pairs
 There are   7808 function pairs ( 10265 Cartesian)
 Warning!  Inaccurate integrated density:
   Number of electrons =    22
   Numerical integral  =    23.000032844356
   Relative error      =     4.5456038380 %
 ---------------------------------------
  Cycle       Energy         DIIS Error
 ---------------------------------------
    1    -205.6061292268      4.53E-02
    2    -204.3033356264      1.26E-02
    3    -203.9712130085      2.19E-02
    4    -204.5632433640      2.00E-03
    5    -204.5661205962      1.14E-03
    6    -204.5658689252      1.20E-03
    7    -204.5678865379      8.27E-05
    8    -204.5678470694      2.73E-05
    9    -204.5678517221      1.03E-05
   10    -204.5678532252      2.73E-06 Convergence criterion met
 ---------------------------------------
 One-Electron    Energy =  -399.3340672790
 Total Coulomb   Energy =   153.5129167720
 Alpha Exchange  Energy =    -1.4826823966
 Beta  Exchange  Energy =    -1.4826823966
 DFT   Exchange  Energy =   -19.5999415202
 DFT Correlation Energy =    -0.7438367574
 Nuclear Repu.   Energy =    64.5624403526
 Nuclear Attr.   Energy =  -603.0926919679
 Kinetic         Energy =   203.7586246889
 SCF time:  CPU 25.37 s  wall 26.05 s
 Final Alpha MO Eigenvalues
            1           2           3           4           5           6
    1 -19.4052511 -19.4052139 -14.7733624  -1.7066477  -1.5662881  -1.0987525
            7           8           9          10          11          12
    1  -1.0110616  -1.0077429  -1.0005094  -0.8161398  -0.8036098  -0.4845024
           13          14          15          16
    1  -0.3810428  -0.1286170  -0.0703579  -0.0587765
 Analysis of SCF Wavefunction
 
 --------------------------------------------------------------
                    Orbital Energies (a.u.)
 --------------------------------------------------------------
 
 Alpha MOs
 -- Occupied --
-19.405 -19.405 -14.773  -1.707  -1.566  -1.099  -1.011  -1.008
 -1.001  -0.816  -0.804
 -- Virtual --
 -0.485  -0.381  -0.129  -0.070  -0.059  -0.059  -0.054   0.033
  0.039   0.049   0.072   0.083   0.118   0.126   0.146   0.211
  0.464   0.477   0.520   0.597   0.627   0.709   0.737   0.751
  0.773   0.777   0.819   0.832   0.842   1.101   1.166   1.219
  1.230   1.258   1.269   1.343   1.512   1.707   1.846   1.941
  2.086   2.097   2.236   3.092   3.110   3.211   3.255   3.271
  3.325   3.568   3.581   3.943   3.957   4.030   4.125   4.178
  4.240   4.302   4.516   4.532   4.544   4.603   4.621   4.648
  4.650   4.652   4.884   4.963   5.043   5.053   5.096   5.253
  5.663   5.965   6.284   6.290   6.296   6.333   6.406   6.548
  6.566   6.693   6.696   6.772   6.955   7.175   7.313   7.591
 35.261  36.722  36.899  37.755  39.772  39.861  39.932  40.058
 40.157  43.074  43.089  43.132  43.139  43.175  43.241  43.244
 43.273  43.356  43.416  45.074  45.091  45.103  45.225  45.715
 46.064  49.424  49.472
 --------------------------------------------------------------
 
          Ground-State Mulliken Net Atomic Charges

     Atom                 Charge (a.u.)
  ----------------------------------------
      1 N                     0.279541
      2 O                     0.360237
      3 O                     0.360222
  ----------------------------------------
  Sum of atomic charges =     1.000000

 -----------------------------------------------------------------
                    Cartesian Multipole Moments
 -----------------------------------------------------------------
    Charge (ESU x 10^10)
                 4.8032
    Dipole Moment (Debye)
         X       0.9818      Y       0.0000      Z       0.4184
       Tot       1.0673
    Quadrupole Moments (Debye-Ang)
        XX     -11.7354     XY       0.0000     YY     -13.0031
        XZ      -0.4046     YZ      -0.0001     ZZ     -10.9584
    Octapole Moments (Debye-Ang^2)
       XXX      -9.8814    XXY       0.0000    XYY      -3.8383
       YYY       0.0000    XXZ      -2.6566    XYZ       0.0000
       YYZ      -1.6356    XZZ      -2.6250    YZZ       0.0000
       ZZZ      -2.6735
    Hexadecapole Moments (Debye-Ang^3)
      XXXX     -26.0625   XXXY       0.0000   XXYY      -6.1125
      XYYY       0.0000   YYYY      -8.5291   XXXZ       8.6293
      XXYZ       0.0000   XYYZ       3.3801   YYYZ       0.0000
      XXZZ     -14.7028   XYZZ       0.0000   YYZZ     -12.6028
      XZZZ      10.0452   YZZZ      -0.0002   ZZZZ     -61.9220
 -----------------------------------------------------------------
 Total job time:  26.19s(wall), 25.50s(cpu) 
 Tue Apr 30 23:13:02 2013

        *************************************************************
        *                                                           *
        *  Thank you very much for using Q-Chem.  Have a nice day.  *
        *                                                           *
        *************************************************************


0 sent ACK to 0 
now end server 0 ... 
