Process 0 of 1 is on cl088.stfx.acenet.ca - thread support 1
initial socket setup ...start
initial socket setup ...done 
now start server 0 ... 

cmd = /usr/bin/ssh clhead /usr/local/qchem/bin/get_hostid 662411535 > /scratch/tmp/5956629.1.short.q/qchem11864/lic.dat
                  Welcome to Q-Chem
     A Quantum Leap Into The Future Of Chemistry

 Y. Shao, L. Fusti-Molnar, Y. Jung, J. Kussmann, C. Ochsenfeld,
 S. T. Brown, A. T. B. Gilbert, L. V. Slipchenko,S. V. Levchenko,
 D. P. O'Neill, R. A. DiStasio Jr., R. C. Lochan, T. Wang,
 G. J. O. Beran, N. A. Besley, J. M. Herbert, C. Y. Lin,
 T. Van Voorhis, S. H. Chien, A. Sodt, R. P. Steele, 
 V. A. Rassolov, P. E. Maslen, P. P. Korambath, R. D. Adamson,
 B. Austin, J. Baker, E. F. C. Byrd, H. Dachsel, R. J. Doerksen,
 A. Dreuw, B. D. Dunietz, A. D. Dutoi, T. R. Furlani,
 S. R. Gwaltney, A. Heyden, S. Hirata, C.-P. Hsu, G. Kedziora,
 R. Z. Khaliullin, P. Klunzinger, A. M. Lee, M. S. Lee, W. Liang,
 I. Lotan, N. Nair, B. Peters, E. I. Proynov, P. A. Pieniazek, 
 Y. M. Rhee, J. Ritchie, E. Rosta, C. D. Sherrill, 
 A. C. Simmonett, J. E. Subotnik, H. L. Woodcock III,
 W. Zhang, A. T. Bell, A. K. Chakraborty, D. M. Chipman,
 F. J. Keil, A. Warshel, W. J. Hehre, H. F. Schaefer III,
 J. Kong, A. I. Krylov, P. M. W. Gill, M. Head-Gordon,
 Q-Chem, Version 3.1, Q-Chem, Inc., Pittsburgh, PA (2007).

 Additional authors for Version 3.1: 
 Z. Gan, Y. Zhao, N. E. Schultz, D. Truhlar, E. Epifanovsky and M. Oana.

 Additional authors for Version 3.2: 
 R. Baer, B. R. Brooks, D. Casanova, J.-D. Chai, C.-L. Cheng, 
 C. Cramer, D. Crittenden, A. Ghysels, G. Hawkins, E. G. Hohenstein, 
 C. Kelley, W. Kurlancheek, D. Liotard, E. Livshits, P. Manohar, 
 A. Marenich, D. Neuhauser, R. Olson, M. A. Rohrdanz, K. S. Thanthiriwatte, 
 A. J. W. Thom, V. Vanovschi, C. F. Williams, Q. Wu and Z.-Q. You. 


 Intel X86 Linux Version

 Q-chem begins on Tue Apr 30 23:04:18 2013  

 Parallel job on  1  processors
Processing $rem in /usr/local/qchem/config/preferences.

theFileMan(): MAXOPENFILES=974 MAX_SUB_FILE_NUM=16
Maximum size of a physical file is 2.0 GB, maximum size of a tmp-file is 32.0 GB


--------------------------------------------------------------
User input:
--------------------------------------------------------------

$molecule
-1,2
S
C,1,rcs
C,1,rcs,2,a1
C,2,rcdc,1,a2,3,0.,0
C,3,rcdc,1,a2,2,0.,0
H,2,r2h,1,a2h,3,180.,0
H,3,r2h,1,a2h,2,180.,0
H,4,r4h,2,a4h,1,180.,0
H,5,r4h,3,a4h,1,180.,0

rcs=1.7360563
rcdc=1.36739579
r2h=1.08161314
r4h=1.08474673
a1=91.51094962
a2=111.49586594
a2h=120.09583864
a4h=123.32881129

$end

$comment
negative
$end

$xc_functional
C PBE   1.00
X wPBE  1.00
$end

$rem
SYMMETRY_DECOMPOSITION	0
exchange 		general
LRC_DFT                 true
BASIS                   g3large
omega			350
mem_static              760
max_scf_cycles          200
scf_final_print         1
sym_ignore              true
$end

--------------------------------------------------------------
 Writing REM_CC_EA            9
 ----------------------------------------------------
       Standard Nuclear Orientation (Angstroms)
    I     Atom         X            Y            Z
 ----------------------------------------------------
    1      S       0.000000     0.000000     0.000000
    2      C       0.000000     0.000000     1.736056
    3      C       1.735453     0.000000    -0.045776
    4      C       1.272285     0.000000     2.237117
    5      C       2.269887     0.000000     1.212855
    6      H      -0.935799     0.000000     2.278429
    7      H       2.252962     0.000000    -0.995551
    8      H       1.494722     0.000000     3.298812
    9      H       3.337078     0.000000     1.407219
 ----------------------------------------------------
 Nuclear Repulsion Energy =   201.6744840342 hartrees
 There are       23 alpha and       22 beta electrons
 Requested basis set is G3large
 There are 83 shells and 274 basis functions

Total QAlloc Memory Limit   2000 MB
Mega-Array Size       743 MB
MEM_STATIC part       760 MB

                       Distance Matrix (Angstroms)
             S (  1)   C (  2)   C (  3)   C (  4)   C (  5)   H (  6)
   C (  2)  1.736056
   C (  3)  1.736056  2.487312
   C (  4)  2.573597  1.367396  2.329404
   C (  5)  2.573597  2.329404  1.367396  1.429798
   H (  6)  2.463119  1.081613  3.540835  2.208470  3.378145
   H (  7)  2.463119  3.540835  1.081613  3.378145  2.208470  4.570244
   H (  8)  3.621651  2.162499  3.353241  1.084747  2.225331  2.636022
   H (  9)  3.621651  3.353241  2.162499  2.225331  1.084747  4.360789
             H (  7)   H (  8)
   H (  8)  4.360789
   H (  9)  2.636022  2.640530
 
 A cutoff of  1.0D-08 yielded   3139 shell pairs
 There are  34972 function pairs ( 45281 Cartesian)
Evaluating contribution to one-electron hamiltonian from nuclear
 Smallest overlap matrix eigenvalue = 5.83E-06

 Q-Chem warning in module mkSTV.C, line 194:

 Overlap eigenvalue is smaller than square root of threshold

 Multipole matrices computed through 2nd order

  Scale SEOQF with 1.000000e-01/1.000000e-01/1.000000e-01

 Standard Electronic Orientation quadrupole field applied
 Nucleus-field energy     =    -0.0000000054 hartrees
 Guess from superposition of atomic densities
 Warning:  Energy on first SCF cycle will be non-variational
 Long-range K will be added via erf
 Coulomb attenuation parameter = 0.35 bohr**(-1)
 An unrestricted Kohn-Sham SCF calculation will be
 performed using Pulay DIIS extrapolation
 Exchange:  wPBE + LR-HF      Correlation:  PBE
 Using SG-1 standard quadrature grid
 SCF converges when DIIS error is below 1.0E-05
 Requested basis set is G3large
 There are 83 shells and 274 basis functions
 A cutoff of  1.0D-08 yielded   3139 shell pairs
 There are  34972 function pairs ( 45281 Cartesian)
 Warning!  Inaccurate integrated density:
   Number of electrons =    45
   Numerical integral  =    44.000436424003
   Relative error      =    -2.2212523911 %
 ---------------------------------------
  Cycle       Energy         DIIS Error
 ---------------------------------------
    1    -554.3836177413      2.80E-02
    2    -552.6172383005      3.25E-03
    3    -552.6705664369      2.88E-03
    4    -552.7496979065      3.66E-04
    5    -552.7520199901      1.23E-04
    6    -552.7525936948      4.58E-05
    7    -552.7527497290      2.61E-05
    8    -552.7528298492      1.46E-05
    9    -552.7528800393      1.01E-05
   10    -552.7529202186      5.94E-06 Convergence criterion met
 ---------------------------------------
 One-Electron    Energy = -1167.1722952872
 Total Coulomb   Energy =   461.6259705432
 Alpha Exchange  Energy =    -4.1040318739
 Beta  Exchange  Energy =    -3.9379614494
 DFT   Exchange  Energy =   -39.2654065934
 DFT Correlation Energy =    -1.5736795867
 Nuclear Repu.   Energy =   201.6744840289
 Nuclear Attr.   Energy = -1718.8801880312
 Kinetic         Energy =   551.7078927439
 <S^2> = 0.7721
 SCF time:  CPU 417.12 s  wall 420.82 s
 Final Alpha MO Eigenvalues
            1           2           3           4           5           6
    1 -88.0401270  -9.8723883  -9.8720784  -9.8717419  -9.8713402  -7.6751175
            7           8           9          10          11          12
    1  -5.6925452  -5.6880875  -5.6850039  -0.7896298  -0.6455792  -0.6367012
           13          14          15          16          17          18
    1  -0.4766330  -0.4621229  -0.4281199  -0.3113438  -0.2988975  -0.2903262
           19          20          21          22          23          24
    1  -0.2793151  -0.2395915  -0.1623707  -0.1524490   0.0355518   0.1518157
           25          26          27          28
    1   0.1524039   0.1605024   0.1683333   0.2183789
 Final Beta MO Eigenvalues
            1           2           3           4           5           6
    1 -88.0395343  -9.8718700  -9.8714438  -9.8667556  -9.8664158  -7.6745124
            7           8           9          10          11          12
    1  -5.6924012  -5.6879252  -5.6828301  -0.7845418  -0.6413439  -0.6277049
           13          14          15          16          17          18
    1  -0.4634515  -0.4580990  -0.4251127  -0.3087376  -0.2876292  -0.2808443
           19          20          21          22          23          24
    1  -0.2761686  -0.2330910  -0.1375449  -0.1124296   0.1523302   0.1526125
           25          26          27
    1   0.1609661   0.1685013   0.2194947
 Analysis of SCF Wavefunction
 
 --------------------------------------------------------------
                    Orbital Energies (a.u.)
 --------------------------------------------------------------
 
 Alpha MOs
 -- Occupied --
-88.040  -9.872  -9.872  -9.872  -9.871  -7.675  -5.693  -5.688
 -5.685  -0.790  -0.646  -0.637  -0.477  -0.462  -0.428  -0.311
 -0.299  -0.290  -0.279  -0.240  -0.162  -0.152   0.036
 -- Virtual --
  0.152   0.152   0.161   0.168   0.218   0.246   0.250   0.255
  0.277   0.277   0.284   0.289   0.296   0.307   0.311   0.316
  0.320   0.322   0.330   0.353   0.357   0.366   0.373   0.384
  0.407   0.411   0.421   0.461   0.515   0.529   0.532   0.532
  0.552   0.591   0.599   0.610   0.639   0.677   0.679   0.687
  0.713   0.749   0.785   0.792   0.797   0.810   0.838   0.859
  0.877   0.888   0.895   0.913   0.922   0.946   0.960   0.965
  0.998   0.999   1.000   1.007   1.020   1.041   1.060   1.095
  1.131   1.138   1.153   1.186   1.210   1.238   1.256   1.282
  1.293   1.314   1.347   1.356   1.386   1.392   1.404   1.427
  1.468   1.479   1.522   1.528   1.530   1.560   1.601   1.607
  1.618   1.627   1.645   1.689   1.692   1.716   1.718   1.757
  1.760   1.802   1.802   1.891   1.952   1.988   2.066   2.095
  2.134   2.161   2.187   2.212   2.458   2.599   2.792   2.875
  2.885   2.946   2.960   2.983   2.999   3.001   3.051   3.051
  3.119   3.124   3.141   3.143   3.177   3.190   3.206   3.232
  3.242   3.279   3.320   3.391   3.442   3.462   3.462   3.497
  3.499   3.549   3.552   3.552   3.568   3.636   3.657   3.683
  3.702   3.703   3.713   3.791   3.791   3.859   3.867   3.892
  3.898   3.903   3.918   3.918   3.969   3.971   4.003   4.007
  4.026   4.078   4.093   4.111   4.152   4.170   4.298   4.344
  4.376   4.393   4.430   4.441   4.495   4.521   4.600   4.699
  4.702   4.747   4.793   4.842   4.875   4.907   4.946   5.030
  5.060   5.071   5.195   5.286   5.290   5.340   5.571   5.609
  5.713   5.862   5.929   6.093   6.097   6.523   8.875  17.295
 17.696  17.757  23.743  23.766  23.772  23.910  23.960  23.990
 24.287  24.679  24.937  27.419  27.493  27.608  27.758  28.125
 28.259  28.309  28.387  28.486  28.612  28.741  28.805  31.084
 31.091  31.096  31.097  31.104  31.130  31.132  41.048  41.090
 41.119  41.141  41.182  41.237  41.247  41.319  41.326  41.329
 41.340  41.352  41.362  41.382  41.404  41.412  41.428  41.518
 41.587  41.692 189.428
 
 Beta MOs
 -- Occupied --
-88.040  -9.872  -9.871  -9.867  -9.866  -7.675  -5.692  -5.688
 -5.683  -0.785  -0.641  -0.628  -0.463  -0.458  -0.425  -0.309
 -0.288  -0.281  -0.276  -0.233  -0.138  -0.112
 -- Virtual --
  0.152   0.153   0.161   0.169   0.219   0.247   0.247   0.256
  0.264   0.280   0.282   0.288   0.290   0.297   0.308   0.312
  0.317   0.320   0.333   0.348   0.355   0.360   0.368   0.385
  0.387   0.410   0.411   0.428   0.462   0.518   0.532   0.533
  0.536   0.565   0.592   0.614   0.615   0.644   0.679   0.685
  0.689   0.717   0.755   0.793   0.796   0.798   0.823   0.844
  0.876   0.883   0.895   0.910   0.917   0.925   0.950   0.965
  0.974   1.001   1.002   1.008   1.018   1.025   1.045   1.064
  1.098   1.141   1.147   1.158   1.193   1.212   1.243   1.260
  1.288   1.295   1.322   1.353   1.359   1.388   1.394   1.407
  1.432   1.469   1.486   1.530   1.532   1.537   1.568   1.610
  1.612   1.620   1.631   1.649   1.694   1.706   1.719   1.728
  1.761   1.762   1.807   1.809   1.892   1.958   1.993   2.070
  2.099   2.143   2.164   2.192   2.217   2.459   2.600   2.796
  2.877   2.893   2.957   2.966   2.995   3.003   3.006   3.058
  3.067   3.124   3.142   3.148   3.151   3.191   3.203   3.211
  3.245   3.254   3.285   3.335   3.403   3.449   3.466   3.470
  3.504   3.505   3.555   3.560   3.561   3.572   3.648   3.659
  3.699   3.706   3.711   3.717   3.793   3.811   3.870   3.886
  3.896   3.904   3.912   3.924   3.931   3.975   3.980   4.012
  4.013   4.032   4.082   4.102   4.119   4.155   4.173   4.303
  4.347   4.379   4.398   4.437   4.449   4.501   4.523   4.606
  4.700   4.706   4.750   4.804   4.844   4.877   4.910   4.957
  5.031   5.064   5.076   5.197   5.287   5.293   5.341   5.575
  5.613   5.713   5.863   5.931   6.094   6.099   6.524   8.877
 17.299  17.696  17.757  23.745  23.767  23.773  23.911  23.961
 23.992  24.291  24.682  24.939  27.426  27.505  27.618  27.763
 28.126  28.263  28.312  28.390  28.487  28.614  28.743  28.805
 31.085  31.091  31.096  31.097  31.105  31.130  31.132  41.054
 41.099  41.125  41.146  41.183  41.238  41.250  41.324  41.330
 41.331  41.346  41.361  41.371  41.384  41.410  41.417  41.430
 41.519  41.589  41.692 189.428
 --------------------------------------------------------------
 
          Ground-State Mulliken Net Atomic Charges

     Atom                 Charge (a.u.)    Spin (a.u.)
  --------------------------------------------------------
      1 S                    -0.459868       0.215807
      2 C                    -0.146720       0.358670
      3 C                    -0.146862       0.360202
      4 C                    -0.290272       0.068535
      5 C                    -0.286073       0.066249
      6 H                     0.077303      -0.029757
      7 H                     0.074170      -0.026699
      8 H                     0.089294      -0.006432
      9 H                     0.089028      -0.006575
  --------------------------------------------------------
  Sum of atomic charges =    -1.000000
  Sum of spin   charges =     1.000000

 -----------------------------------------------------------------
                    Cartesian Multipole Moments
 -----------------------------------------------------------------
    Charge (ESU x 10^10)
                -4.8032
    Dipole Moment (Debye)
         X      -4.0439      Y       0.0342      Z      -3.9138
       Tot       5.6278
    Quadrupole Moments (Debye-Ang)
        XX     -49.9552     XY       0.0346     YY     -47.9576
        XZ      -6.0970     YZ       0.2282     ZZ     -49.5698
    Octapole Moments (Debye-Ang^2)
       XXX    -126.9070    XXY       0.2243    XYY     -43.2017
       YYY       0.3014    XXZ     -44.9151    XYZ       0.5962
       YYZ     -41.9929    XZZ     -45.9294    YZZ       0.5921
       ZZZ    -122.8823
    Hexadecapole Moments (Debye-Ang^3)
      XXXX    -539.5979   XXXY       0.9076   XXYY    -119.2153
      XYYY       0.3589   YYYY     -83.6481   XXXZ    -135.7107
      XXYZ       2.5725   XYYZ     -47.7083   YYYZ       1.5331
      XXZZ    -187.1663   XYZZ       0.7401   YYZZ    -116.4844
      XZZZ    -134.9523   YZZZ       2.7259   ZZZZ    -523.7410
 -----------------------------------------------------------------
 Total job time:  421.28s(wall), 417.55s(cpu) 
 Tue Apr 30 23:11:20 2013

        *************************************************************
        *                                                           *
        *  Thank you very much for using Q-Chem.  Have a nice day.  *
        *                                                           *
        *************************************************************


0 sent ACK to 0 
now end server 0 ... 
 
**********************************************************************
Job 2 of 3 
**********************************************************************
 
Process 0 of 1 is on cl088.stfx.acenet.ca - thread support 1
initial socket setup ...start
initial socket setup ...done 
now start server 0 ... 

cmd = /usr/bin/ssh clhead /usr/local/qchem/bin/get_hostid 1624972246 > /scratch/tmp/5956629.1.short.q/qchem11864/lic.dat
                  Welcome to Q-Chem
     A Quantum Leap Into The Future Of Chemistry

 Y. Shao, L. Fusti-Molnar, Y. Jung, J. Kussmann, C. Ochsenfeld,
 S. T. Brown, A. T. B. Gilbert, L. V. Slipchenko,S. V. Levchenko,
 D. P. O'Neill, R. A. DiStasio Jr., R. C. Lochan, T. Wang,
 G. J. O. Beran, N. A. Besley, J. M. Herbert, C. Y. Lin,
 T. Van Voorhis, S. H. Chien, A. Sodt, R. P. Steele, 
 V. A. Rassolov, P. E. Maslen, P. P. Korambath, R. D. Adamson,
 B. Austin, J. Baker, E. F. C. Byrd, H. Dachsel, R. J. Doerksen,
 A. Dreuw, B. D. Dunietz, A. D. Dutoi, T. R. Furlani,
 S. R. Gwaltney, A. Heyden, S. Hirata, C.-P. Hsu, G. Kedziora,
 R. Z. Khaliullin, P. Klunzinger, A. M. Lee, M. S. Lee, W. Liang,
 I. Lotan, N. Nair, B. Peters, E. I. Proynov, P. A. Pieniazek, 
 Y. M. Rhee, J. Ritchie, E. Rosta, C. D. Sherrill, 
 A. C. Simmonett, J. E. Subotnik, H. L. Woodcock III,
 W. Zhang, A. T. Bell, A. K. Chakraborty, D. M. Chipman,
 F. J. Keil, A. Warshel, W. J. Hehre, H. F. Schaefer III,
 J. Kong, A. I. Krylov, P. M. W. Gill, M. Head-Gordon,
 Q-Chem, Version 3.1, Q-Chem, Inc., Pittsburgh, PA (2007).

 Additional authors for Version 3.1: 
 Z. Gan, Y. Zhao, N. E. Schultz, D. Truhlar, E. Epifanovsky and M. Oana.

 Additional authors for Version 3.2: 
 R. Baer, B. R. Brooks, D. Casanova, J.-D. Chai, C.-L. Cheng, 
 C. Cramer, D. Crittenden, A. Ghysels, G. Hawkins, E. G. Hohenstein, 
 C. Kelley, W. Kurlancheek, D. Liotard, E. Livshits, P. Manohar, 
 A. Marenich, D. Neuhauser, R. Olson, M. A. Rohrdanz, K. S. Thanthiriwatte, 
 A. J. W. Thom, V. Vanovschi, C. F. Williams, Q. Wu and Z.-Q. You. 


 Intel X86 Linux Version

 Q-chem begins on Tue Apr 30 23:11:23 2013  

 Parallel job on  1  processors
Processing $rem in /usr/local/qchem/config/preferences.

theFileMan(): MAXOPENFILES=974 MAX_SUB_FILE_NUM=16
Maximum size of a physical file is 2.0 GB, maximum size of a tmp-file is 32.0 GB


--------------------------------------------------------------
User input:
--------------------------------------------------------------

$molecule
0,1
S
C,1,rcs
C,1,rcs,2,a1
C,2,rcdc,1,a2,3,0.,0
C,3,rcdc,1,a2,2,0.,0
H,2,r2h,1,a2h,3,180.,0
H,3,r2h,1,a2h,2,180.,0
H,4,r4h,2,a4h,1,180.,0
H,5,r4h,3,a4h,1,180.,0

rcs=1.7360563
rcdc=1.36739579
r2h=1.08161314
r4h=1.08474673
a1=91.51094962
a2=111.49586594
a2h=120.09583864
a4h=123.32881129

$end

$comment
neutral
$end

$xc_functional
C PBE   1.00
X wPBE  1.00
$end


$rem
SYMMETRY_DECOMPOSITION	0
LRC_DFT                 true
exchange 		general
BASIS                   g3large
omega			350
mem_static              760
max_scf_cycles          200
scf_final_print         1
sym_ignore              true
$end

--------------------------------------------------------------
 Writing REM_CC_EA            9
 ----------------------------------------------------
       Standard Nuclear Orientation (Angstroms)
    I     Atom         X            Y            Z
 ----------------------------------------------------
    1      S       0.000000     0.000000     0.000000
    2      C       0.000000     0.000000     1.736056
    3      C       1.735453     0.000000    -0.045776
    4      C       1.272285     0.000000     2.237117
    5      C       2.269887     0.000000     1.212855
    6      H      -0.935799     0.000000     2.278429
    7      H       2.252962     0.000000    -0.995551
    8      H       1.494722     0.000000     3.298812
    9      H       3.337078     0.000000     1.407219
 ----------------------------------------------------
 Nuclear Repulsion Energy =   201.6744840342 hartrees
 There are       22 alpha and       22 beta electrons
 Requested basis set is G3large
 There are 83 shells and 274 basis functions

Total QAlloc Memory Limit   2000 MB
Mega-Array Size       743 MB
MEM_STATIC part       760 MB

                       Distance Matrix (Angstroms)
             S (  1)   C (  2)   C (  3)   C (  4)   C (  5)   H (  6)
   C (  2)  1.736056
   C (  3)  1.736056  2.487312
   C (  4)  2.573597  1.367396  2.329404
   C (  5)  2.573597  2.329404  1.367396  1.429798
   H (  6)  2.463119  1.081613  3.540835  2.208470  3.378145
   H (  7)  2.463119  3.540835  1.081613  3.378145  2.208470  4.570244
   H (  8)  3.621651  2.162499  3.353241  1.084747  2.225331  2.636022
   H (  9)  3.621651  3.353241  2.162499  2.225331  1.084747  4.360789
             H (  7)   H (  8)
   H (  8)  4.360789
   H (  9)  2.636022  2.640530
 
 A cutoff of  1.0D-08 yielded   3139 shell pairs
 There are  34972 function pairs ( 45281 Cartesian)
Evaluating contribution to one-electron hamiltonian from nuclear
 Smallest overlap matrix eigenvalue = 5.83E-06

 Q-Chem warning in module mkSTV.C, line 194:

 Overlap eigenvalue is smaller than square root of threshold

 Multipole matrices computed through 2nd order

  Scale SEOQF with 1.000000e-01/1.000000e-01/1.000000e-01

 Standard Electronic Orientation quadrupole field applied
 Nucleus-field energy     =    -0.0000000054 hartrees
 Guess from superposition of atomic densities
 Warning:  Energy on first SCF cycle will be non-variational
 Long-range K will be added via erf
 Coulomb attenuation parameter = 0.35 bohr**(-1)
 A restricted Kohn-Sham SCF calculation will be
 performed using Pulay DIIS extrapolation
 Exchange:  wPBE + LR-HF      Correlation:  PBE
 Using SG-1 standard quadrature grid
 SCF converges when DIIS error is below 1.0E-05
 Requested basis set is G3large
 There are 83 shells and 274 basis functions
 A cutoff of  1.0D-08 yielded   3139 shell pairs
 There are  34972 function pairs ( 45281 Cartesian)
 ---------------------------------------
  Cycle       Energy         DIIS Error
 ---------------------------------------
    1    -554.3836177413      2.80E-02
    2    -552.7297616604      2.36E-03
    3    -552.7649083037      1.80E-03
    4    -552.7946745198      4.23E-04
    5    -552.7970040549      1.36E-04
    6    -552.7973027623      4.91E-05
    7    -552.7973319707      1.85E-05
    8    -552.7973397803      5.74E-06 Convergence criterion met
 ---------------------------------------
 One-Electron    Energy = -1157.7254331689
 Total Coulomb   Energy =   451.8620463072
 Alpha Exchange  Energy =    -3.9511612284
 Beta  Exchange  Energy =    -3.9511612284
 DFT   Exchange  Energy =   -39.1616948310
 DFT Correlation Energy =    -1.5444196597
 Nuclear Repu.   Energy =   201.6744840289
 Nuclear Attr.   Energy = -1709.1372190730
 Kinetic         Energy =   551.4117859041
 SCF time:  CPU 262.67 s  wall 264.88 s
 Final Alpha MO Eigenvalues
            1           2           3           4           5           6
    1 -88.2626921 -10.1083509 -10.1082791 -10.0852531 -10.0849882  -7.8972997
            7           8           9          10          11          12
    1  -5.9145966  -5.9098482  -5.9075986  -1.0063525  -0.8586332  -0.8496017
           13          14          15          16          17          18
    1  -0.6842943  -0.6703263  -0.6349403  -0.5215395  -0.5049000  -0.5015326
           19          20          21          22          23          24
    1  -0.4903258  -0.4483818  -0.3532313  -0.3438090   0.0392857   0.0455781
           25          26          27
    1   0.0525196   0.0548266   0.0658793
 Analysis of SCF Wavefunction
 
 --------------------------------------------------------------
                    Orbital Energies (a.u.)
 --------------------------------------------------------------
 
 Alpha MOs
 -- Occupied --
-88.263 -10.108 -10.108 -10.085 -10.085  -7.897  -5.915  -5.910
 -5.908  -1.006  -0.859  -0.850  -0.684  -0.670  -0.635  -0.522
 -0.505  -0.502  -0.490  -0.448  -0.353  -0.344
 -- Virtual --
  0.039   0.046   0.053   0.055   0.066   0.092   0.104   0.110
  0.114   0.115   0.140   0.145   0.151   0.155   0.172   0.175
  0.179   0.184   0.190   0.191   0.209   0.210   0.211   0.219
  0.234   0.256   0.261   0.272   0.296   0.349   0.350   0.363
  0.375   0.379   0.410   0.421   0.435   0.463   0.499   0.500
  0.507   0.528   0.563   0.599   0.610   0.613   0.625   0.660
  0.676   0.693   0.706   0.706   0.730   0.738   0.759   0.769
  0.778   0.807   0.812   0.823   0.830   0.832   0.851   0.872
  0.901   0.935   0.946   0.962   0.992   1.024   1.043   1.061
  1.083   1.101   1.120   1.150   1.162   1.186   1.208   1.220
  1.235   1.273   1.282   1.328   1.333   1.339   1.362   1.401
  1.410   1.422   1.431   1.456   1.494   1.496   1.522   1.529
  1.556   1.576   1.608   1.610   1.696   1.757   1.794   1.871
  1.899   1.928   1.962   1.987   2.013   2.248   2.393   2.592
  2.672   2.673   2.733   2.750   2.773   2.793   2.796   2.838
  2.841   2.909   2.912   2.929   2.938   2.964   2.979   2.995
  3.021   3.030   3.065   3.107   3.181   3.230   3.250   3.254
  3.286   3.287   3.343   3.343   3.344   3.359   3.425   3.448
  3.470   3.494   3.499   3.505   3.579   3.581   3.647   3.653
  3.683   3.687   3.691   3.707   3.707   3.755   3.764   3.789
  3.800   3.815   3.871   3.880   3.897   3.940   3.961   4.085
  4.132   4.175   4.186   4.222   4.233   4.289   4.310   4.393
  4.489   4.489   4.535   4.578   4.630   4.664   4.700   4.732
  4.821   4.841   4.853   4.982   5.074   5.076   5.131   5.361
  5.395   5.501   5.651   5.717   5.878   5.888   6.315   8.656
 17.075  17.475  17.536  23.521  23.543  23.550  23.689  23.738
 23.766  24.060  24.456  24.718  27.197  27.266  27.384  27.539
 27.909  28.027  28.080  28.160  28.262  28.388  28.516  28.591
 30.862  30.868  30.873  30.875  30.882  30.908  30.911  40.825
 40.863  40.887  40.910  40.964  41.022  41.025  41.094  41.101
 41.106  41.113  41.119  41.136  41.167  41.180  41.190  41.203
 41.286  41.362  41.474 189.205
 --------------------------------------------------------------
 
          Ground-State Mulliken Net Atomic Charges

     Atom                 Charge (a.u.)
  ----------------------------------------
      1 S                    -0.214779
      2 C                     0.007603
      3 C                     0.008007
      4 C                    -0.173524
      5 C                    -0.174309
      6 H                     0.136289
      7 H                     0.136344
      8 H                     0.137249
      9 H                     0.137121
  ----------------------------------------
  Sum of atomic charges =     0.000000

 -----------------------------------------------------------------
                    Cartesian Multipole Moments
 -----------------------------------------------------------------
    Charge (ESU x 10^10)
                 0.0000
    Dipole Moment (Debye)
         X       0.4290      Y       0.0005      Z       0.4174
       Tot       0.5985
    Quadrupole Moments (Debye-Ang)
        XX     -32.1224     XY       0.0011     YY     -40.2905
        XZ      -1.0263     YZ      -0.0002     ZZ     -32.0686
    Octapole Moments (Debye-Ang^2)
       XXX     -83.7956    XXY       0.0006    XYY     -36.1126
       YYY       0.0000    XXZ     -26.7722    XYZ       0.0008
       YYZ     -35.1726    XZZ     -27.5228    YZZ       0.0014
       ZZZ     -81.6487
    Hexadecapole Moments (Debye-Ang^3)
      XXXX    -380.7218   XXXY       0.0049   XXYY     -89.4983
      XYYY       0.0015   YYYY     -50.5891   XXXZ     -87.4981
      XXYZ       0.0020   XYYZ     -36.7946   YYYZ      -0.0007
      XXZZ    -121.5436   XYZZ       0.0005   YYZZ     -87.5571
      XZZZ     -87.8025   YZZZ      -0.0011   ZZZZ    -371.4753
 -----------------------------------------------------------------
 Total job time:  265.30s(wall), 263.07s(cpu) 
 Tue Apr 30 23:15:48 2013

        *************************************************************
        *                                                           *
        *  Thank you very much for using Q-Chem.  Have a nice day.  *
        *                                                           *
        *************************************************************


0 sent ACK to 0 
now end server 0 ... 
 
**********************************************************************
Job 3 of 3 
**********************************************************************
 
Process 0 of 1 is on cl088.stfx.acenet.ca - thread support 1
initial socket setup ...start
initial socket setup ...done 
now start server 0 ... 

cmd = /usr/bin/ssh clhead /usr/local/qchem/bin/get_hostid 1726140381 > /scratch/tmp/5956629.1.short.q/qchem11864/lic.dat
                  Welcome to Q-Chem
     A Quantum Leap Into The Future Of Chemistry

 Y. Shao, L. Fusti-Molnar, Y. Jung, J. Kussmann, C. Ochsenfeld,
 S. T. Brown, A. T. B. Gilbert, L. V. Slipchenko,S. V. Levchenko,
 D. P. O'Neill, R. A. DiStasio Jr., R. C. Lochan, T. Wang,
 G. J. O. Beran, N. A. Besley, J. M. Herbert, C. Y. Lin,
 T. Van Voorhis, S. H. Chien, A. Sodt, R. P. Steele, 
 V. A. Rassolov, P. E. Maslen, P. P. Korambath, R. D. Adamson,
 B. Austin, J. Baker, E. F. C. Byrd, H. Dachsel, R. J. Doerksen,
 A. Dreuw, B. D. Dunietz, A. D. Dutoi, T. R. Furlani,
 S. R. Gwaltney, A. Heyden, S. Hirata, C.-P. Hsu, G. Kedziora,
 R. Z. Khaliullin, P. Klunzinger, A. M. Lee, M. S. Lee, W. Liang,
 I. Lotan, N. Nair, B. Peters, E. I. Proynov, P. A. Pieniazek, 
 Y. M. Rhee, J. Ritchie, E. Rosta, C. D. Sherrill, 
 A. C. Simmonett, J. E. Subotnik, H. L. Woodcock III,
 W. Zhang, A. T. Bell, A. K. Chakraborty, D. M. Chipman,
 F. J. Keil, A. Warshel, W. J. Hehre, H. F. Schaefer III,
 J. Kong, A. I. Krylov, P. M. W. Gill, M. Head-Gordon,
 Q-Chem, Version 3.1, Q-Chem, Inc., Pittsburgh, PA (2007).

 Additional authors for Version 3.1: 
 Z. Gan, Y. Zhao, N. E. Schultz, D. Truhlar, E. Epifanovsky and M. Oana.

 Additional authors for Version 3.2: 
 R. Baer, B. R. Brooks, D. Casanova, J.-D. Chai, C.-L. Cheng, 
 C. Cramer, D. Crittenden, A. Ghysels, G. Hawkins, E. G. Hohenstein, 
 C. Kelley, W. Kurlancheek, D. Liotard, E. Livshits, P. Manohar, 
 A. Marenich, D. Neuhauser, R. Olson, M. A. Rohrdanz, K. S. Thanthiriwatte, 
 A. J. W. Thom, V. Vanovschi, C. F. Williams, Q. Wu and Z.-Q. You. 


 Intel X86 Linux Version

 Q-chem begins on Tue Apr 30 23:15:51 2013  

 Parallel job on  1  processors
Processing $rem in /usr/local/qchem/config/preferences.

theFileMan(): MAXOPENFILES=974 MAX_SUB_FILE_NUM=16
Maximum size of a physical file is 2.0 GB, maximum size of a tmp-file is 32.0 GB


--------------------------------------------------------------
User input:
--------------------------------------------------------------

$molecule
1,2
S
C,1,rcs
C,1,rcs,2,a1
C,2,rcdc,1,a2,3,0.,0
C,3,rcdc,1,a2,2,0.,0
H,2,r2h,1,a2h,3,180.,0
H,3,r2h,1,a2h,2,180.,0
H,4,r4h,2,a4h,1,180.,0
H,5,r4h,3,a4h,1,180.,0

rcs=1.7360563
rcdc=1.36739579
r2h=1.08161314
r4h=1.08474673
a1=91.51094962
a2=111.49586594
a2h=120.09583864
a4h=123.32881129

$end

$comment
positive
$end

$xc_functional
C PBE   1.00
X wPBE  1.00
$end

$rem
SYMMETRY_DECOMPOSITION	0
LRC_DFT                 true
exchange 		general
BASIS                   g3large
omega			350
mem_static              760
max_scf_cycles          200
scf_final_print         1
sym_ignore              true
$end

--------------------------------------------------------------
 Writing REM_CC_EA            9
 ----------------------------------------------------
       Standard Nuclear Orientation (Angstroms)
    I     Atom         X            Y            Z
 ----------------------------------------------------
    1      S       0.000000     0.000000     0.000000
    2      C       0.000000     0.000000     1.736056
    3      C       1.735453     0.000000    -0.045776
    4      C       1.272285     0.000000     2.237117
    5      C       2.269887     0.000000     1.212855
    6      H      -0.935799     0.000000     2.278429
    7      H       2.252962     0.000000    -0.995551
    8      H       1.494722     0.000000     3.298812
    9      H       3.337078     0.000000     1.407219
 ----------------------------------------------------
 Nuclear Repulsion Energy =   201.6744840342 hartrees
 There are       22 alpha and       21 beta electrons
 Requested basis set is G3large
 There are 83 shells and 274 basis functions

Total QAlloc Memory Limit   2000 MB
Mega-Array Size       743 MB
MEM_STATIC part       760 MB

                       Distance Matrix (Angstroms)
             S (  1)   C (  2)   C (  3)   C (  4)   C (  5)   H (  6)
   C (  2)  1.736056
   C (  3)  1.736056  2.487312
   C (  4)  2.573597  1.367396  2.329404
   C (  5)  2.573597  2.329404  1.367396  1.429798
   H (  6)  2.463119  1.081613  3.540835  2.208470  3.378145
   H (  7)  2.463119  3.540835  1.081613  3.378145  2.208470  4.570244
   H (  8)  3.621651  2.162499  3.353241  1.084747  2.225331  2.636022
   H (  9)  3.621651  3.353241  2.162499  2.225331  1.084747  4.360789
             H (  7)   H (  8)
   H (  8)  4.360789
   H (  9)  2.636022  2.640530
 
 A cutoff of  1.0D-08 yielded   3139 shell pairs
 There are  34972 function pairs ( 45281 Cartesian)
Evaluating contribution to one-electron hamiltonian from nuclear
 Smallest overlap matrix eigenvalue = 5.83E-06

 Q-Chem warning in module mkSTV.C, line 194:

 Overlap eigenvalue is smaller than square root of threshold

 Multipole matrices computed through 2nd order

  Scale SEOQF with 1.000000e-01/1.000000e-01/1.000000e-01

 Standard Electronic Orientation quadrupole field applied
 Nucleus-field energy     =    -0.0000000054 hartrees
 Guess from superposition of atomic densities
 Warning:  Energy on first SCF cycle will be non-variational
 Long-range K will be added via erf
 Coulomb attenuation parameter = 0.35 bohr**(-1)
 An unrestricted Kohn-Sham SCF calculation will be
 performed using Pulay DIIS extrapolation
 Exchange:  wPBE + LR-HF      Correlation:  PBE
 Using SG-1 standard quadrature grid
 SCF converges when DIIS error is below 1.0E-05
 Requested basis set is G3large
 There are 83 shells and 274 basis functions
 A cutoff of  1.0D-08 yielded   3139 shell pairs
 There are  34972 function pairs ( 45281 Cartesian)
 Warning!  Inaccurate integrated density:
   Number of electrons =    43
   Numerical integral  =    44.000436424003
   Relative error      =     2.3265963349 %
 ---------------------------------------
  Cycle       Energy         DIIS Error
 ---------------------------------------
    1    -554.3836177413      2.80E-02
    2    -552.3904681442      2.08E-03
    3    -552.4437092938      1.36E-03
    4    -552.4607916958      3.23E-04
    5    -552.4636004547      1.27E-04
    6    -552.4640654800      4.70E-05
    7    -552.4642510938      2.55E-05
    8    -552.4643029182      1.36E-05
    9    -552.4643251835      6.53E-06 Convergence criterion met
 ---------------------------------------
 One-Electron    Energy = -1147.1830195698
 Total Coulomb   Energy =   441.3688934030
 Alpha Exchange  Energy =    -3.9633686423
 Beta  Exchange  Energy =    -3.7919483094
 DFT   Exchange  Energy =   -39.0649428413
 DFT Correlation Energy =    -1.5044232526
 Nuclear Repu.   Energy =   201.6744840289
 Nuclear Attr.   Energy = -1698.4800118095
 Kinetic         Energy =   551.2969922398
 <S^2> = 0.7754
 SCF time:  CPU 369.01 s  wall 372.50 s
 Final Alpha MO Eigenvalues
            1           2           3           4           5           6
    1 -88.4933247 -10.3823454 -10.3798430 -10.3323453 -10.3270676  -8.1277882
            7           8           9          10          11          12
    1  -6.1456239  -6.1401141  -6.1374780  -1.2595394  -1.1103382  -1.0943130
           13          14          15          16          17          18
    1  -0.9272464  -0.9090007  -0.8661425  -0.7636594  -0.7601209  -0.7395410
           19          20          21          22          23          24
    1  -0.7254455  -0.6741688  -0.6195529  -0.5783449  -0.1926966  -0.1111624
           25          26          27
    1  -0.1061644  -0.0924446  -0.0709897
 Final Beta MO Eigenvalues
            1           2           3           4           5           6
    1 -88.4938436 -10.3751911 -10.3725120 -10.3310973 -10.3267680  -8.1282286
            7           8           9          10          11          12
    1  -6.1461108  -6.1405772  -6.1384342  -1.2479334  -1.0930131  -1.0840358
           13          14          15          16          17          18
    1  -0.9171978  -0.9014793  -0.8640293  -0.7580096  -0.7368752  -0.7215924
           19          20          21          22          23          24
    1  -0.7087662  -0.6731079  -0.5806950  -0.3217247  -0.1436348  -0.1064386
           25          26
    1  -0.0917570  -0.0777392
 Analysis of SCF Wavefunction
 
 --------------------------------------------------------------
                    Orbital Energies (a.u.)
 --------------------------------------------------------------
 
 Alpha MOs
 -- Occupied --
-88.493 -10.382 -10.380 -10.332 -10.327  -8.128  -6.146  -6.140
 -6.137  -1.260  -1.110  -1.094  -0.927  -0.909  -0.866  -0.764
 -0.760  -0.740  -0.725  -0.674  -0.620  -0.578
 -- Virtual --
 -0.193  -0.111  -0.106  -0.092  -0.071  -0.063  -0.060  -0.048
 -0.043  -0.041  -0.007  -0.003   0.002   0.009   0.019   0.025
  0.037   0.039   0.042   0.047   0.053   0.056   0.057   0.074
  0.083   0.103   0.120   0.129   0.130   0.150   0.151   0.168
  0.196   0.211   0.218   0.243   0.257   0.277   0.304   0.310
  0.320   0.333   0.363   0.389   0.408   0.410   0.413   0.462
  0.465   0.481   0.488   0.502   0.534   0.539   0.544   0.552
  0.579   0.583   0.603   0.618   0.627   0.637   0.654   0.672
  0.689   0.710   0.733   0.755   0.779   0.821   0.833   0.850
  0.869   0.898   0.908   0.934   0.958   0.970   1.006   1.019
  1.024   1.056   1.063   1.119   1.122   1.135   1.141   1.173
  1.195   1.205   1.215   1.242   1.270   1.281   1.303   1.324
  1.340   1.375   1.386   1.399   1.489   1.541   1.579   1.652
  1.683   1.709   1.738   1.763   1.790   2.022   2.175   2.366
  2.415   2.447   2.480   2.506   2.516   2.555   2.569   2.574
  2.587   2.643   2.665   2.681   2.703   2.703   2.721   2.751
  2.768   2.779   2.822   2.855   2.930   2.986   3.011   3.012
  3.041   3.045   3.093   3.103   3.107   3.124   3.175   3.209
  3.217   3.252   3.268   3.268   3.325   3.345   3.387   3.418
  3.447   3.450   3.450   3.452   3.464   3.513   3.529   3.548
  3.568   3.580   3.634   3.635   3.653   3.704   3.727   3.850
  3.895   3.944   3.952   3.984   3.998   4.056   4.077   4.160
  4.247   4.255   4.294   4.319   4.389   4.432   4.459   4.483
  4.584   4.609   4.618   4.746   4.836   4.844   4.901   5.120
  5.155   5.270   5.416   5.481   5.641   5.654   6.083   8.428
 16.846  17.245  17.306  23.285  23.313  23.320  23.453  23.503
 23.518  23.801  24.198  24.467  26.932  26.992  27.122  27.286
 27.661  27.760  27.815  27.901  28.005  28.134  28.259  28.346
 30.631  30.638  30.643  30.644  30.652  30.677  30.680  40.558
 40.591  40.620  40.646  40.713  40.767  40.778  40.827  40.836
 40.841  40.842  40.845  40.883  40.920  40.923  40.936  40.946
 41.023  41.106  41.227 188.975
 
 Beta MOs
 -- Occupied --
-88.494 -10.375 -10.373 -10.331 -10.327  -8.128  -6.146  -6.141
 -6.138  -1.248  -1.093  -1.084  -0.917  -0.901  -0.864  -0.758
 -0.737  -0.722  -0.709  -0.673  -0.581
 -- Virtual --
 -0.322  -0.144  -0.106  -0.092  -0.078  -0.070  -0.063  -0.058
 -0.045  -0.041  -0.040  -0.003  -0.002   0.003   0.009   0.019
  0.026   0.038   0.040   0.046   0.051   0.054   0.060   0.061
  0.075   0.083   0.106   0.121   0.129   0.131   0.158   0.158
  0.171   0.204   0.212   0.220   0.247   0.258   0.279   0.307
  0.311   0.322   0.339   0.370   0.397   0.412   0.420   0.430
  0.469   0.473   0.493   0.502   0.510   0.536   0.544   0.552
  0.557   0.583   0.598   0.607   0.626   0.633   0.644   0.659
  0.676   0.694   0.725   0.739   0.756   0.784   0.826   0.836
  0.852   0.871   0.900   0.911   0.940   0.961   0.971   1.009
  1.020   1.030   1.064   1.071   1.122   1.123   1.138   1.150
  1.185   1.197   1.208   1.219   1.250   1.283   1.286   1.311
  1.327   1.344   1.379   1.397   1.404   1.491   1.549   1.586
  1.658   1.687   1.710   1.745   1.769   1.798   2.025   2.176
  2.373   2.433   2.450   2.498   2.516   2.540   2.563   2.573
  2.600   2.607   2.676   2.678   2.693   2.712   2.727   2.746
  2.761   2.789   2.797   2.828   2.876   2.949   2.997   3.018
  3.023   3.050   3.057   3.110   3.113   3.117   3.128   3.195
  3.216   3.238   3.265   3.276   3.276   3.347   3.350   3.415
  3.421   3.454   3.458   3.460   3.473   3.473   3.523   3.534
  3.558   3.573   3.585   3.641   3.645   3.663   3.706   3.733
  3.855   3.898   3.955   3.957   3.994   4.006   4.064   4.079
  4.168   4.252   4.258   4.299   4.339   4.393   4.433   4.472
  4.496   4.588   4.611   4.622   4.749   4.839   4.845   4.902
  5.126   5.159   5.271   5.417   5.484   5.642   5.656   6.085
  8.428  16.844  17.245  17.305  23.286  23.312  23.319  23.454
 23.503  23.521  23.806  24.203  24.470  26.946  27.010  27.133
 27.293  27.662  27.765  27.819  27.904  28.008  28.136  28.262
 28.347  30.631  30.638  30.642  30.644  30.651  30.677  30.680
 40.572  40.607  40.626  40.649  40.717  40.770  40.780  40.838
 40.846  40.849  40.854  40.858  40.887  40.923  40.929  40.940
 40.948  41.025  41.108  41.228 188.975
 --------------------------------------------------------------
 
          Ground-State Mulliken Net Atomic Charges

     Atom                 Charge (a.u.)    Spin (a.u.)
  --------------------------------------------------------
      1 S                    -0.118423      -0.067419
      2 C                     0.255529       0.488058
      3 C                     0.259257       0.501800
      4 C                    -0.084966       0.092215
      5 C                    -0.103831       0.024214
      6 H                     0.202939      -0.015476
      7 H                     0.202120      -0.016130
      8 H                     0.194624      -0.004755
      9 H                     0.192751      -0.002505
  --------------------------------------------------------
  Sum of atomic charges =     1.000000
  Sum of spin   charges =     1.000000

 -----------------------------------------------------------------
                    Cartesian Multipole Moments
 -----------------------------------------------------------------
    Charge (ESU x 10^10)
                 4.8032
    Dipole Moment (Debye)
         X       5.1796      Y       0.0002      Z       5.1222
       Tot       7.2846
    Quadrupole Moments (Debye-Ang)
        XX     -16.8655     XY       0.0002     YY     -35.2666
        XZ       2.4228     YZ       0.0004     ZZ     -16.6021
    Octapole Moments (Debye-Ang^2)
       XXX     -47.3062    XXY       0.0004    XYY     -31.3979
       YYY       0.0000    XXZ     -14.6966    XYZ       0.0016
       YYZ     -30.5199    XZZ     -14.8794    YZZ       0.0002
       ZZZ     -44.9707
    Hexadecapole Moments (Debye-Ang^3)
      XXXX    -259.8367   XXXY       0.0011   XXYY     -75.5850
      XYYY      -0.0003   YYYY     -38.3290   XXXZ     -58.1285
      XXYZ       0.0026   XYYZ     -33.4371   YYYZ       0.0005
      XXZZ     -82.9706   XYZZ       0.0039   YYZZ     -73.4215
      XZZZ     -57.2229   YZZZ       0.0017   ZZZZ    -250.2624
 -----------------------------------------------------------------
 Total job time:  372.97s(wall), 369.42s(cpu) 
 Tue Apr 30 23:22:04 2013

        *************************************************************
        *                                                           *
        *  Thank you very much for using Q-Chem.  Have a nice day.  *
        *                                                           *
        *************************************************************


0 sent ACK to 0 
now end server 0 ... 
