Process 0 of 1 is on cl122 - thread support 1
initial socket setup ...start
initial socket setup ...done 
now start server 0 ... 

cmd = /usr/bin/ssh clhead /usr/local/qchem/bin/get_hostid 904472141 > /tmp/1601927.1.medium.q/qchem18603/lic.dat

cmd = /usr/bin/ssh clhead /usr/local/qchem/bin/get_hostid 904472141 > /tmp/1601927.1.medium.q/qchem18603/lic.dat

cmd = /usr/bin/ssh clhead /usr/local/qchem/bin/get_hostid 904472141 > /tmp/1601927.1.medium.q/qchem18603/lic.dat

cmd = /usr/bin/ssh clhead /usr/local/qchem/bin/get_hostid 904472141 > /tmp/1601927.1.medium.q/qchem18603/lic.dat

cmd = /usr/bin/ssh clhead /usr/local/qchem/bin/get_hostid 904472141 > /tmp/1601927.1.medium.q/qchem18603/lic.dat
                  Welcome to Q-Chem
     A Quantum Leap Into The Future Of Chemistry

 Y. Shao, L. Fusti-Molnar, Y. Jung, J. Kussmann, C. Ochsenfeld,
 S. T. Brown, A. T. B. Gilbert, L. V. Slipchenko,S. V. Levchenko,
 D. P. O'Neill, R. A. DiStasio Jr., R. C. Lochan, T. Wang,
 G. J. O. Beran, N. A. Besley, J. M. Herbert, C. Y. Lin,
 T. Van Voorhis, S. H. Chien, A. Sodt, R. P. Steele, 
 V. A. Rassolov, P. E. Maslen, P. P. Korambath, R. D. Adamson,
 B. Austin, J. Baker, E. F. C. Byrd, H. Dachsel, R. J. Doerksen,
 A. Dreuw, B. D. Dunietz, A. D. Dutoi, T. R. Furlani,
 S. R. Gwaltney, A. Heyden, S. Hirata, C.-P. Hsu, G. Kedziora,
 R. Z. Khaliullin, P. Klunzinger, A. M. Lee, M. S. Lee, W. Liang,
 I. Lotan, N. Nair, B. Peters, E. I. Proynov, P. A. Pieniazek, 
 Y. M. Rhee, J. Ritchie, E. Rosta, C. D. Sherrill, 
 A. C. Simmonett, J. E. Subotnik, H. L. Woodcock III,
 W. Zhang, A. T. Bell, A. K. Chakraborty, D. M. Chipman,
 F. J. Keil, A. Warshel, W. J. Hehre, H. F. Schaefer III,
 J. Kong, A. I. Krylov, P. M. W. Gill, M. Head-Gordon,
 Q-Chem, Version 3.1, Q-Chem, Inc., Pittsburgh, PA (2007).

 Additional authors for Version 3.1: 
 Z. Gan, Y. Zhao, N. E. Schultz, D. Truhlar, E. Epifanovsky and M. Oana.

 Additional authors for Version 3.2: 
 R. Baer, B. R. Brooks, D. Casanova, J.-D. Chai, C.-L. Cheng, 
 C. Cramer, D. Crittenden, A. Ghysels, G. Hawkins, E. G. Hohenstein, 
 C. Kelley, W. Kurlancheek, D. Liotard, E. Livshits, P. Manohar, 
 A. Marenich, D. Neuhauser, R. Olson, M. A. Rohrdanz, K. S. Thanthiriwatte, 
 A. J. W. Thom, V. Vanovschi, C. F. Williams, Q. Wu and Z.-Q. You. 


 Intel X86 Linux Version

 Q-chem begins on Thu Mar 20 00:52:41 2014  

 Parallel job on  1  processors
Processing $rem in /usr/local/qchem/config/preferences.

theFileMan(): MAXOPENFILES=974 MAX_SUB_FILE_NUM=16
Maximum size of a physical file is 2.0 GB, maximum size of a tmp-file is 32.0 GB


--------------------------------------------------------------
User input:
--------------------------------------------------------------

$molecule
-1,2
O          0.01242        0.00000        0.00977
H         -0.00615        0.00000        0.96356
H          0.93501        0.00000       -0.23291
$end

$comment
negative
$end

$xc_functional
C PBE   1.00
X wPBE  1.00
$end

$rem
SYMMETRY_DECOMPOSITION	0
exchange 		general
LRC_DFT                 true
BASIS                   g3large
omega			480
mem_static              760
max_scf_cycles          200
scf_final_print         1
sym_ignore              true
$end

--------------------------------------------------------------
 Writing REM_CC_EA            3
 ----------------------------------------------------
       Standard Nuclear Orientation (Angstroms)
    I     Atom         X            Y            Z
 ----------------------------------------------------
    1      O       0.012420     0.000000     0.009770
    2      H      -0.006150     0.000000     0.963560
    3      H       0.935010     0.000000    -0.232910
 ----------------------------------------------------
 Nuclear Repulsion Energy =     9.2229701796 hartrees
 There are        6 alpha and        5 beta electrons
 Requested basis set is G3large
 There are 22 shells and 62 basis functions

Total QAlloc Memory Limit   2000 MB
Mega-Array Size       743 MB
MEM_STATIC part       760 MB

                       Distance Matrix (Angstroms)
             O (  1)   H (  2)
   H (  2)  0.953971
   H (  3)  0.953974  1.522275
 
 A cutoff of  1.0D-08 yielded    253 shell pairs
 There are   2043 function pairs (  2475 Cartesian)
Evaluating contribution to one-electron hamiltonian from nuclear
 Smallest overlap matrix eigenvalue = 2.08E-03
 Multipole matrices computed through 2nd order

  Scale SEOQF with 1.000000e-01/1.000000e+00/1.000000e-01

 Standard Electronic Orientation quadrupole field applied
 Guess from superposition of atomic densities
 Warning:  Energy on first SCF cycle will be non-variational
 Long-range K will be added via erf
 Coulomb attenuation parameter = 0.48 bohr**(-1)
 An unrestricted Kohn-Sham SCF calculation will be
 performed using Pulay DIIS extrapolation
 Exchange:  wPBE + LR-HF      Correlation:  PBE
 Using SG-1 standard quadrature grid
 SCF converges when DIIS error is below 1.0E-05
 Requested basis set is G3large
 There are 22 shells and 62 basis functions
 A cutoff of  1.0D-08 yielded    253 shell pairs
 There are   2043 function pairs (  2475 Cartesian)
 Warning!  Inaccurate integrated density:
   Number of electrons =    11
   Numerical integral  =     9.999980735338
   Relative error      =    -9.0910842242 %
 ---------------------------------------
  Cycle       Energy         DIIS Error
 ---------------------------------------
    1     -76.3790209412      5.29E-02
    2     -76.2925433304      1.44E-02
    3     -76.3184533463      1.45E-02
    4     -76.3838502840      8.70E-04
    5     -76.3855009769      2.96E-04
    6     -76.3858867665      1.11E-04
    7     -76.3859696079      2.97E-05
    8     -76.3859742834      6.21E-06 Convergence criterion met
 ---------------------------------------
 One-Electron    Energy =  -125.0501797292
 Total Coulomb   Energy =    48.8442248654
 Alpha Exchange  Energy =    -1.2649540915
 Beta  Exchange  Energy =    -1.1790280032
 DFT   Exchange  Energy =    -6.6247784796
 DFT Correlation Energy =    -0.3342290246
 Nuclear Repu.   Energy =     9.2229701795
 Nuclear Attr.   Energy =  -201.3466903431
 Kinetic         Energy =    76.2965106139
 <S^2> = 0.7503
 SCF time:  CPU 6.62 s  wall 7.43 s
 Final Alpha MO Eigenvalues
            1           2           3           4           5           6
    1 -18.8058421  -0.9908065  -0.4909098  -0.3471635  -0.2713821   0.0290611
            7           8           9          10          11
    1   0.1757034   0.3694864   0.3831775   0.3863112   0.4041406
 Final Beta MO Eigenvalues
            1           2           3           4           5           6
    1 -18.8049802  -0.9874887  -0.4894045  -0.3452719  -0.2705070   0.1801557
            7           8           9          10
    1   0.2000866   0.3798537   0.3935620   0.4000421
 Analysis of SCF Wavefunction
 
 --------------------------------------------------------------
                    Orbital Energies (a.u.)
 --------------------------------------------------------------
 
 Alpha MOs
 -- Occupied --
-18.806  -0.991  -0.491  -0.347  -0.271   0.029
 -- Virtual --
  0.176   0.369   0.383   0.386   0.404   0.453   0.470   0.794
  0.837   0.935   0.980   1.065   1.168   1.189   1.322   1.338
  1.576   1.692   1.720   2.095   2.120   2.222   2.470   2.554
  2.765   3.163   3.922   3.963   3.969   4.213   4.404   4.541
  5.206   5.320   5.406   5.494   5.625   5.821   5.960   6.073
  7.188   7.226   7.314   7.352   7.608   7.684   7.811  44.033
 44.045  44.070  44.120  44.189  45.816  46.202  46.623  50.015
 
 Beta MOs
 -- Occupied --
-18.805  -0.987  -0.489  -0.345  -0.271
 -- Virtual --
  0.180   0.200   0.380   0.394   0.400   0.404   0.457   0.473
  0.793   0.838   0.938   0.984   1.068   1.169   1.189   1.325
  1.338   1.577   1.694   1.723   2.097   2.121   2.224   2.471
  2.555   2.765   3.163   3.923   3.963   3.969   4.214   4.406
  4.544   5.206   5.321   5.408   5.495   5.628   5.822   5.962
  6.074   7.191   7.226   7.317   7.354   7.608   7.686   7.812
 44.033  44.044  44.071  44.120  44.190  45.817  46.203  46.623
 50.016
 --------------------------------------------------------------
 
          Ground-State Mulliken Net Atomic Charges

     Atom                 Charge (a.u.)    Spin (a.u.)
  --------------------------------------------------------
      1 O                    -0.103004      -0.423277
      2 H                    -0.448573       0.711721
      3 H                    -0.448423       0.711556
  --------------------------------------------------------
  Sum of atomic charges =    -1.000000
  Sum of spin   charges =     1.000000

 -----------------------------------------------------------------
                    Cartesian Multipole Moments
 -----------------------------------------------------------------
    Charge (ESU x 10^10)
                -4.8032
    Dipole Moment (Debye)
         X      -2.0884      Y       0.0000      Z      -1.6438
       Tot       2.6577
    Quadrupole Moments (Debye-Ang)
        XX     -22.2913     XY       0.0000     YY     -21.0938
        XZ      -0.8959     YZ       0.0000     ZZ     -21.8582
    Octapole Moments (Debye-Ang^2)
       XXX     -28.4028    XXY       0.0000    XYY      -8.9297
       YYY      -0.0001    XXZ      -7.2046    XYZ       0.0000
       YYZ      -7.0265    XZZ      -9.3342    YZZ       0.0000
       ZZZ     -22.4901
    Hexadecapole Moments (Debye-Ang^3)
      XXXX    -148.4514   XXXY      -0.0001   XXYY     -41.8278
      XYYY       0.0000   YYYY    -103.6334   XXXZ      -1.1364
      XXYZ       0.0000   XYYZ      -0.3641   YYYZ       0.0000
      XXZZ     -49.0985   XYZZ       0.0000   YYZZ     -41.6537
      XZZZ      -1.2847   YZZZ       0.0000   ZZZZ    -147.2931
 -----------------------------------------------------------------
 Total job time:  7.53s(wall), 6.69s(cpu) 
 Thu Mar 20 00:52:49 2014

        *************************************************************
        *                                                           *
        *  Thank you very much for using Q-Chem.  Have a nice day.  *
        *                                                           *
        *************************************************************


0 sent ACK to 0 
now end server 0 ... 
 
**********************************************************************
Job 2 of 3 
**********************************************************************
 
Process 0 of 1 is on cl122 - thread support 1
initial socket setup ...start
initial socket setup ...done 
now start server 0 ... 

cmd = /usr/bin/ssh clhead /usr/local/qchem/bin/get_hostid 483329089 > /tmp/1601927.1.medium.q/qchem18603/lic.dat

cmd = /usr/bin/ssh clhead /usr/local/qchem/bin/get_hostid 483329089 > /tmp/1601927.1.medium.q/qchem18603/lic.dat

cmd = /usr/bin/ssh clhead /usr/local/qchem/bin/get_hostid 483329089 > /tmp/1601927.1.medium.q/qchem18603/lic.dat

cmd = /usr/bin/ssh clhead /usr/local/qchem/bin/get_hostid 483329089 > /tmp/1601927.1.medium.q/qchem18603/lic.dat

cmd = /usr/bin/ssh clhead /usr/local/qchem/bin/get_hostid 483329089 > /tmp/1601927.1.medium.q/qchem18603/lic.dat
                  Welcome to Q-Chem
     A Quantum Leap Into The Future Of Chemistry

 Y. Shao, L. Fusti-Molnar, Y. Jung, J. Kussmann, C. Ochsenfeld,
 S. T. Brown, A. T. B. Gilbert, L. V. Slipchenko,S. V. Levchenko,
 D. P. O'Neill, R. A. DiStasio Jr., R. C. Lochan, T. Wang,
 G. J. O. Beran, N. A. Besley, J. M. Herbert, C. Y. Lin,
 T. Van Voorhis, S. H. Chien, A. Sodt, R. P. Steele, 
 V. A. Rassolov, P. E. Maslen, P. P. Korambath, R. D. Adamson,
 B. Austin, J. Baker, E. F. C. Byrd, H. Dachsel, R. J. Doerksen,
 A. Dreuw, B. D. Dunietz, A. D. Dutoi, T. R. Furlani,
 S. R. Gwaltney, A. Heyden, S. Hirata, C.-P. Hsu, G. Kedziora,
 R. Z. Khaliullin, P. Klunzinger, A. M. Lee, M. S. Lee, W. Liang,
 I. Lotan, N. Nair, B. Peters, E. I. Proynov, P. A. Pieniazek, 
 Y. M. Rhee, J. Ritchie, E. Rosta, C. D. Sherrill, 
 A. C. Simmonett, J. E. Subotnik, H. L. Woodcock III,
 W. Zhang, A. T. Bell, A. K. Chakraborty, D. M. Chipman,
 F. J. Keil, A. Warshel, W. J. Hehre, H. F. Schaefer III,
 J. Kong, A. I. Krylov, P. M. W. Gill, M. Head-Gordon,
 Q-Chem, Version 3.1, Q-Chem, Inc., Pittsburgh, PA (2007).

 Additional authors for Version 3.1: 
 Z. Gan, Y. Zhao, N. E. Schultz, D. Truhlar, E. Epifanovsky and M. Oana.

 Additional authors for Version 3.2: 
 R. Baer, B. R. Brooks, D. Casanova, J.-D. Chai, C.-L. Cheng, 
 C. Cramer, D. Crittenden, A. Ghysels, G. Hawkins, E. G. Hohenstein, 
 C. Kelley, W. Kurlancheek, D. Liotard, E. Livshits, P. Manohar, 
 A. Marenich, D. Neuhauser, R. Olson, M. A. Rohrdanz, K. S. Thanthiriwatte, 
 A. J. W. Thom, V. Vanovschi, C. F. Williams, Q. Wu and Z.-Q. You. 


 Intel X86 Linux Version

 Q-chem begins on Thu Mar 20 00:52:53 2014  

 Parallel job on  1  processors
Processing $rem in /usr/local/qchem/config/preferences.

theFileMan(): MAXOPENFILES=974 MAX_SUB_FILE_NUM=16
Maximum size of a physical file is 2.0 GB, maximum size of a tmp-file is 32.0 GB


--------------------------------------------------------------
User input:
--------------------------------------------------------------

$molecule
0,1
O          0.01242        0.00000        0.00977
H         -0.00615        0.00000        0.96356
H          0.93501        0.00000       -0.23291
$end

$comment
neutral
$end

$xc_functional
C PBE   1.00
X wPBE  1.00
$end


$rem
SYMMETRY_DECOMPOSITION	0
LRC_DFT                 true
exchange 		general
BASIS                   g3large
omega			480
mem_static              760
max_scf_cycles          200
scf_final_print         1
sym_ignore              true
$end

--------------------------------------------------------------
 Writing REM_CC_EA            3
 ----------------------------------------------------
       Standard Nuclear Orientation (Angstroms)
    I     Atom         X            Y            Z
 ----------------------------------------------------
    1      O       0.012420     0.000000     0.009770
    2      H      -0.006150     0.000000     0.963560
    3      H       0.935010     0.000000    -0.232910
 ----------------------------------------------------
 Nuclear Repulsion Energy =     9.2229701796 hartrees
 There are        5 alpha and        5 beta electrons
 Requested basis set is G3large
 There are 22 shells and 62 basis functions

Total QAlloc Memory Limit   2000 MB
Mega-Array Size       743 MB
MEM_STATIC part       760 MB

                       Distance Matrix (Angstroms)
             O (  1)   H (  2)
   H (  2)  0.953971
   H (  3)  0.953974  1.522275
 
 A cutoff of  1.0D-08 yielded    253 shell pairs
 There are   2043 function pairs (  2475 Cartesian)
Evaluating contribution to one-electron hamiltonian from nuclear
 Smallest overlap matrix eigenvalue = 2.08E-03
 Multipole matrices computed through 2nd order

  Scale SEOQF with 1.000000e-01/1.000000e+00/1.000000e-01

 Standard Electronic Orientation quadrupole field applied
 Guess from superposition of atomic densities
 Warning:  Energy on first SCF cycle will be non-variational
 Long-range K will be added via erf
 Coulomb attenuation parameter = 0.48 bohr**(-1)
 A restricted Kohn-Sham SCF calculation will be
 performed using Pulay DIIS extrapolation
 Exchange:  wPBE + LR-HF      Correlation:  PBE
 Using SG-1 standard quadrature grid
 SCF converges when DIIS error is below 1.0E-05
 Requested basis set is G3large
 There are 22 shells and 62 basis functions
 A cutoff of  1.0D-08 yielded    253 shell pairs
 There are   2043 function pairs (  2475 Cartesian)
 ---------------------------------------
  Cycle       Energy         DIIS Error
 ---------------------------------------
    1     -76.3790209412      5.29E-02
    2     -76.3603264486      1.29E-02
    3     -76.3814263473      1.14E-02
    4     -76.4194229302      7.37E-04
    5     -76.4196128646      1.66E-04
    6     -76.4196385303      3.43E-05
    7     -76.4196404071      6.65E-06 Convergence criterion met
 ---------------------------------------
 One-Electron    Energy =  -123.1365803212
 Total Coulomb   Energy =    46.7993371959
 Alpha Exchange  Energy =    -1.1806825599
 Beta  Exchange  Energy =    -1.1806825599
 DFT   Exchange  Energy =    -6.6177529083
 DFT Correlation Energy =    -0.3262494334
 Nuclear Repu.   Energy =     9.2229701795
 Nuclear Attr.   Energy =  -199.3490484409
 Kinetic         Energy =    76.2124681197
 SCF time:  CPU 5.07 s  wall 5.74 s
 Final Alpha MO Eigenvalues
            1           2           3           4           5           6
    1 -19.0029569  -1.1867786  -0.6873579  -0.5378222  -0.4650479   0.0401657
            7           8           9          10
    1   0.0703304   0.2249026   0.2333640   0.2381746
 Analysis of SCF Wavefunction
 
 --------------------------------------------------------------
                    Orbital Energies (a.u.)
 --------------------------------------------------------------
 
 Alpha MOs
 -- Occupied --
-19.003  -1.187  -0.687  -0.538  -0.465
 -- Virtual --
  0.040   0.070   0.225   0.233   0.238   0.245   0.297   0.312
  0.611   0.651   0.741   0.784   0.871   0.990   1.010   1.132
  1.157   1.389   1.497   1.528   1.902   1.927   2.029   2.279
  2.364   2.569   2.968   3.721   3.762   3.768   4.012   4.206
  4.341   5.013   5.127   5.213   5.300   5.429   5.626   5.765
  5.877   6.995   7.032   7.119   7.159   7.415   7.486   7.618
 43.836  43.848  43.873  43.923  43.992  45.620  46.005  46.426
 49.818
 --------------------------------------------------------------
 
          Ground-State Mulliken Net Atomic Charges

     Atom                 Charge (a.u.)
  ----------------------------------------
      1 O                    -0.485451
      2 H                     0.242732
      3 H                     0.242719
  ----------------------------------------
  Sum of atomic charges =     0.000000

 -----------------------------------------------------------------
                    Cartesian Multipole Moments
 -----------------------------------------------------------------
    Charge (ESU x 10^10)
                 0.0000
    Dipole Moment (Debye)
         X       1.5850      Y       0.0000      Z       1.2468
       Tot       2.0166
    Quadrupole Moments (Debye-Ang)
        XX      -5.2679     XY       0.0000     YY      -7.6748
        XZ      -0.7675     YZ      -0.0001     ZZ      -4.8959
    Octapole Moments (Debye-Ang^2)
       XXX       0.2481    XXY       0.0000    XYY      -0.5031
       YYY       0.0000    XXZ      -0.8620    XYZ       0.0000
       YYZ      -0.3958    XZZ      -0.4219    YZZ      -0.0001
       ZZZ       0.7253
    Hexadecapole Moments (Debye-Ang^3)
      XXXX      -6.1060   XXXY       0.0001   XXYY      -2.5355
      XYYY       0.0001   YYYY      -7.1016   XXXZ      -0.5525
      XXYZ       0.0000   XYYZ       0.0007   YYYZ      -0.0001
      XXZZ      -2.5237   XYZZ       0.0000   YYZZ      -2.5358
      XZZZ      -0.1326   YZZZ      -0.0001   ZZZZ      -5.7739
 -----------------------------------------------------------------
 Total job time:  5.83s(wall), 5.14s(cpu) 
 Thu Mar 20 00:52:59 2014

        *************************************************************
        *                                                           *
        *  Thank you very much for using Q-Chem.  Have a nice day.  *
        *                                                           *
        *************************************************************


0 sent ACK to 0 
now end server 0 ... 
 
**********************************************************************
Job 3 of 3 
**********************************************************************
 
Process 0 of 1 is on cl122 - thread support 1
initial socket setup ...start
initial socket setup ...done 
now start server 0 ... 

cmd = /usr/bin/ssh clhead /usr/local/qchem/bin/get_hostid 657563189 > /tmp/1601927.1.medium.q/qchem18603/lic.dat

cmd = /usr/bin/ssh clhead /usr/local/qchem/bin/get_hostid 657563189 > /tmp/1601927.1.medium.q/qchem18603/lic.dat

cmd = /usr/bin/ssh clhead /usr/local/qchem/bin/get_hostid 657563189 > /tmp/1601927.1.medium.q/qchem18603/lic.dat

cmd = /usr/bin/ssh clhead /usr/local/qchem/bin/get_hostid 657563189 > /tmp/1601927.1.medium.q/qchem18603/lic.dat

cmd = /usr/bin/ssh clhead /usr/local/qchem/bin/get_hostid 657563189 > /tmp/1601927.1.medium.q/qchem18603/lic.dat
                  Welcome to Q-Chem
     A Quantum Leap Into The Future Of Chemistry

 Y. Shao, L. Fusti-Molnar, Y. Jung, J. Kussmann, C. Ochsenfeld,
 S. T. Brown, A. T. B. Gilbert, L. V. Slipchenko,S. V. Levchenko,
 D. P. O'Neill, R. A. DiStasio Jr., R. C. Lochan, T. Wang,
 G. J. O. Beran, N. A. Besley, J. M. Herbert, C. Y. Lin,
 T. Van Voorhis, S. H. Chien, A. Sodt, R. P. Steele, 
 V. A. Rassolov, P. E. Maslen, P. P. Korambath, R. D. Adamson,
 B. Austin, J. Baker, E. F. C. Byrd, H. Dachsel, R. J. Doerksen,
 A. Dreuw, B. D. Dunietz, A. D. Dutoi, T. R. Furlani,
 S. R. Gwaltney, A. Heyden, S. Hirata, C.-P. Hsu, G. Kedziora,
 R. Z. Khaliullin, P. Klunzinger, A. M. Lee, M. S. Lee, W. Liang,
 I. Lotan, N. Nair, B. Peters, E. I. Proynov, P. A. Pieniazek, 
 Y. M. Rhee, J. Ritchie, E. Rosta, C. D. Sherrill, 
 A. C. Simmonett, J. E. Subotnik, H. L. Woodcock III,
 W. Zhang, A. T. Bell, A. K. Chakraborty, D. M. Chipman,
 F. J. Keil, A. Warshel, W. J. Hehre, H. F. Schaefer III,
 J. Kong, A. I. Krylov, P. M. W. Gill, M. Head-Gordon,
 Q-Chem, Version 3.1, Q-Chem, Inc., Pittsburgh, PA (2007).

 Additional authors for Version 3.1: 
 Z. Gan, Y. Zhao, N. E. Schultz, D. Truhlar, E. Epifanovsky and M. Oana.

 Additional authors for Version 3.2: 
 R. Baer, B. R. Brooks, D. Casanova, J.-D. Chai, C.-L. Cheng, 
 C. Cramer, D. Crittenden, A. Ghysels, G. Hawkins, E. G. Hohenstein, 
 C. Kelley, W. Kurlancheek, D. Liotard, E. Livshits, P. Manohar, 
 A. Marenich, D. Neuhauser, R. Olson, M. A. Rohrdanz, K. S. Thanthiriwatte, 
 A. J. W. Thom, V. Vanovschi, C. F. Williams, Q. Wu and Z.-Q. You. 


 Intel X86 Linux Version

 Q-chem begins on Thu Mar 20 00:53:03 2014  

 Parallel job on  1  processors
Processing $rem in /usr/local/qchem/config/preferences.

theFileMan(): MAXOPENFILES=974 MAX_SUB_FILE_NUM=16
Maximum size of a physical file is 2.0 GB, maximum size of a tmp-file is 32.0 GB


--------------------------------------------------------------
User input:
--------------------------------------------------------------

$molecule
1,2
O          0.01242        0.00000        0.00977
H         -0.00615        0.00000        0.96356
H          0.93501        0.00000       -0.23291
$end

$comment
positive
$end

$xc_functional
C PBE   1.00
X wPBE  1.00
$end

$rem
SYMMETRY_DECOMPOSITION	0
LRC_DFT                 true
exchange 		general
BASIS                   g3large
omega			480
mem_static              760
max_scf_cycles          200
scf_final_print         1
sym_ignore              true
$end

--------------------------------------------------------------
 Writing REM_CC_EA            3
 ----------------------------------------------------
       Standard Nuclear Orientation (Angstroms)
    I     Atom         X            Y            Z
 ----------------------------------------------------
    1      O       0.012420     0.000000     0.009770
    2      H      -0.006150     0.000000     0.963560
    3      H       0.935010     0.000000    -0.232910
 ----------------------------------------------------
 Nuclear Repulsion Energy =     9.2229701796 hartrees
 There are        5 alpha and        4 beta electrons
 Requested basis set is G3large
 There are 22 shells and 62 basis functions

Total QAlloc Memory Limit   2000 MB
Mega-Array Size       743 MB
MEM_STATIC part       760 MB

                       Distance Matrix (Angstroms)
             O (  1)   H (  2)
   H (  2)  0.953971
   H (  3)  0.953974  1.522275
 
 A cutoff of  1.0D-08 yielded    253 shell pairs
 There are   2043 function pairs (  2475 Cartesian)
Evaluating contribution to one-electron hamiltonian from nuclear
 Smallest overlap matrix eigenvalue = 2.08E-03
 Multipole matrices computed through 2nd order

  Scale SEOQF with 1.000000e-01/1.000000e+00/1.000000e-01

 Standard Electronic Orientation quadrupole field applied
 Guess from superposition of atomic densities
 Warning:  Energy on first SCF cycle will be non-variational
 Long-range K will be added via erf
 Coulomb attenuation parameter = 0.48 bohr**(-1)
 An unrestricted Kohn-Sham SCF calculation will be
 performed using Pulay DIIS extrapolation
 Exchange:  wPBE + LR-HF      Correlation:  PBE
 Using SG-1 standard quadrature grid
 SCF converges when DIIS error is below 1.0E-05
 Requested basis set is G3large
 There are 22 shells and 62 basis functions
 A cutoff of  1.0D-08 yielded    253 shell pairs
 There are   2043 function pairs (  2475 Cartesian)
 Warning!  Inaccurate integrated density:
   Number of electrons =     9
   Numerical integral  =     9.999980735338
   Relative error      =    11.1108970593 %
 ---------------------------------------
  Cycle       Energy         DIIS Error
 ---------------------------------------
    1     -76.3790209412      5.29E-02
    2     -75.8965728999      9.24E-03
    3     -75.9390487019      4.90E-03
    4     -75.9463773763      9.35E-04
    5     -75.9475268654      3.80E-04
    6     -75.9480789893      2.30E-04
    7     -75.9485730038      1.21E-04
    8     -75.9487502265      7.18E-05
    9     -75.9488268171      4.15E-05
   10     -75.9488589910      7.74E-06 Convergence criterion met
 ---------------------------------------
 One-Electron    Energy =  -118.2211408774
 Total Coulomb   Energy =    42.0089024079
 Alpha Exchange  Energy =    -1.2072199113
 Beta  Exchange  Energy =    -0.9631985243
 DFT   Exchange  Energy =    -6.5033506811
 DFT Correlation Energy =    -0.2858215843
 Nuclear Repu.   Energy =     9.2229701795
 Nuclear Attr.   Energy =  -194.1605546157
 Kinetic         Energy =    75.9394137383
 <S^2> = 0.7525
 SCF time:  CPU 8.20 s  wall 9.18 s
 Final Alpha MO Eigenvalues
            1           2           3           4           5           6
    1 -19.5633965  -1.7056454  -1.1640290  -1.0384348  -1.0221750  -0.1945504
            7           8           9          10
    1  -0.1243885  -0.0341785  -0.0331852  -0.0228881
 Final Beta MO Eigenvalues
            1           2           3           4           5           6
    1 -19.5384344  -1.6320162  -1.1428143  -0.9925794  -0.4745711  -0.1883043
            7           8           9
    1  -0.1215495  -0.0296026  -0.0212809
 Analysis of SCF Wavefunction
 
 --------------------------------------------------------------
                    Orbital Energies (a.u.)
 --------------------------------------------------------------
 
 Alpha MOs
 -- Occupied --
-19.563  -1.706  -1.164  -1.038  -1.022
 -- Virtual --
 -0.195  -0.124  -0.034  -0.033  -0.023  -0.014   0.053   0.057
  0.292   0.324   0.391   0.421   0.505   0.633   0.671   0.734
  0.804   1.000   1.122   1.132   1.442   1.466   1.605   1.893
  1.928   2.160   2.546   3.292   3.336   3.353   3.599   3.776
  3.908   4.431   4.604   4.668   4.754   4.955   5.102   5.259
  5.415   6.419   6.457   6.619   6.662   6.855   7.010   7.121
 43.251  43.263  43.291  43.365  43.454  45.029  45.458  45.877
 49.261
 
 Beta MOs
 -- Occupied --
-19.538  -1.632  -1.143  -0.993
 -- Virtual --
 -0.475  -0.188  -0.122  -0.030  -0.021  -0.014  -0.011   0.059
  0.061   0.293   0.329   0.399   0.440   0.529   0.655   0.677
  0.800   0.805   1.030   1.141   1.153   1.498   1.522   1.617
  1.898   1.982   2.166   2.556   3.301   3.349   3.351   3.599
  3.782   3.920   4.568   4.663   4.754   4.840   4.971   5.182
  5.309   5.422   6.530   6.568   6.648   6.699   6.976   7.027
  7.142  43.315  43.327  43.347  43.402  43.460  45.104  45.473
 45.894  49.287
 --------------------------------------------------------------
 
          Ground-State Mulliken Net Atomic Charges

     Atom                 Charge (a.u.)    Spin (a.u.)
  --------------------------------------------------------
      1 O                     0.306490       1.041621
      2 H                     0.346758      -0.020809
      3 H                     0.346751      -0.020812
  --------------------------------------------------------
  Sum of atomic charges =     1.000000
  Sum of spin   charges =     1.000000

 -----------------------------------------------------------------
                    Cartesian Multipole Moments
 -----------------------------------------------------------------
    Charge (ESU x 10^10)
                 4.8032
    Dipole Moment (Debye)
         X       2.1758      Y      -0.0003      Z       1.7115
       Tot       2.7683
    Quadrupole Moments (Debye-Ang)
        XX      -3.0699     XY       0.0005     YY      -4.7336
        XZ      -0.7950     YZ       0.0003     ZZ      -2.6846
    Octapole Moments (Debye-Ang^2)
       XXX       1.2804    XXY       0.0001    XYY      -0.3119
       YYY      -0.0002    XXZ      -0.8975    XYZ       0.0000
       YYZ      -0.2453    XZZ      -0.2445    YZZ       0.0000
       ZZZ       1.7124
    Hexadecapole Moments (Debye-Ang^3)
      XXXX      -2.3609   XXXY       0.0003   XXYY      -1.2533
      XYYY       0.0003   YYYY      -2.7146   XXXZ      -0.6059
      XXYZ       0.0001   XYYZ       0.0180   YYYZ       0.0002
      XXZZ      -1.4546   XYZZ       0.0001   YYZZ      -1.2621
      XZZZ      -0.0494   YZZZ       0.0002   ZZZZ      -2.0434
 -----------------------------------------------------------------
 Total job time:  9.28s(wall), 8.27s(cpu) 
 Thu Mar 20 00:53:12 2014

        *************************************************************
        *                                                           *
        *  Thank you very much for using Q-Chem.  Have a nice day.  *
        *                                                           *
        *************************************************************


0 sent ACK to 0 
now end server 0 ... 
