Process 0 of 1 is on cl077.stfx.acenet.ca - thread support 1
initial socket setup ...start
initial socket setup ...done 
now start server 0 ... 

cmd = /usr/bin/ssh clhead /usr/local/qchem/bin/get_hostid 337340613 > /scratch/tmp/6027802.1.short.q/qchem28860/lic.dat
                  Welcome to Q-Chem
     A Quantum Leap Into The Future Of Chemistry

 Y. Shao, L. Fusti-Molnar, Y. Jung, J. Kussmann, C. Ochsenfeld,
 S. T. Brown, A. T. B. Gilbert, L. V. Slipchenko,S. V. Levchenko,
 D. P. O'Neill, R. A. DiStasio Jr., R. C. Lochan, T. Wang,
 G. J. O. Beran, N. A. Besley, J. M. Herbert, C. Y. Lin,
 T. Van Voorhis, S. H. Chien, A. Sodt, R. P. Steele, 
 V. A. Rassolov, P. E. Maslen, P. P. Korambath, R. D. Adamson,
 B. Austin, J. Baker, E. F. C. Byrd, H. Dachsel, R. J. Doerksen,
 A. Dreuw, B. D. Dunietz, A. D. Dutoi, T. R. Furlani,
 S. R. Gwaltney, A. Heyden, S. Hirata, C.-P. Hsu, G. Kedziora,
 R. Z. Khaliullin, P. Klunzinger, A. M. Lee, M. S. Lee, W. Liang,
 I. Lotan, N. Nair, B. Peters, E. I. Proynov, P. A. Pieniazek, 
 Y. M. Rhee, J. Ritchie, E. Rosta, C. D. Sherrill, 
 A. C. Simmonett, J. E. Subotnik, H. L. Woodcock III,
 W. Zhang, A. T. Bell, A. K. Chakraborty, D. M. Chipman,
 F. J. Keil, A. Warshel, W. J. Hehre, H. F. Schaefer III,
 J. Kong, A. I. Krylov, P. M. W. Gill, M. Head-Gordon,
 Q-Chem, Version 3.1, Q-Chem, Inc., Pittsburgh, PA (2007).

 Additional authors for Version 3.1: 
 Z. Gan, Y. Zhao, N. E. Schultz, D. Truhlar, E. Epifanovsky and M. Oana.

 Additional authors for Version 3.2: 
 R. Baer, B. R. Brooks, D. Casanova, J.-D. Chai, C.-L. Cheng, 
 C. Cramer, D. Crittenden, A. Ghysels, G. Hawkins, E. G. Hohenstein, 
 C. Kelley, W. Kurlancheek, D. Liotard, E. Livshits, P. Manohar, 
 A. Marenich, D. Neuhauser, R. Olson, M. A. Rohrdanz, K. S. Thanthiriwatte, 
 A. J. W. Thom, V. Vanovschi, C. F. Williams, Q. Wu and Z.-Q. You. 


 Intel X86 Linux Version

 Q-chem begins on Mon Jun  3 17:04:50 2013  

 Parallel job on  1  processors
Processing $rem in /usr/local/qchem/config/preferences.

theFileMan(): MAXOPENFILES=974 MAX_SUB_FILE_NUM=16
Maximum size of a physical file is 2.0 GB, maximum size of a tmp-file is 32.0 GB


--------------------------------------------------------------
User input:
--------------------------------------------------------------

$molecule
-1,1
C
C,1,CC
O,2,CO,1,OCC
X,3,0.97,2,107.,1,180.,0
X,2,1.,1,XCC,3,180.,0
H,2,CH,5,A1,1,90.,0
H,2,CH,5,A1,1,-90.,0
H,1,CH3,2,H3CC,3,180.,0
X,1,1.,2,YCC,3,0.,0
H,1,CH4,9,A2,2,90.,0
H,1,CH4,9,A2,2,-90.,0

CC=1.55380371
CO=1.3708761
OCC=106.53444686
XCC=122.81869313
CH=1.10383091
A1=54.76163191
CH3=1.09470615
H3CC=108.59935331
YCC=126.7607798
CH4=1.09293226
A2=54.53735592

$end

$comment
negative
$end

$xc_functional
   X HF 1.0
   X BNL 1.0
   C LYP 1.0
$end

$rem
SYMMETRY_DECOMPOSITION	0
exchange 		general
BASIS                   g3large
omega			410
separate_jk		true
mem_static              760
max_scf_cycles          200
scf_final_print         1
sym_ignore              true
$end

--------------------------------------------------------------
 Writing REM_CC_EA            8
 ----------------------------------------------------
       Standard Nuclear Orientation (Angstroms)
    I     Atom         X            Y            Z
 ----------------------------------------------------
    1      C       0.000000     0.000000     0.000000
    2      C       0.000000     0.000000     1.553804
    3      O       1.314189     0.000000     1.943944
    4      H      -0.535234     0.901564     1.898986
    5      H      -0.535234    -0.901564     1.898986
    6      H      -1.037532     0.000000    -0.349155
    7      H       0.507995     0.890187    -0.379486
    8      H       0.507995    -0.890187    -0.379486
 ----------------------------------------------------
 Nuclear Repulsion Energy =    74.3897211119 hartrees
 There are       13 alpha and       13 beta electrons
 Requested basis set is G3large
 There are 60 shells and 176 basis functions

Total QAlloc Memory Limit   2000 MB
Mega-Array Size       743 MB
MEM_STATIC part       760 MB

                       Distance Matrix (Angstroms)
             C (  1)   C (  2)   O (  3)   H (  4)   H (  5)   H (  6)
   C (  2)  1.553804
   O (  3)  2.346489  1.370876
   H (  4)  2.169202  1.103831  2.057961
   H (  5)  2.169202  1.103831  2.057961  1.803127
   H (  6)  1.094706  2.167423  3.284645  2.473713  2.473713
   H (  7)  1.092932  2.188173  2.615475  2.505971  3.080605  1.783817
   H (  8)  1.092932  2.188173  2.615475  3.080605  2.505971  1.783817
             H (  7)
   H (  8)  1.780373
 
 A cutoff of  1.0D-08 yielded   1760 shell pairs
 There are  15158 function pairs ( 18470 Cartesian)
Evaluating contribution to one-electron hamiltonian from nuclear
 Smallest overlap matrix eigenvalue = 1.37E-04
 Multipole matrices computed through 2nd order

  Scale SEOQF with 1.000000e-01/1.000000e-01/1.000000e-01

 Standard Electronic Orientation quadrupole field applied
 Nucleus-field energy     =    -0.0000000048 hartrees
 Guess from superposition of atomic densities
 Warning:  Energy on first SCF cycle will be non-variational
 A restricted hybrid HF-DFT SCF calculation will be
 performed using Pulay DIIS extrapolation
 Exchange:     1.0000 Hartree-Fock + 1.0000 BNL
 Correlation:  1.0000 LYP
 Using SG-1 standard quadrature grid
 SCF converges when DIIS error is below 1.0E-05
 Warning!  Inaccurate integrated density:
   Number of electrons =    26
   Numerical integral  =    24.999848811569
   Relative error      =    -3.8467353401 %
 ---------------------------------------
  Cycle       Energy         DIIS Error
 ---------------------------------------
    1    -153.1944460680      3.12E-02
    2    -152.6453967552      7.33E-03
    3    -151.5184224396      1.78E-02
    4    -152.8268823167      1.95E-03
    5    -152.8409548781      7.00E-04
    6    -152.8429572586      1.50E-04
    7    -152.8430920560      5.60E-05
    8    -152.8431151465      2.01E-05
    9    -152.8431175167      7.96E-06 Convergence criterion met
 ---------------------------------------
 One-Electron    Energy =  -362.6582831618
 Total Coulomb   Energy =   155.2034015687
 Alpha Exchange  Energy =    -2.6184160361
 Beta  Exchange  Energy =    -2.6184160361
 DFT   Exchange  Energy =   -13.6886775214
 DFT Correlation Energy =    -0.8524474369
 Nuclear Repu.   Energy =    74.3897211070
 Nuclear Attr.   Energy =  -514.7686977505
 Kinetic         Energy =   152.1104145887
 SCF time:  CPU 70.38 s  wall 70.98 s
 Final Alpha MO Eigenvalues
            1           2           3           4           5           6
    1 -18.4482439  -9.7927216  -9.7724492  -0.8090696  -0.6515126  -0.5031658
            7           8           9          10          11          12
    1  -0.3770000  -0.3409607  -0.2941876  -0.2759699  -0.2265823  -0.0801318
           13          14          15          16          17          18
    1  -0.0767786   0.1534028   0.1698750   0.1757603   0.1855627   0.2091412
 Analysis of SCF Wavefunction
 
 --------------------------------------------------------------
                    Orbital Energies (a.u.)
 --------------------------------------------------------------
 
 Alpha MOs
 -- Occupied --
-18.448  -9.793  -9.772  -0.809  -0.652  -0.503  -0.377  -0.341
 -0.294  -0.276  -0.227  -0.080  -0.077
 -- Virtual --
  0.153   0.170   0.176   0.186   0.209   0.260   0.264   0.278
  0.286   0.306   0.319   0.330   0.332   0.410   0.418   0.449
  0.462   0.479   0.514   0.524   0.549   0.552   0.588   0.654
  0.693   0.707   0.740   0.754   0.816   0.832   0.840   0.855
  0.858   0.904   0.904   0.923   0.939   1.022   1.094   1.123
  1.157   1.245   1.276   1.341   1.351   1.352   1.414   1.434
  1.437   1.467   1.475   1.513   1.523   1.576   1.621   1.628
  1.649   1.700   1.717   1.745   1.766   1.788   1.799   1.832
  1.885   2.095   2.109   2.157   2.367   2.480   2.720   2.724
  2.809   2.878   2.937   2.940   3.130   3.140   3.147   3.246
  3.286   3.384   3.385   3.402   3.486   3.537   3.568   3.592
  3.622   3.680   3.727   3.815   3.847   3.878   3.880   3.912
  3.984   4.029   4.153   4.193   4.267   4.288   4.308   4.351
  4.404   4.504   4.531   4.541   4.605   4.627   4.745   4.749
  4.813   4.836   4.865   4.959   5.410   5.413   5.458   5.516
  5.557   5.651   5.684   5.757   5.831   5.908   5.943   5.990
  6.308   6.313   6.918   7.273   7.289   7.687   7.695   7.977
 24.580  24.747  27.872  28.329  28.370  28.417  28.457  28.671
 41.161  41.185  41.209  41.259  41.459  41.476  41.499  41.508
 41.533  41.559  44.033  44.104  44.178  44.225  44.265  46.126
 46.145  46.669  50.457
 --------------------------------------------------------------
 
          Ground-State Mulliken Net Atomic Charges

     Atom                 Charge (a.u.)
  ----------------------------------------
      1 C                    -0.141671
      2 C                    -0.211711
      3 O                    -0.752226
      4 H                    -0.003994
      5 H                    -0.003235
      6 H                    -0.034445
      7 H                     0.073737
      8 H                     0.073545
  ----------------------------------------
  Sum of atomic charges =    -1.000000

 -----------------------------------------------------------------
                    Cartesian Multipole Moments
 -----------------------------------------------------------------
    Charge (ESU x 10^10)
                -4.8032
    Dipole Moment (Debye)
         X      -5.2088      Y      -0.0007      Z      -8.1771
       Tot       9.6952
    Quadrupole Moments (Debye-Ang)
        XX     -34.1837     XY       0.0059     YY     -24.4134
        XZ     -11.5078     YZ      -0.0014     ZZ     -42.3858
    Octapole Moments (Debye-Ang^2)
       XXX     -37.4490    XXY      -0.0011    XYY      -8.4301
       YYY      -0.0059    XXZ     -45.0993    XYZ       0.0104
       YYZ     -27.3778    XZZ     -31.9083    YZZ      -0.0033
       ZZZ    -115.8035
    Hexadecapole Moments (Debye-Ang^3)
      XXXX    -149.3296   XXXY       0.0284   XXYY     -33.8030
      XYYY       0.0324   YYYY     -53.0060   XXXZ     -73.2340
      XXYZ      -0.0020   XYYZ     -18.2633   YYYZ      -0.0133
      XXZZ    -116.4137   XYZZ       0.0291   YYZZ     -67.5082
      XZZZ    -102.1006   YZZZ      -0.0096   ZZZZ    -420.5093
 -----------------------------------------------------------------
 Total job time:  71.20s(wall), 70.58s(cpu) 
 Mon Jun  3 17:06:01 2013

        *************************************************************
        *                                                           *
        *  Thank you very much for using Q-Chem.  Have a nice day.  *
        *                                                           *
        *************************************************************


0 sent ACK to 0 
now end server 0 ... 
 
**********************************************************************
Job 2 of 3 
**********************************************************************
 
Process 0 of 1 is on cl077.stfx.acenet.ca - thread support 1
initial socket setup ...start
initial socket setup ...done 
now start server 0 ... 

cmd = /usr/bin/ssh clhead /usr/local/qchem/bin/get_hostid 64496305 > /scratch/tmp/6027802.1.short.q/qchem28860/lic.dat
                  Welcome to Q-Chem
     A Quantum Leap Into The Future Of Chemistry

 Y. Shao, L. Fusti-Molnar, Y. Jung, J. Kussmann, C. Ochsenfeld,
 S. T. Brown, A. T. B. Gilbert, L. V. Slipchenko,S. V. Levchenko,
 D. P. O'Neill, R. A. DiStasio Jr., R. C. Lochan, T. Wang,
 G. J. O. Beran, N. A. Besley, J. M. Herbert, C. Y. Lin,
 T. Van Voorhis, S. H. Chien, A. Sodt, R. P. Steele, 
 V. A. Rassolov, P. E. Maslen, P. P. Korambath, R. D. Adamson,
 B. Austin, J. Baker, E. F. C. Byrd, H. Dachsel, R. J. Doerksen,
 A. Dreuw, B. D. Dunietz, A. D. Dutoi, T. R. Furlani,
 S. R. Gwaltney, A. Heyden, S. Hirata, C.-P. Hsu, G. Kedziora,
 R. Z. Khaliullin, P. Klunzinger, A. M. Lee, M. S. Lee, W. Liang,
 I. Lotan, N. Nair, B. Peters, E. I. Proynov, P. A. Pieniazek, 
 Y. M. Rhee, J. Ritchie, E. Rosta, C. D. Sherrill, 
 A. C. Simmonett, J. E. Subotnik, H. L. Woodcock III,
 W. Zhang, A. T. Bell, A. K. Chakraborty, D. M. Chipman,
 F. J. Keil, A. Warshel, W. J. Hehre, H. F. Schaefer III,
 J. Kong, A. I. Krylov, P. M. W. Gill, M. Head-Gordon,
 Q-Chem, Version 3.1, Q-Chem, Inc., Pittsburgh, PA (2007).

 Additional authors for Version 3.1: 
 Z. Gan, Y. Zhao, N. E. Schultz, D. Truhlar, E. Epifanovsky and M. Oana.

 Additional authors for Version 3.2: 
 R. Baer, B. R. Brooks, D. Casanova, J.-D. Chai, C.-L. Cheng, 
 C. Cramer, D. Crittenden, A. Ghysels, G. Hawkins, E. G. Hohenstein, 
 C. Kelley, W. Kurlancheek, D. Liotard, E. Livshits, P. Manohar, 
 A. Marenich, D. Neuhauser, R. Olson, M. A. Rohrdanz, K. S. Thanthiriwatte, 
 A. J. W. Thom, V. Vanovschi, C. F. Williams, Q. Wu and Z.-Q. You. 


 Intel X86 Linux Version

 Q-chem begins on Mon Jun  3 17:06:04 2013  

 Parallel job on  1  processors
Processing $rem in /usr/local/qchem/config/preferences.

theFileMan(): MAXOPENFILES=974 MAX_SUB_FILE_NUM=16
Maximum size of a physical file is 2.0 GB, maximum size of a tmp-file is 32.0 GB


--------------------------------------------------------------
User input:
--------------------------------------------------------------

$molecule
0,2
C
C,1,CC
O,2,CO,1,OCC
X,3,0.97,2,107.,1,180.,0
X,2,1.,1,XCC,3,180.,0
H,2,CH,5,A1,1,90.,0
H,2,CH,5,A1,1,-90.,0
H,1,CH3,2,H3CC,3,180.,0
X,1,1.,2,YCC,3,0.,0
H,1,CH4,9,A2,2,90.,0
H,1,CH4,9,A2,2,-90.,0

CC=1.55380371
CO=1.3708761
OCC=106.53444686
XCC=122.81869313
CH=1.10383091
A1=54.76163191
CH3=1.09470615
H3CC=108.59935331
YCC=126.7607798
CH4=1.09293226
A2=54.53735592

$end

$comment
neutral
$end

$xc_functional
   X HF 1.0
   X BNL 1.0
   C LYP 1.0
$end

$rem
SYMMETRY_DECOMPOSITION	0
exchange 		general
BASIS                   g3large
omega			410
separate_jk		true
mem_static              760
max_scf_cycles          200
scf_final_print         1
sym_ignore              true
$end

--------------------------------------------------------------
 Writing REM_CC_EA            8
 ----------------------------------------------------
       Standard Nuclear Orientation (Angstroms)
    I     Atom         X            Y            Z
 ----------------------------------------------------
    1      C       0.000000     0.000000     0.000000
    2      C       0.000000     0.000000     1.553804
    3      O       1.314189     0.000000     1.943944
    4      H      -0.535234     0.901564     1.898986
    5      H      -0.535234    -0.901564     1.898986
    6      H      -1.037532     0.000000    -0.349155
    7      H       0.507995     0.890187    -0.379486
    8      H       0.507995    -0.890187    -0.379486
 ----------------------------------------------------
 Nuclear Repulsion Energy =    74.3897211119 hartrees
 There are       13 alpha and       12 beta electrons
 Requested basis set is G3large
 There are 60 shells and 176 basis functions

Total QAlloc Memory Limit   2000 MB
Mega-Array Size       743 MB
MEM_STATIC part       760 MB

                       Distance Matrix (Angstroms)
             C (  1)   C (  2)   O (  3)   H (  4)   H (  5)   H (  6)
   C (  2)  1.553804
   O (  3)  2.346489  1.370876
   H (  4)  2.169202  1.103831  2.057961
   H (  5)  2.169202  1.103831  2.057961  1.803127
   H (  6)  1.094706  2.167423  3.284645  2.473713  2.473713
   H (  7)  1.092932  2.188173  2.615475  2.505971  3.080605  1.783817
   H (  8)  1.092932  2.188173  2.615475  3.080605  2.505971  1.783817
             H (  7)
   H (  8)  1.780373
 
 A cutoff of  1.0D-08 yielded   1760 shell pairs
 There are  15158 function pairs ( 18470 Cartesian)
Evaluating contribution to one-electron hamiltonian from nuclear
 Smallest overlap matrix eigenvalue = 1.37E-04
 Multipole matrices computed through 2nd order

  Scale SEOQF with 1.000000e-01/1.000000e-01/1.000000e-01

 Standard Electronic Orientation quadrupole field applied
 Nucleus-field energy     =    -0.0000000048 hartrees
 Guess from superposition of atomic densities
 Warning:  Energy on first SCF cycle will be non-variational
 An unrestricted hybrid HF-DFT SCF calculation will be
 performed using Pulay DIIS extrapolation
 Exchange:     1.0000 Hartree-Fock + 1.0000 BNL
 Correlation:  1.0000 LYP
 Using SG-1 standard quadrature grid
 SCF converges when DIIS error is below 1.0E-05
 ---------------------------------------
  Cycle       Energy         DIIS Error
 ---------------------------------------
    1    -153.1944460680      3.12E-02
    2    -152.7124538005      3.54E-03
    3    -152.7407214279      3.46E-03
    4    -152.7753399817      4.87E-04
    5    -152.7776983279      3.09E-04
    6    -152.7786875175      1.02E-04
    7    -152.7790609475      4.66E-05
    8    -152.7791686405      1.99E-05
    9    -152.7791964629      1.58E-05
   10    -152.7792142187      1.52E-05
   11    -152.7792333307      1.52E-05
   12    -152.7792337028      1.52E-05
   13    -152.7792344560      1.52E-05
   14    -152.7792517748      1.52E-05
   15    -152.7792689567      1.53E-05
   16    -152.7790665094      1.54E-05
   17    -152.7790101978      1.57E-05
   18    -152.7790117329      1.58E-05
   19    -152.7790286238      1.45E-05
   20    -152.7790441877      1.46E-05
   21    -152.7790485584      1.46E-05
   22    -152.7790420498      1.45E-05
   23    -152.7790219081      1.45E-05
   24    -152.7789044789      1.44E-05
   25    -152.7787165930      1.65E-05
   26    -152.7787299917      1.33E-05
   27    -152.7787407856      1.33E-05
   28    -152.7787492393      1.30E-05
   29    -152.7787463629      1.30E-05
   30    -152.7787376804      1.29E-05
   31    -152.7786426483      1.32E-05
   32    -152.7786555309      1.24E-05
   33    -152.7786668353      1.25E-05
   34    -152.7786717213      1.25E-05
   35    -152.7786438902      1.23E-05
   36    -152.7785887313      1.20E-05
   37    -152.7783866120      1.50E-05
   38    -152.7783675263      1.94E-05
   39    -152.7781417566      3.59E-05
   40    -152.7781500391      3.56E-05
   41    -152.7781200042      3.82E-05
   42    -152.7781145715      4.30E-05
   43    -152.7779252345      1.15E-04
   44    -152.7779910400      4.05E-05
   45    -152.7779998744      1.90E-05
   46    -152.7780015658      3.47E-06 Convergence criterion met
 ---------------------------------------
 One-Electron    Energy =  -355.9415476042
 Total Coulomb   Energy =   148.2829849528
 Alpha Exchange  Energy =    -2.6531655051
 Beta  Exchange  Energy =    -2.4348105821
 DFT   Exchange  Energy =   -13.6027061523
 DFT Correlation Energy =    -0.8184777820
 Nuclear Repu.   Energy =    74.3897211070
 Nuclear Attr.   Energy =  -507.9298833163
 Kinetic         Energy =   151.9883357121
 <S^2> = 0.7538
 SCF time:  CPU 396.59 s  wall 398.96 s
 Final Alpha MO Eigenvalues
            1           2           3           4           5           6
    1 -18.8446687 -10.0429358  -9.9714314  -1.1583403  -0.8820942  -0.7522086
            7           8           9          10          11          12
    1  -0.6385154  -0.5935625  -0.5461066  -0.5126519  -0.5046956  -0.4507297
           13          14          15          16          17          18
    1  -0.4020832   0.0309970   0.0499171   0.0533525   0.0654303   0.0875798
 Final Beta MO Eigenvalues
            1           2           3           4           5           6
    1 -18.8204459 -10.0436610  -9.9715241  -1.1148350  -0.8724716  -0.7394668
            7           8           9          10          11          12
    1  -0.6017958  -0.5781037  -0.5336338  -0.4992793  -0.4877446  -0.3803983
           13          14          15          16          17
    1  -0.0592622   0.0307523   0.0498580   0.0529781   0.0653896
 Analysis of SCF Wavefunction
 
 --------------------------------------------------------------
                    Orbital Energies (a.u.)
 --------------------------------------------------------------
 
 Alpha MOs
 -- Occupied --
-18.845 -10.043  -9.971  -1.158  -0.882  -0.752  -0.639  -0.594
 -0.546  -0.513  -0.505  -0.451  -0.402
 -- Virtual --
  0.031   0.050   0.053   0.065   0.088   0.108   0.118   0.133
  0.137   0.161   0.166   0.175   0.184   0.238   0.243   0.259
  0.269   0.295   0.302   0.329   0.336   0.357   0.373   0.430
  0.507   0.513   0.530   0.552   0.626   0.626   0.630   0.644
  0.653   0.671   0.680   0.725   0.750   0.815   0.880   0.885
  0.972   1.021   1.045   1.096   1.110   1.129   1.172   1.188
  1.208   1.251   1.253   1.262   1.265   1.351   1.372   1.402
  1.434   1.487   1.487   1.532   1.550   1.564   1.568   1.606
  1.690   1.797   1.807   1.831   2.084   2.162   2.415   2.497
  2.600   2.648   2.698   2.721   2.898   2.904   2.921   3.047
  3.055   3.141   3.155   3.176   3.271   3.319   3.321   3.361
  3.397   3.427   3.482   3.588   3.617   3.640   3.644   3.668
  3.725   3.802   3.913   3.963   4.042   4.074   4.088   4.110
  4.175   4.292   4.301   4.332   4.357   4.382   4.508   4.527
  4.591   4.616   4.645   4.728   4.999   5.088   5.105   5.128
  5.216   5.333   5.394   5.423   5.519   5.648   5.739   5.761
  5.951   5.987   6.581   6.859   6.877   7.279   7.337   7.608
 24.375  24.501  27.646  28.077  28.142  28.217  28.237  28.448
 40.924  40.961  40.991  41.039  41.209  41.248  41.273  41.287
 41.309  41.360  43.610  43.685  43.789  43.804  43.872  45.707
 45.760  46.283  50.061
 
 Beta MOs
 -- Occupied --
-18.820 -10.044  -9.972  -1.115  -0.872  -0.739  -0.602  -0.578
 -0.534  -0.499  -0.488  -0.380
 -- Virtual --
 -0.059   0.031   0.050   0.053   0.065   0.089   0.109   0.118
  0.135   0.138   0.161   0.167   0.175   0.184   0.239   0.247
  0.261   0.277   0.297   0.307   0.333   0.343   0.358   0.375
  0.435   0.510   0.515   0.537   0.554   0.627   0.630   0.633
  0.645   0.657   0.676   0.687   0.727   0.750   0.817   0.884
  0.889   0.973   1.025   1.052   1.103   1.121   1.132   1.180
  1.212   1.216   1.253   1.258   1.267   1.275   1.355   1.388
  1.403   1.437   1.491   1.496   1.536   1.552   1.568   1.577
  1.611   1.693   1.825   1.826   1.864   2.092   2.193   2.432
  2.504   2.603   2.653   2.705   2.723   2.901   2.905   2.924
  3.048   3.057   3.146   3.157   3.180   3.272   3.320   3.329
  3.365   3.398   3.429   3.488   3.590   3.620   3.641   3.647
  3.670   3.730   3.804   3.919   3.967   4.046   4.077   4.090
  4.116   4.178   4.302   4.303   4.334   4.369   4.390   4.514
  4.531   4.597   4.618   4.650   4.735   5.082   5.110   5.157
  5.185   5.255   5.372   5.410   5.441   5.545   5.665   5.740
  5.767   5.994   6.003   6.604   6.941   6.958   7.356   7.365
  7.648  24.374  24.501  27.645  28.076  28.142  28.217  28.236
 28.448  40.924  40.960  40.991  41.039  41.209  41.247  41.273
 41.286  41.309  41.360  43.676  43.746  43.816  43.866  43.904
 45.756  45.777  46.300  50.090
 --------------------------------------------------------------
 
          Ground-State Mulliken Net Atomic Charges

     Atom                 Charge (a.u.)    Spin (a.u.)
  --------------------------------------------------------
      1 C                    -0.296228       0.001021
      2 C                    -0.209895      -0.054294
      3 O                    -0.148227       0.891718
      4 H                     0.151422       0.082910
      5 H                     0.148845       0.076807
      6 H                     0.096985      -0.001900
      7 H                     0.128586       0.001745
      8 H                     0.128511       0.001992
  --------------------------------------------------------
  Sum of atomic charges =     0.000000
  Sum of spin   charges =     1.000000

 -----------------------------------------------------------------
                    Cartesian Multipole Moments
 -----------------------------------------------------------------
    Charge (ESU x 10^10)
                 0.0000
    Dipole Moment (Debye)
         X      -2.1353      Y       0.0151      Z      -0.6330
       Tot       2.2272
    Quadrupole Moments (Debye-Ang)
        XX     -22.8380     XY      -0.0252     YY     -18.2380
        XZ      -4.7205     YZ       0.0654     ZZ     -22.6156
    Octapole Moments (Debye-Ang^2)
       XXX     -25.3391    XXY      -0.0096    XYY      -5.9894
       YYY       0.0261    XXZ     -27.0189    XYZ       0.0035
       YYZ     -18.2187    XZZ     -16.4757    YZZ       0.2017
       ZZZ     -70.8178
    Hexadecapole Moments (Debye-Ang^3)
      XXXX     -98.2845   XXXY      -0.0909   XXYY     -19.5989
      XYYY      -0.0393   YYYY     -32.7134   XXXZ     -47.7506
      XXYZ       0.0628   XYYZ     -13.7304   YYYZ       0.0773
      XXZZ     -71.0362   XYZZ       0.1012   YYZZ     -43.3669
      XZZZ     -61.6180   YZZZ       0.5788   ZZZZ    -286.7725
 -----------------------------------------------------------------
 Total job time:  399.16s(wall), 396.78s(cpu) 
 Mon Jun  3 17:12:43 2013

        *************************************************************
        *                                                           *
        *  Thank you very much for using Q-Chem.  Have a nice day.  *
        *                                                           *
        *************************************************************


0 sent ACK to 0 
now end server 0 ... 
 
**********************************************************************
Job 3 of 3 
**********************************************************************
 
Process 0 of 1 is on cl077.stfx.acenet.ca - thread support 1
initial socket setup ...start
initial socket setup ...done 
now start server 0 ... 

cmd = /usr/bin/ssh clhead /usr/local/qchem/bin/get_hostid 524162193 > /scratch/tmp/6027802.1.short.q/qchem28860/lic.dat
                  Welcome to Q-Chem
     A Quantum Leap Into The Future Of Chemistry

 Y. Shao, L. Fusti-Molnar, Y. Jung, J. Kussmann, C. Ochsenfeld,
 S. T. Brown, A. T. B. Gilbert, L. V. Slipchenko,S. V. Levchenko,
 D. P. O'Neill, R. A. DiStasio Jr., R. C. Lochan, T. Wang,
 G. J. O. Beran, N. A. Besley, J. M. Herbert, C. Y. Lin,
 T. Van Voorhis, S. H. Chien, A. Sodt, R. P. Steele, 
 V. A. Rassolov, P. E. Maslen, P. P. Korambath, R. D. Adamson,
 B. Austin, J. Baker, E. F. C. Byrd, H. Dachsel, R. J. Doerksen,
 A. Dreuw, B. D. Dunietz, A. D. Dutoi, T. R. Furlani,
 S. R. Gwaltney, A. Heyden, S. Hirata, C.-P. Hsu, G. Kedziora,
 R. Z. Khaliullin, P. Klunzinger, A. M. Lee, M. S. Lee, W. Liang,
 I. Lotan, N. Nair, B. Peters, E. I. Proynov, P. A. Pieniazek, 
 Y. M. Rhee, J. Ritchie, E. Rosta, C. D. Sherrill, 
 A. C. Simmonett, J. E. Subotnik, H. L. Woodcock III,
 W. Zhang, A. T. Bell, A. K. Chakraborty, D. M. Chipman,
 F. J. Keil, A. Warshel, W. J. Hehre, H. F. Schaefer III,
 J. Kong, A. I. Krylov, P. M. W. Gill, M. Head-Gordon,
 Q-Chem, Version 3.1, Q-Chem, Inc., Pittsburgh, PA (2007).

 Additional authors for Version 3.1: 
 Z. Gan, Y. Zhao, N. E. Schultz, D. Truhlar, E. Epifanovsky and M. Oana.

 Additional authors for Version 3.2: 
 R. Baer, B. R. Brooks, D. Casanova, J.-D. Chai, C.-L. Cheng, 
 C. Cramer, D. Crittenden, A. Ghysels, G. Hawkins, E. G. Hohenstein, 
 C. Kelley, W. Kurlancheek, D. Liotard, E. Livshits, P. Manohar, 
 A. Marenich, D. Neuhauser, R. Olson, M. A. Rohrdanz, K. S. Thanthiriwatte, 
 A. J. W. Thom, V. Vanovschi, C. F. Williams, Q. Wu and Z.-Q. You. 


 Intel X86 Linux Version

 Q-chem begins on Mon Jun  3 17:12:46 2013  

 Parallel job on  1  processors
Processing $rem in /usr/local/qchem/config/preferences.

theFileMan(): MAXOPENFILES=974 MAX_SUB_FILE_NUM=16
Maximum size of a physical file is 2.0 GB, maximum size of a tmp-file is 32.0 GB


--------------------------------------------------------------
User input:
--------------------------------------------------------------

$molecule
1,3
C
C,1,CC
O,2,CO,1,OCC
X,3,0.97,2,107.,1,180.,0
X,2,1.,1,XCC,3,180.,0
H,2,CH,5,A1,1,90.,0
H,2,CH,5,A1,1,-90.,0
H,1,CH3,2,H3CC,3,180.,0
X,1,1.,2,YCC,3,0.,0
H,1,CH4,9,A2,2,90.,0
H,1,CH4,9,A2,2,-90.,0

CC=1.55380371
CO=1.3708761
OCC=106.53444686
XCC=122.81869313
CH=1.10383091
A1=54.76163191
CH3=1.09470615
H3CC=108.59935331
YCC=126.7607798
CH4=1.09293226
A2=54.53735592

$end

$comment
positive
$end

$xc_functional
   X HF 1.0
   X BNL 1.0
   C LYP 1.0
$end

$rem
SYMMETRY_DECOMPOSITION	0
exchange 		general
BASIS                   g3large
omega			410
separate_jk		true
mem_static              760
max_scf_cycles          200
scf_final_print         1
sym_ignore              true
$end

--------------------------------------------------------------
 Writing REM_CC_EA            8
 ----------------------------------------------------
       Standard Nuclear Orientation (Angstroms)
    I     Atom         X            Y            Z
 ----------------------------------------------------
    1      C       0.000000     0.000000     0.000000
    2      C       0.000000     0.000000     1.553804
    3      O       1.314189     0.000000     1.943944
    4      H      -0.535234     0.901564     1.898986
    5      H      -0.535234    -0.901564     1.898986
    6      H      -1.037532     0.000000    -0.349155
    7      H       0.507995     0.890187    -0.379486
    8      H       0.507995    -0.890187    -0.379486
 ----------------------------------------------------
 Nuclear Repulsion Energy =    74.3897211119 hartrees
 There are       13 alpha and       11 beta electrons
 Requested basis set is G3large
 There are 60 shells and 176 basis functions

Total QAlloc Memory Limit   2000 MB
Mega-Array Size       743 MB
MEM_STATIC part       760 MB

                       Distance Matrix (Angstroms)
             C (  1)   C (  2)   O (  3)   H (  4)   H (  5)   H (  6)
   C (  2)  1.553804
   O (  3)  2.346489  1.370876
   H (  4)  2.169202  1.103831  2.057961
   H (  5)  2.169202  1.103831  2.057961  1.803127
   H (  6)  1.094706  2.167423  3.284645  2.473713  2.473713
   H (  7)  1.092932  2.188173  2.615475  2.505971  3.080605  1.783817
   H (  8)  1.092932  2.188173  2.615475  3.080605  2.505971  1.783817
             H (  7)
   H (  8)  1.780373
 
 A cutoff of  1.0D-08 yielded   1760 shell pairs
 There are  15158 function pairs ( 18470 Cartesian)
Evaluating contribution to one-electron hamiltonian from nuclear
 Smallest overlap matrix eigenvalue = 1.37E-04
 Multipole matrices computed through 2nd order

  Scale SEOQF with 1.000000e-01/1.000000e-01/1.000000e-01

 Standard Electronic Orientation quadrupole field applied
 Nucleus-field energy     =    -0.0000000048 hartrees
 Guess from superposition of atomic densities
 Warning:  Energy on first SCF cycle will be non-variational
 An unrestricted hybrid HF-DFT SCF calculation will be
 performed using Pulay DIIS extrapolation
 Exchange:     1.0000 Hartree-Fock + 1.0000 BNL
 Correlation:  1.0000 LYP
 Using SG-1 standard quadrature grid
 SCF converges when DIIS error is below 1.0E-05
 Warning!  Inaccurate integrated density:
   Number of electrons =    24
   Numerical integral  =    24.999848811569
   Relative error      =     4.1660367149 %
 ---------------------------------------
  Cycle       Energy         DIIS Error
 ---------------------------------------
    1    -153.1944460680      3.12E-02
    2    -152.3207747299      3.20E-03
    3    -152.3760527233      1.76E-03
    4    -152.3903011465      4.31E-04
    5    -152.3944392133      2.45E-04
    6    -152.3960703173      1.31E-04
    7    -152.3969513724      1.14E-04
    8    -152.3973733385      4.11E-05
    9    -152.3974449151      2.06E-05
   10    -152.3974769160      1.20E-05
   11    -152.3974858590      5.00E-06 Convergence criterion met
 ---------------------------------------
 One-Electron    Energy =  -348.4152821206
 Total Coulomb   Energy =   140.7631497267
 Alpha Exchange  Energy =    -2.6750577728
 Beta  Exchange  Energy =    -2.2206058116
 DFT   Exchange  Energy =   -13.4570465001
 DFT Correlation Energy =    -0.7823644877
 Nuclear Repu.   Energy =    74.3897211070
 Nuclear Attr.   Energy =  -500.0193391464
 Kinetic         Energy =   151.6040570258
 <S^2> = 2.0107
 SCF time:  CPU 103.52 s  wall 104.03 s
 Final Alpha MO Eigenvalues
            1           2           3           4           5           6
    1 -19.2647649 -10.3442466 -10.2357534  -1.5258378  -1.1709989  -1.0357906
            7           8           9          10          11          12
    1  -0.9508937  -0.9331147  -0.8871340  -0.8067757  -0.7563920  -0.7482065
           13          14          15          16          17          18
    1  -0.7304006  -0.1254943  -0.0945919  -0.0929713  -0.0902194  -0.0532581
 Final Beta MO Eigenvalues
            1           2           3           4           5           6
    1 -19.2201324 -10.3427572 -10.2321521  -1.4474825  -1.1361428  -1.0029370
            7           8           9          10          11          12
    1  -0.8764210  -0.8747305  -0.7958104  -0.7469658  -0.7342237  -0.3832398
           13          14          15          16
    1  -0.3805733  -0.1239282  -0.0919997  -0.0909966
 Analysis of SCF Wavefunction
 
 --------------------------------------------------------------
                    Orbital Energies (a.u.)
 --------------------------------------------------------------
 
 Alpha MOs
 -- Occupied --
-19.265 -10.344 -10.236  -1.526  -1.171  -1.036  -0.951  -0.933
 -0.887  -0.807  -0.756  -0.748  -0.730
 -- Virtual --
 -0.125  -0.095  -0.093  -0.090  -0.053  -0.049  -0.043  -0.030
 -0.024   0.006   0.013   0.021   0.024   0.035   0.037   0.060
  0.082   0.083   0.086   0.122   0.142   0.152   0.183   0.209
  0.288   0.296   0.318   0.327   0.386   0.392   0.408   0.419
  0.425   0.449   0.454   0.491   0.552   0.584   0.637   0.643
  0.759   0.765   0.788   0.830   0.856   0.876   0.899   0.918
  0.957   0.998   1.013   1.016   1.031   1.100   1.114   1.155
  1.189   1.224   1.246   1.282   1.316   1.327   1.328   1.358
  1.459   1.499   1.505   1.532   1.768   1.860   2.097   2.238
  2.344   2.386   2.431   2.469   2.615   2.618   2.648   2.778
  2.801   2.864   2.884   2.909   3.005   3.042   3.055   3.099
  3.123   3.139   3.208   3.316   3.328   3.358   3.386   3.387
  3.445   3.532   3.630   3.690   3.778   3.812   3.831   3.838
  3.900   4.013   4.045   4.088   4.089   4.107   4.229   4.256
  4.338   4.355   4.394   4.465   4.643   4.678   4.741   4.742
  4.892   4.978   5.040   5.117   5.214   5.347   5.478   5.510
  5.622   5.630   6.231   6.444   6.461   6.914   6.925   7.233
 24.103  24.207  27.358  27.777  27.850  27.956  27.967  28.166
 40.625  40.663  40.729  40.763  40.907  40.945  40.979  41.013
 41.042  41.097  43.176  43.248  43.355  43.398  43.446  45.299
 45.320  45.873  49.642
 
 Beta MOs
 -- Occupied --
-19.220 -10.343 -10.232  -1.447  -1.136  -1.003  -0.876  -0.875
 -0.796  -0.747  -0.734
 -- Virtual --
 -0.383  -0.381  -0.124  -0.092  -0.091  -0.089  -0.050  -0.047
 -0.041  -0.029  -0.021   0.007   0.018   0.021   0.030   0.043
  0.047   0.065   0.086   0.087   0.096   0.129   0.148   0.163
  0.185   0.218   0.298   0.302   0.324   0.336   0.393   0.403
  0.414   0.428   0.433   0.452   0.465   0.498   0.555   0.590
  0.644   0.652   0.760   0.780   0.801   0.844   0.875   0.886
  0.924   0.952   0.967   1.015   1.023   1.026   1.035   1.112
  1.131   1.163   1.201   1.241   1.255   1.302   1.322   1.336
  1.340   1.370   1.472   1.540   1.544   1.571   1.800   1.896
  2.129   2.254   2.360   2.397   2.445   2.476   2.629   2.634
  2.663   2.791   2.806   2.875   2.893   2.923   3.016   3.058
  3.065   3.111   3.135   3.149   3.220   3.326   3.336   3.368
  3.395   3.400   3.455   3.542   3.648   3.705   3.790   3.826
  3.839   3.850   3.914   4.038   4.060   4.098   4.107   4.125
  4.249   4.273   4.349   4.367   4.404   4.482   4.741   4.771
  4.835   4.845   4.945   5.045   5.104   5.141   5.249   5.382
  5.493   5.521   5.672   5.677   6.270   6.592   6.607   7.008
  7.018   7.304  24.108  24.211  27.362  27.777  27.853  27.958
 27.969  28.171  40.630  40.664  40.731  40.770  40.910  40.947
 40.982  41.018  41.048  41.100  43.291  43.362  43.431  43.478
 43.518  45.361  45.380  45.906  49.697
 --------------------------------------------------------------
 
          Ground-State Mulliken Net Atomic Charges

     Atom                 Charge (a.u.)    Spin (a.u.)
  --------------------------------------------------------
      1 C                    -0.273820       0.153259
      2 C                    -0.187665       0.053215
      3 O                     0.344839       1.500746
      4 H                     0.267542       0.132443
      5 H                     0.267834       0.133263
      6 H                     0.189352       0.022722
      7 H                     0.195985       0.002275
      8 H                     0.195931       0.002077
  --------------------------------------------------------
  Sum of atomic charges =     1.000000
  Sum of spin   charges =     2.000000

 -----------------------------------------------------------------
                    Cartesian Multipole Moments
 -----------------------------------------------------------------
    Charge (ESU x 10^10)
                 4.8032
    Dipole Moment (Debye)
         X       0.0110      Y      -0.0007      Z       5.7121
       Tot       5.7122
    Quadrupole Moments (Debye-Ang)
        XX     -14.7228     XY       0.0012     YY     -14.7061
        XZ       0.1715     YZ      -0.0024     ZZ      -5.3496
    Octapole Moments (Debye-Ang^2)
       XXX     -17.0040    XXY      -0.0005    XYY      -5.7596
       YYY      -0.0008    XXZ     -14.7956    XYZ       0.0036
       YYZ     -14.3316    XZZ      -5.1818    YZZ      -0.0018
       ZZZ     -31.6112
    Hexadecapole Moments (Debye-Ang^3)
      XXXX     -70.3315   XXXY       0.0008   XXYY     -15.0980
      XYYY       0.0018   YYYY     -24.0835   XXXZ     -30.2580
      XXYZ      -0.0001   XYYZ     -13.8580   YYYZ      -0.0038
      XXZZ     -40.7249   XYZZ       0.0108   YYZZ     -32.1394
      XZZZ     -31.0072   YZZZ      -0.0024   ZZZZ    -175.9804
 -----------------------------------------------------------------
 Total job time:  104.23s(wall), 103.70s(cpu) 
 Mon Jun  3 17:14:30 2013

        *************************************************************
        *                                                           *
        *  Thank you very much for using Q-Chem.  Have a nice day.  *
        *                                                           *
        *************************************************************


0 sent ACK to 0 
now end server 0 ... 
