Process 0 of 1 is on cl156.stfx.acenet.ca - thread support 1
initial socket setup ...start
initial socket setup ...done 
now start server 0 ... 

cmd = /usr/bin/ssh clhead /usr/local/qchem/bin/get_hostid 1903496250 > /scratch/tmp/6063717.1.medium.q/qchem19462/lic.dat
                  Welcome to Q-Chem
     A Quantum Leap Into The Future Of Chemistry

 Y. Shao, L. Fusti-Molnar, Y. Jung, J. Kussmann, C. Ochsenfeld,
 S. T. Brown, A. T. B. Gilbert, L. V. Slipchenko,S. V. Levchenko,
 D. P. O'Neill, R. A. DiStasio Jr., R. C. Lochan, T. Wang,
 G. J. O. Beran, N. A. Besley, J. M. Herbert, C. Y. Lin,
 T. Van Voorhis, S. H. Chien, A. Sodt, R. P. Steele, 
 V. A. Rassolov, P. E. Maslen, P. P. Korambath, R. D. Adamson,
 B. Austin, J. Baker, E. F. C. Byrd, H. Dachsel, R. J. Doerksen,
 A. Dreuw, B. D. Dunietz, A. D. Dutoi, T. R. Furlani,
 S. R. Gwaltney, A. Heyden, S. Hirata, C.-P. Hsu, G. Kedziora,
 R. Z. Khaliullin, P. Klunzinger, A. M. Lee, M. S. Lee, W. Liang,
 I. Lotan, N. Nair, B. Peters, E. I. Proynov, P. A. Pieniazek, 
 Y. M. Rhee, J. Ritchie, E. Rosta, C. D. Sherrill, 
 A. C. Simmonett, J. E. Subotnik, H. L. Woodcock III,
 W. Zhang, A. T. Bell, A. K. Chakraborty, D. M. Chipman,
 F. J. Keil, A. Warshel, W. J. Hehre, H. F. Schaefer III,
 J. Kong, A. I. Krylov, P. M. W. Gill, M. Head-Gordon,
 Q-Chem, Version 3.1, Q-Chem, Inc., Pittsburgh, PA (2007).

 Additional authors for Version 3.1: 
 Z. Gan, Y. Zhao, N. E. Schultz, D. Truhlar, E. Epifanovsky and M. Oana.

 Additional authors for Version 3.2: 
 R. Baer, B. R. Brooks, D. Casanova, J.-D. Chai, C.-L. Cheng, 
 C. Cramer, D. Crittenden, A. Ghysels, G. Hawkins, E. G. Hohenstein, 
 C. Kelley, W. Kurlancheek, D. Liotard, E. Livshits, P. Manohar, 
 A. Marenich, D. Neuhauser, R. Olson, M. A. Rohrdanz, K. S. Thanthiriwatte, 
 A. J. W. Thom, V. Vanovschi, C. F. Williams, Q. Wu and Z.-Q. You. 


 Intel X86 Linux Version

 Q-chem begins on Sun Jul  7 08:40:19 2013  

 Parallel job on  1  processors
Processing $rem in /usr/local/qchem/config/preferences.

theFileMan(): MAXOPENFILES=974 MAX_SUB_FILE_NUM=16
Maximum size of a physical file is 2.0 GB, maximum size of a tmp-file is 32.0 GB


--------------------------------------------------------------
User input:
--------------------------------------------------------------

$molecule
-1,2
C          0.00060        0.00000        0.00599
C         -0.00144        0.00000        1.51271
O          1.34262        0.00000        1.95481
H          1.36080        0.00000        2.91219
H         -0.52814        0.88506        1.88809
H         -0.52814       -0.88506        1.88809
H         -1.01948        0.00000       -0.37883
H          0.51474        0.88308       -0.37260
H          0.51474       -0.88308       -0.37260
$end

$comment
negative
$end

$xc_functional
C PBE   1.00
X wPBE  1.00
$end

$rem
SYMMETRY_DECOMPOSITION	0
exchange 		general
LRC_DFT                 true
BASIS                   g3large
omega			200
mem_static              760
max_scf_cycles          200
scf_final_print         1
sym_ignore              true
$end

--------------------------------------------------------------
 Writing REM_CC_EA            9
 ----------------------------------------------------
       Standard Nuclear Orientation (Angstroms)
    I     Atom         X            Y            Z
 ----------------------------------------------------
    1      C       0.000600     0.000000     0.005990
    2      C      -0.001440     0.000000     1.512710
    3      O       1.342620     0.000000     1.954810
    4      H       1.360800     0.000000     2.912190
    5      H      -0.528140     0.885060     1.888090
    6      H      -0.528140    -0.885060     1.888090
    7      H      -1.019480     0.000000    -0.378830
    8      H       0.514740     0.883080    -0.372600
    9      H       0.514740    -0.883080    -0.372600
 ----------------------------------------------------
 Nuclear Repulsion Energy =    82.1703385088 hartrees
 There are       14 alpha and       13 beta electrons
 Requested basis set is G3large
 There are 66 shells and 186 basis functions

Total QAlloc Memory Limit   2000 MB
Mega-Array Size       743 MB
MEM_STATIC part       760 MB

                       Distance Matrix (Angstroms)
             C (  1)   C (  2)   O (  3)   H (  4)   H (  5)   H (  6)
   C (  2)  1.506721
   O (  3)  2.366203  1.414903
   H (  4)  3.208760  1.953008  0.957553
   H (  5)  2.145972  1.096200  2.070634  2.323834
   H (  6)  2.145972  1.096200  2.070634  2.323834  1.770120
   H (  7)  1.090252  2.148099  3.320451  4.061594  2.482674  2.482674
   H (  8)  1.089725  2.144916  2.623367  3.505067  2.489643  3.053627
   H (  9)  1.089725  2.144916  2.623367  3.505067  3.053627  2.489643
             H (  7)   H (  8)
   H (  8)  1.770226
   H (  9)  1.770226  1.766160
 
 A cutoff of  1.0D-08 yielded   2117 shell pairs
 There are  16833 function pairs ( 20304 Cartesian)
Evaluating contribution to one-electron hamiltonian from nuclear
 Smallest overlap matrix eigenvalue = 9.78E-05

 Q-Chem warning in module mkSTV.C, line 194:

 Overlap eigenvalue is smaller than square root of threshold

 Multipole matrices computed through 2nd order

  Scale SEOQF with 1.000000e-01/1.000000e-01/1.000000e-01

 Standard Electronic Orientation quadrupole field applied
 Nucleus-field energy     =    -0.0000000056 hartrees
 Guess from superposition of atomic densities
 Warning:  Energy on first SCF cycle will be non-variational
 Long-range K will be added via erf
 Coulomb attenuation parameter = 0.2 bohr**(-1)
 An unrestricted Kohn-Sham SCF calculation will be
 performed using Pulay DIIS extrapolation
 Exchange:  wPBE + LR-HF      Correlation:  PBE
 Using SG-1 standard quadrature grid
 SCF converges when DIIS error is below 1.0E-05
 Requested basis set is G3large
 There are 66 shells and 186 basis functions
 A cutoff of  1.0D-08 yielded   2117 shell pairs
 There are  16833 function pairs ( 20304 Cartesian)
 Warning!  Inaccurate integrated density:
   Number of electrons =    27
   Numerical integral  =    25.999923725395
   Relative error      =    -3.7039862022 %
 ---------------------------------------
  Cycle       Energy         DIIS Error
 ---------------------------------------
    1    -155.3303281725      3.18E-02
    2    -154.7593462549      5.42E-03
    3    -154.7458858465      6.93E-03
    4    -154.9044129628      8.16E-04
    5    -154.9084854122      4.06E-04
    6    -154.9101672895      9.40E-05
    7    -154.9107887063      4.49E-05
    8    -154.9110060314      2.62E-05
    9    -154.9110883048      1.74E-05
   10    -154.9111430066      1.06E-05
   11    -154.9111798311      5.27E-06 Convergence criterion met
 ---------------------------------------
 One-Electron    Energy =  -376.1472306688
 Total Coulomb   Energy =   160.7044580340
 Alpha Exchange  Energy =    -1.4715246000
 Beta  Exchange  Energy =    -1.4109260875
 DFT   Exchange  Energy =   -17.9050257748
 DFT Correlation Energy =    -0.8512692373
 Nuclear Repu.   Energy =    82.1703385033
 Nuclear Attr.   Energy =  -530.6582935897
 Kinetic         Energy =   154.5110629209
 <S^2> = 0.7501
 SCF time:  CPU 127.47 s  wall 128.29 s
 Final Alpha MO Eigenvalues
            1           2           3           4           5           6
    1 -18.7051270  -9.8870214  -9.8496395  -0.9037234  -0.6622635  -0.5248720
            7           8           9          10          11          12
    1  -0.4330088  -0.3858615  -0.3254512  -0.3126102  -0.2900724  -0.2478272
           13          14          15          16          17          18
    1  -0.1828037   0.0254601   0.1322454   0.1449596   0.1464721   0.1756962
           19
    1   0.1847688
 Final Beta MO Eigenvalues
            1           2           3           4           5           6
    1 -18.7047931  -9.8865190  -9.8495548  -0.9029460  -0.6615867  -0.5237169
            7           8           9          10          11          12
    1  -0.4311504  -0.3852881  -0.3248219  -0.3119471  -0.2896511  -0.2468227
           13          14          15          16          17          18
    1  -0.1821065   0.1322868   0.1511910   0.1563870   0.1583522   0.1834044
 Analysis of SCF Wavefunction
 
 --------------------------------------------------------------
                    Orbital Energies (a.u.)
 --------------------------------------------------------------
 
 Alpha MOs
 -- Occupied --
-18.705  -9.887  -9.850  -0.904  -0.662  -0.525  -0.433  -0.386
 -0.325  -0.313  -0.290  -0.248  -0.183   0.025
 -- Virtual --
  0.132   0.145   0.146   0.176   0.185   0.229   0.241   0.244
  0.254   0.273   0.275   0.291   0.297   0.347   0.351   0.367
  0.394   0.402   0.409   0.424   0.453   0.455   0.468   0.511
  0.554   0.606   0.611   0.639   0.648   0.700   0.723   0.741
  0.745   0.747   0.784   0.785   0.801   0.822   0.838   0.921
  0.936   0.997   1.014   1.056   1.060   1.110   1.209   1.220
  1.233   1.245   1.309   1.316   1.342   1.343   1.372   1.385
  1.431   1.475   1.484   1.499   1.546   1.590   1.596   1.619
  1.629   1.647   1.663   1.709   1.729   1.767   1.897   2.026
  2.178   2.226   2.400   2.507   2.557   2.632   2.700   2.751
  2.762   2.910   2.982   2.989   3.003   3.079   3.181   3.213
  3.228   3.229   3.350   3.357   3.371   3.429   3.472   3.530
  3.568   3.676   3.683   3.686   3.701   3.747   3.811   3.876
  3.908   3.981   4.028   4.078   4.139   4.179   4.197   4.204
  4.319   4.364   4.376   4.406   4.412   4.475   4.508   4.600
  4.608   4.656   4.730   4.732   4.810   5.144   5.300   5.322
  5.340   5.479   5.610   5.626   5.694   5.736   5.806   5.807
  6.003   6.088   6.572   7.100   7.293   7.330   7.360   7.675
  7.783  24.224  24.406  27.716  28.091  28.120  28.172  28.199
 28.408  40.952  40.982  41.002  41.103  41.197  41.233  41.244
 41.274  41.281  41.318  43.851  43.859  43.914  43.973  44.014
 45.704  46.021  46.444  49.900
 
 Beta MOs
 -- Occupied --
-18.705  -9.887  -9.850  -0.903  -0.662  -0.524  -0.431  -0.385
 -0.325  -0.312  -0.290  -0.247  -0.182
 -- Virtual --
  0.132   0.151   0.156   0.158   0.183   0.190   0.230   0.241
  0.244   0.257   0.274   0.275   0.292   0.296   0.348   0.351
  0.370   0.395   0.401   0.410   0.425   0.452   0.453   0.465
  0.510   0.554   0.606   0.611   0.639   0.648   0.700   0.723
  0.741   0.745   0.747   0.784   0.785   0.801   0.822   0.838
  0.925   0.937   0.999   1.015   1.056   1.061   1.111   1.209
  1.221   1.235   1.246   1.310   1.316   1.342   1.344   1.373
  1.386   1.432   1.475   1.484   1.499   1.548   1.592   1.597
  1.619   1.631   1.649   1.665   1.710   1.731   1.769   1.898
  2.028   2.179   2.226   2.400   2.509   2.558   2.632   2.701
  2.751   2.762   2.911   2.982   2.991   3.003   3.080   3.181
  3.214   3.228   3.230   3.351   3.358   3.372   3.430   3.474
  3.531   3.569   3.677   3.684   3.687   3.701   3.749   3.812
  3.877   3.909   3.982   4.029   4.079   4.139   4.179   4.198
  4.205   4.320   4.365   4.377   4.407   4.413   4.478   4.509
  4.600   4.609   4.657   4.730   4.733   4.810   5.145   5.301
  5.323   5.340   5.479   5.610   5.626   5.695   5.737   5.807
  5.808   6.004   6.089   6.572   7.101   7.294   7.332   7.361
  7.677   7.784  24.224  24.407  27.716  28.092  28.120  28.172
 28.199  28.408  40.952  40.983  41.003  41.103  41.197  41.233
 41.245  41.274  41.281  41.318  43.851  43.859  43.914  43.973
 44.014  45.704  46.022  46.445  49.900
 --------------------------------------------------------------
 
          Ground-State Mulliken Net Atomic Charges

     Atom                 Charge (a.u.)    Spin (a.u.)
  --------------------------------------------------------
      1 C                    -0.508737       0.269874
      2 C                     2.981670      -3.180217
      3 O                    -0.451770       0.161126
      4 H                    -0.627435       0.899119
      5 H                    -1.122044       1.226414
      6 H                    -1.118177       1.222386
      7 H                    -0.134399       0.202605
      8 H                    -0.010255       0.100113
      9 H                    -0.008855       0.098580
  --------------------------------------------------------
  Sum of atomic charges =    -1.000000
  Sum of spin   charges =     1.000000

 -----------------------------------------------------------------
                    Cartesian Multipole Moments
 -----------------------------------------------------------------
    Charge (ESU x 10^10)
                -4.8032
    Dipole Moment (Debye)
         X      -0.4794      Y      -0.0156      Z     -12.8035
       Tot      12.8124
    Quadrupole Moments (Debye-Ang)
        XX     -46.9813     XY       0.0081     YY     -43.7610
        XZ      -3.7833     YZ      -0.0311     ZZ     -75.0005
    Octapole Moments (Debye-Ang^2)
       XXX     -18.8500    XXY      -0.0593    XYY      -0.3164
       YYY      -0.1780    XXZ     -86.9961    XYZ       0.0184
       YYZ     -81.0073    XZZ     -21.4859    YZZ      -0.1233
       ZZZ    -312.8639
    Hexadecapole Moments (Debye-Ang^3)
      XXXX    -393.1139   XXXY       0.0629   XXYY    -117.8902
      XYYY       0.0738   YYYY    -301.3965   XXXZ     -83.2885
      XXYZ      -0.1066   XYYZ     -16.2460   YYYZ      -0.3116
      XXZZ    -314.2774   XYZZ       0.0540   YYZZ    -282.1228
      XZZZ    -137.6228   YZZZ      -0.4447   ZZZZ   -1542.9915
 -----------------------------------------------------------------
 Total job time:  128.51s(wall), 127.68s(cpu) 
 Sun Jul  7 08:42:27 2013

        *************************************************************
        *                                                           *
        *  Thank you very much for using Q-Chem.  Have a nice day.  *
        *                                                           *
        *************************************************************


0 sent ACK to 0 
now end server 0 ... 
 
**********************************************************************
Job 2 of 3 
**********************************************************************
 
Process 0 of 1 is on cl156.stfx.acenet.ca - thread support 1
initial socket setup ...start
initial socket setup ...done 
now start server 0 ... 

cmd = /usr/bin/ssh clhead /usr/local/qchem/bin/get_hostid 1792090061 > /scratch/tmp/6063717.1.medium.q/qchem19462/lic.dat
                  Welcome to Q-Chem
     A Quantum Leap Into The Future Of Chemistry

 Y. Shao, L. Fusti-Molnar, Y. Jung, J. Kussmann, C. Ochsenfeld,
 S. T. Brown, A. T. B. Gilbert, L. V. Slipchenko,S. V. Levchenko,
 D. P. O'Neill, R. A. DiStasio Jr., R. C. Lochan, T. Wang,
 G. J. O. Beran, N. A. Besley, J. M. Herbert, C. Y. Lin,
 T. Van Voorhis, S. H. Chien, A. Sodt, R. P. Steele, 
 V. A. Rassolov, P. E. Maslen, P. P. Korambath, R. D. Adamson,
 B. Austin, J. Baker, E. F. C. Byrd, H. Dachsel, R. J. Doerksen,
 A. Dreuw, B. D. Dunietz, A. D. Dutoi, T. R. Furlani,
 S. R. Gwaltney, A. Heyden, S. Hirata, C.-P. Hsu, G. Kedziora,
 R. Z. Khaliullin, P. Klunzinger, A. M. Lee, M. S. Lee, W. Liang,
 I. Lotan, N. Nair, B. Peters, E. I. Proynov, P. A. Pieniazek, 
 Y. M. Rhee, J. Ritchie, E. Rosta, C. D. Sherrill, 
 A. C. Simmonett, J. E. Subotnik, H. L. Woodcock III,
 W. Zhang, A. T. Bell, A. K. Chakraborty, D. M. Chipman,
 F. J. Keil, A. Warshel, W. J. Hehre, H. F. Schaefer III,
 J. Kong, A. I. Krylov, P. M. W. Gill, M. Head-Gordon,
 Q-Chem, Version 3.1, Q-Chem, Inc., Pittsburgh, PA (2007).

 Additional authors for Version 3.1: 
 Z. Gan, Y. Zhao, N. E. Schultz, D. Truhlar, E. Epifanovsky and M. Oana.

 Additional authors for Version 3.2: 
 R. Baer, B. R. Brooks, D. Casanova, J.-D. Chai, C.-L. Cheng, 
 C. Cramer, D. Crittenden, A. Ghysels, G. Hawkins, E. G. Hohenstein, 
 C. Kelley, W. Kurlancheek, D. Liotard, E. Livshits, P. Manohar, 
 A. Marenich, D. Neuhauser, R. Olson, M. A. Rohrdanz, K. S. Thanthiriwatte, 
 A. J. W. Thom, V. Vanovschi, C. F. Williams, Q. Wu and Z.-Q. You. 


 Intel X86 Linux Version

 Q-chem begins on Sun Jul  7 08:42:30 2013  

 Parallel job on  1  processors
Processing $rem in /usr/local/qchem/config/preferences.

theFileMan(): MAXOPENFILES=974 MAX_SUB_FILE_NUM=16
Maximum size of a physical file is 2.0 GB, maximum size of a tmp-file is 32.0 GB


--------------------------------------------------------------
User input:
--------------------------------------------------------------

$molecule
0,1
C          0.00060        0.00000        0.00599
C         -0.00144        0.00000        1.51271
O          1.34262        0.00000        1.95481
H          1.36080        0.00000        2.91219
H         -0.52814        0.88506        1.88809
H         -0.52814       -0.88506        1.88809
H         -1.01948        0.00000       -0.37883
H          0.51474        0.88308       -0.37260
H          0.51474       -0.88308       -0.37260
$end

$comment
neutral
$end

$xc_functional
C PBE   1.00
X wPBE  1.00
$end


$rem
SYMMETRY_DECOMPOSITION	0
LRC_DFT                 true
exchange 		general
BASIS                   g3large
omega			200
mem_static              760
max_scf_cycles          200
scf_final_print         1
sym_ignore              true
$end

--------------------------------------------------------------
 Writing REM_CC_EA            9
 ----------------------------------------------------
       Standard Nuclear Orientation (Angstroms)
    I     Atom         X            Y            Z
 ----------------------------------------------------
    1      C       0.000600     0.000000     0.005990
    2      C      -0.001440     0.000000     1.512710
    3      O       1.342620     0.000000     1.954810
    4      H       1.360800     0.000000     2.912190
    5      H      -0.528140     0.885060     1.888090
    6      H      -0.528140    -0.885060     1.888090
    7      H      -1.019480     0.000000    -0.378830
    8      H       0.514740     0.883080    -0.372600
    9      H       0.514740    -0.883080    -0.372600
 ----------------------------------------------------
 Nuclear Repulsion Energy =    82.1703385088 hartrees
 There are       13 alpha and       13 beta electrons
 Requested basis set is G3large
 There are 66 shells and 186 basis functions

Total QAlloc Memory Limit   2000 MB
Mega-Array Size       743 MB
MEM_STATIC part       760 MB

                       Distance Matrix (Angstroms)
             C (  1)   C (  2)   O (  3)   H (  4)   H (  5)   H (  6)
   C (  2)  1.506721
   O (  3)  2.366203  1.414903
   H (  4)  3.208760  1.953008  0.957553
   H (  5)  2.145972  1.096200  2.070634  2.323834
   H (  6)  2.145972  1.096200  2.070634  2.323834  1.770120
   H (  7)  1.090252  2.148099  3.320451  4.061594  2.482674  2.482674
   H (  8)  1.089725  2.144916  2.623367  3.505067  2.489643  3.053627
   H (  9)  1.089725  2.144916  2.623367  3.505067  3.053627  2.489643
             H (  7)   H (  8)
   H (  8)  1.770226
   H (  9)  1.770226  1.766160
 
 A cutoff of  1.0D-08 yielded   2117 shell pairs
 There are  16833 function pairs ( 20304 Cartesian)
Evaluating contribution to one-electron hamiltonian from nuclear
 Smallest overlap matrix eigenvalue = 9.78E-05

 Q-Chem warning in module mkSTV.C, line 194:

 Overlap eigenvalue is smaller than square root of threshold

 Multipole matrices computed through 2nd order

  Scale SEOQF with 1.000000e-01/1.000000e-01/1.000000e-01

 Standard Electronic Orientation quadrupole field applied
 Nucleus-field energy     =    -0.0000000056 hartrees
 Guess from superposition of atomic densities
 Warning:  Energy on first SCF cycle will be non-variational
 Long-range K will be added via erf
 Coulomb attenuation parameter = 0.2 bohr**(-1)
 A restricted Kohn-Sham SCF calculation will be
 performed using Pulay DIIS extrapolation
 Exchange:  wPBE + LR-HF      Correlation:  PBE
 Using SG-1 standard quadrature grid
 SCF converges when DIIS error is below 1.0E-05
 Requested basis set is G3large
 There are 66 shells and 186 basis functions
 A cutoff of  1.0D-08 yielded   2117 shell pairs
 There are  16833 function pairs ( 20304 Cartesian)
 ---------------------------------------
  Cycle       Energy         DIIS Error
 ---------------------------------------
    1    -155.3303281725      3.18E-02
    2    -154.8506708625      4.84E-03
    3    -154.8446542644      5.46E-03
    4    -154.9366629817      7.03E-04
    5    -154.9379639777      2.65E-04
    6    -154.9382153359      3.61E-05
    7    -154.9382191741      7.65E-06 Convergence criterion met
 ---------------------------------------
 One-Electron    Energy =  -372.5323179330
 Total Coulomb   Energy =   156.9756046314
 Alpha Exchange  Energy =    -1.4113878072
 Beta  Exchange  Energy =    -1.4113878072
 DFT   Exchange  Energy =   -17.8856718302
 DFT Correlation Energy =    -0.8433969312
 Nuclear Repu.   Energy =    82.1703385033
 Nuclear Attr.   Energy =  -526.9791746561
 Kinetic         Energy =   154.4468567231
 SCF time:  CPU 64.61 s  wall 64.92 s
 Final Alpha MO Eigenvalues
            1           2           3           4           5           6
    1 -18.8539543 -10.0341337  -9.9773189  -1.0522937  -0.7978316  -0.6631955
            7           8           9          10          11          12
    1  -0.5786109  -0.5255258  -0.4635577  -0.4422661  -0.4229931  -0.3905783
           13          14          15          16          17          18
    1  -0.3294797   0.0309653   0.0482856   0.0591096   0.0600187   0.0828240
 Analysis of SCF Wavefunction
 
 --------------------------------------------------------------
                    Orbital Energies (a.u.)
 --------------------------------------------------------------
 
 Alpha MOs
 -- Occupied --
-18.854 -10.034  -9.977  -1.052  -0.798  -0.663  -0.579  -0.526
 -0.464  -0.442  -0.423  -0.391  -0.329
 -- Virtual --
  0.031   0.048   0.059   0.060   0.083   0.094   0.124   0.130
  0.141   0.143   0.164   0.171   0.183   0.185   0.226   0.231
  0.237   0.265   0.274   0.280   0.299   0.326   0.332   0.351
  0.385   0.425   0.485   0.487   0.510   0.518   0.573   0.591
  0.606   0.616   0.625   0.642   0.649   0.664   0.689   0.720
  0.773   0.807   0.863   0.878   0.917   0.934   0.979   1.072
  1.081   1.095   1.116   1.167   1.175   1.212   1.214   1.238
  1.251   1.301   1.338   1.348   1.362   1.406   1.455   1.458
  1.490   1.494   1.514   1.527   1.577   1.595   1.638   1.758
  1.880   2.033   2.081   2.256   2.361   2.421   2.498   2.561
  2.620   2.624   2.769   2.846   2.851   2.864   2.952   3.043
  3.074   3.093   3.095   3.216   3.220   3.237   3.292   3.336
  3.393   3.429   3.538   3.546   3.553   3.565   3.604   3.671
  3.730   3.765   3.840   3.894   3.946   4.005   4.039   4.058
  4.066   4.178   4.221   4.247   4.271   4.273   4.330   4.368
  4.466   4.472   4.522   4.596   4.599   4.672   4.998   5.160
  5.177   5.192   5.338   5.467   5.481   5.546   5.590   5.677
  5.678   5.857   5.942   6.425   6.953   7.145   7.180   7.213
  7.529   7.636  24.089  24.267  27.578  27.945  27.981  28.045
 28.064  28.271  40.812  40.837  40.873  40.968  41.050  41.097
 41.104  41.135  41.146  41.191  43.702  43.710  43.765  43.824
 43.865  45.555  45.873  46.295  49.751
 --------------------------------------------------------------
 
          Ground-State Mulliken Net Atomic Charges

     Atom                 Charge (a.u.)
  ----------------------------------------
      1 C                    -0.233662
      2 C                    -0.202421
      3 O                    -0.270584
      4 H                     0.241353
      5 H                     0.091300
      6 H                     0.091397
      7 H                     0.073042
      8 H                     0.104833
      9 H                     0.104742
  ----------------------------------------
  Sum of atomic charges =     0.000000

 -----------------------------------------------------------------
                    Cartesian Multipole Moments
 -----------------------------------------------------------------
    Charge (ESU x 10^10)
                 0.0000
    Dipole Moment (Debye)
         X      -1.2776      Y       0.0002      Z       0.9183
       Tot       1.5733
    Quadrupole Moments (Debye-Ang)
        XX     -22.8471     XY       0.0007     YY     -20.4284
        XZ      -0.4339     YZ      -0.0002     ZZ     -14.3844
    Octapole Moments (Debye-Ang^2)
       XXX     -27.5181    XXY       0.0007    XYY      -8.0922
       YYY       0.0000    XXZ     -24.3535    XYZ       0.0011
       YYZ     -22.9756    XZZ      -1.4112    YZZ      -0.0004
       ZZZ     -41.0573
    Hexadecapole Moments (Debye-Ang^3)
      XXXX    -107.2410   XXXY       0.0024   XXYY     -24.1151
      XYYY       0.0026   YYYY     -35.6302   XXXZ     -48.6997
      XXYZ       0.0008   XYYZ     -18.1680   YYYZ      -0.0020
      XXZZ     -56.8735   XYZZ       0.0032   YYZZ     -53.9715
      XZZZ     -13.0478   YZZZ      -0.0019   ZZZZ    -190.1945
 -----------------------------------------------------------------
 Total job time:  65.14s(wall), 64.80s(cpu) 
 Sun Jul  7 08:43:35 2013

        *************************************************************
        *                                                           *
        *  Thank you very much for using Q-Chem.  Have a nice day.  *
        *                                                           *
        *************************************************************


0 sent ACK to 0 
now end server 0 ... 
 
**********************************************************************
Job 3 of 3 
**********************************************************************
 
Process 0 of 1 is on cl156.stfx.acenet.ca - thread support 1
initial socket setup ...start
initial socket setup ...done 
now start server 0 ... 

cmd = /usr/bin/ssh clhead /usr/local/qchem/bin/get_hostid 1202511714 > /scratch/tmp/6063717.1.medium.q/qchem19462/lic.dat
                  Welcome to Q-Chem
     A Quantum Leap Into The Future Of Chemistry

 Y. Shao, L. Fusti-Molnar, Y. Jung, J. Kussmann, C. Ochsenfeld,
 S. T. Brown, A. T. B. Gilbert, L. V. Slipchenko,S. V. Levchenko,
 D. P. O'Neill, R. A. DiStasio Jr., R. C. Lochan, T. Wang,
 G. J. O. Beran, N. A. Besley, J. M. Herbert, C. Y. Lin,
 T. Van Voorhis, S. H. Chien, A. Sodt, R. P. Steele, 
 V. A. Rassolov, P. E. Maslen, P. P. Korambath, R. D. Adamson,
 B. Austin, J. Baker, E. F. C. Byrd, H. Dachsel, R. J. Doerksen,
 A. Dreuw, B. D. Dunietz, A. D. Dutoi, T. R. Furlani,
 S. R. Gwaltney, A. Heyden, S. Hirata, C.-P. Hsu, G. Kedziora,
 R. Z. Khaliullin, P. Klunzinger, A. M. Lee, M. S. Lee, W. Liang,
 I. Lotan, N. Nair, B. Peters, E. I. Proynov, P. A. Pieniazek, 
 Y. M. Rhee, J. Ritchie, E. Rosta, C. D. Sherrill, 
 A. C. Simmonett, J. E. Subotnik, H. L. Woodcock III,
 W. Zhang, A. T. Bell, A. K. Chakraborty, D. M. Chipman,
 F. J. Keil, A. Warshel, W. J. Hehre, H. F. Schaefer III,
 J. Kong, A. I. Krylov, P. M. W. Gill, M. Head-Gordon,
 Q-Chem, Version 3.1, Q-Chem, Inc., Pittsburgh, PA (2007).

 Additional authors for Version 3.1: 
 Z. Gan, Y. Zhao, N. E. Schultz, D. Truhlar, E. Epifanovsky and M. Oana.

 Additional authors for Version 3.2: 
 R. Baer, B. R. Brooks, D. Casanova, J.-D. Chai, C.-L. Cheng, 
 C. Cramer, D. Crittenden, A. Ghysels, G. Hawkins, E. G. Hohenstein, 
 C. Kelley, W. Kurlancheek, D. Liotard, E. Livshits, P. Manohar, 
 A. Marenich, D. Neuhauser, R. Olson, M. A. Rohrdanz, K. S. Thanthiriwatte, 
 A. J. W. Thom, V. Vanovschi, C. F. Williams, Q. Wu and Z.-Q. You. 


 Intel X86 Linux Version

 Q-chem begins on Sun Jul  7 08:43:38 2013  

 Parallel job on  1  processors
Processing $rem in /usr/local/qchem/config/preferences.

theFileMan(): MAXOPENFILES=974 MAX_SUB_FILE_NUM=16
Maximum size of a physical file is 2.0 GB, maximum size of a tmp-file is 32.0 GB


--------------------------------------------------------------
User input:
--------------------------------------------------------------

$molecule
1,2
C          0.00060        0.00000        0.00599
C         -0.00144        0.00000        1.51271
O          1.34262        0.00000        1.95481
H          1.36080        0.00000        2.91219
H         -0.52814        0.88506        1.88809
H         -0.52814       -0.88506        1.88809
H         -1.01948        0.00000       -0.37883
H          0.51474        0.88308       -0.37260
H          0.51474       -0.88308       -0.37260
$end

$comment
positive
$end

$xc_functional
C PBE   1.00
X wPBE  1.00
$end

$rem
SYMMETRY_DECOMPOSITION	0
LRC_DFT                 true
exchange 		general
BASIS                   g3large
omega			200
mem_static              760
max_scf_cycles          200
scf_final_print         1
sym_ignore              true
$end

--------------------------------------------------------------
 Writing REM_CC_EA            9
 ----------------------------------------------------
       Standard Nuclear Orientation (Angstroms)
    I     Atom         X            Y            Z
 ----------------------------------------------------
    1      C       0.000600     0.000000     0.005990
    2      C      -0.001440     0.000000     1.512710
    3      O       1.342620     0.000000     1.954810
    4      H       1.360800     0.000000     2.912190
    5      H      -0.528140     0.885060     1.888090
    6      H      -0.528140    -0.885060     1.888090
    7      H      -1.019480     0.000000    -0.378830
    8      H       0.514740     0.883080    -0.372600
    9      H       0.514740    -0.883080    -0.372600
 ----------------------------------------------------
 Nuclear Repulsion Energy =    82.1703385088 hartrees
 There are       13 alpha and       12 beta electrons
 Requested basis set is G3large
 There are 66 shells and 186 basis functions

Total QAlloc Memory Limit   2000 MB
Mega-Array Size       743 MB
MEM_STATIC part       760 MB

                       Distance Matrix (Angstroms)
             C (  1)   C (  2)   O (  3)   H (  4)   H (  5)   H (  6)
   C (  2)  1.506721
   O (  3)  2.366203  1.414903
   H (  4)  3.208760  1.953008  0.957553
   H (  5)  2.145972  1.096200  2.070634  2.323834
   H (  6)  2.145972  1.096200  2.070634  2.323834  1.770120
   H (  7)  1.090252  2.148099  3.320451  4.061594  2.482674  2.482674
   H (  8)  1.089725  2.144916  2.623367  3.505067  2.489643  3.053627
   H (  9)  1.089725  2.144916  2.623367  3.505067  3.053627  2.489643
             H (  7)   H (  8)
   H (  8)  1.770226
   H (  9)  1.770226  1.766160
 
 A cutoff of  1.0D-08 yielded   2117 shell pairs
 There are  16833 function pairs ( 20304 Cartesian)
Evaluating contribution to one-electron hamiltonian from nuclear
 Smallest overlap matrix eigenvalue = 9.78E-05

 Q-Chem warning in module mkSTV.C, line 194:

 Overlap eigenvalue is smaller than square root of threshold

 Multipole matrices computed through 2nd order

  Scale SEOQF with 1.000000e-01/1.000000e-01/1.000000e-01

 Standard Electronic Orientation quadrupole field applied
 Nucleus-field energy     =    -0.0000000056 hartrees
 Guess from superposition of atomic densities
 Warning:  Energy on first SCF cycle will be non-variational
 Long-range K will be added via erf
 Coulomb attenuation parameter = 0.2 bohr**(-1)
 An unrestricted Kohn-Sham SCF calculation will be
 performed using Pulay DIIS extrapolation
 Exchange:  wPBE + LR-HF      Correlation:  PBE
 Using SG-1 standard quadrature grid
 SCF converges when DIIS error is below 1.0E-05
 Requested basis set is G3large
 There are 66 shells and 186 basis functions
 A cutoff of  1.0D-08 yielded   2117 shell pairs
 There are  16833 function pairs ( 20304 Cartesian)
 Warning!  Inaccurate integrated density:
   Number of electrons =    25
   Numerical integral  =    25.999923725395
   Relative error      =     3.9996949016 %
 ---------------------------------------
  Cycle       Energy         DIIS Error
 ---------------------------------------
    1    -155.3303281725      3.18E-02
    2    -154.5037759395      3.39E-03
    3    -154.5243321325      2.80E-03
    4    -154.5553268854      7.70E-04
    5    -154.5569677044      3.81E-04
    6    -154.5575132458      9.46E-05
    7    -154.5575926902      2.88E-05
    8    -154.5576234251      2.05E-05
    9    -154.5576521707      9.84E-06 Convergence criterion met
 ---------------------------------------
 One-Electron    Energy =  -365.0890010034
 Total Coulomb   Energy =   149.5524057489
 Alpha Exchange  Energy =    -1.4155061012
 Beta  Exchange  Energy =    -1.2997719042
 DFT   Exchange  Energy =   -17.6672347823
 DFT Correlation Energy =    -0.8088826317
 Nuclear Repu.   Energy =    82.1703385033
 Nuclear Attr.   Energy =  -519.2043429395
 Kinetic         Energy =   154.1153419360
 <S^2> = 0.7528
 SCF time:  CPU 101.54 s  wall 102.20 s
 Final Alpha MO Eigenvalues
            1           2           3           4           5           6
    1 -19.2350653 -10.3288739 -10.2066830  -1.4020160  -1.0721579  -0.9309853
            7           8           9          10          11          12
    1  -0.8913935  -0.8319479  -0.7631433  -0.7060115  -0.6779558  -0.6671983
           13          14          15          16          17          18
    1  -0.6510639  -0.1512137  -0.1108505  -0.0928258  -0.0866815  -0.0613367
 Final Beta MO Eigenvalues
            1           2           3           4           5           6
    1 -19.2209017 -10.3274510 -10.2061960  -1.3742948  -1.0622518  -0.9224932
            7           8           9          10          11          12
    1  -0.8773425  -0.7938744  -0.7513848  -0.6735786  -0.6623017  -0.6569944
           13          14          15          16          17
    1  -0.4285408  -0.1476724  -0.1070496  -0.0889016  -0.0848743
 Analysis of SCF Wavefunction
 
 --------------------------------------------------------------
                    Orbital Energies (a.u.)
 --------------------------------------------------------------
 
 Alpha MOs
 -- Occupied --
-19.235 -10.329 -10.207  -1.402  -1.072  -0.931  -0.891  -0.832
 -0.763  -0.706  -0.678  -0.667  -0.651
 -- Virtual --
 -0.151  -0.111  -0.093  -0.087  -0.061  -0.053  -0.043  -0.034
 -0.018  -0.017  -0.012   0.014   0.016   0.028   0.032   0.035
  0.036   0.072   0.076   0.081   0.102   0.127   0.131   0.177
  0.185   0.214   0.273   0.275   0.301   0.309   0.359   0.362
  0.366   0.401   0.404   0.430   0.430   0.435   0.468   0.512
  0.532   0.583   0.628   0.646   0.670   0.729   0.746   0.818
  0.823   0.849   0.885   0.892   0.920   0.986   0.991   1.008
  1.015   1.063   1.079   1.103   1.132   1.149   1.213   1.225
  1.235   1.282   1.290   1.304   1.343   1.356   1.418   1.485
  1.567   1.743   1.770   1.945   2.076   2.158   2.239   2.314
  2.361   2.377   2.499   2.586   2.587   2.599   2.717   2.782
  2.798   2.825   2.845   2.949   2.966   2.984   3.031   3.081
  3.133   3.156   3.265   3.268   3.297   3.326   3.330   3.402
  3.436   3.501   3.557   3.642   3.701   3.745   3.766   3.802
  3.809   3.904   3.936   3.977   4.023   4.030   4.046   4.092
  4.207   4.213   4.263   4.340   4.359   4.414   4.613   4.810
  4.838   4.867   5.021   5.147   5.199   5.212   5.252   5.427
  5.442   5.537   5.627   6.091   6.565   6.775   6.829   6.838
  7.179   7.292  23.826  24.005  27.313  27.651  27.697  27.816
 27.819  28.014  40.530  40.546  40.643  40.721  40.753  40.804
 40.833  40.878  40.917  40.961  43.308  43.310  43.371  43.452
 43.497  45.156  45.499  45.921  49.373
 
 Beta MOs
 -- Occupied --
-19.221 -10.327 -10.206  -1.374  -1.062  -0.922  -0.877  -0.794
 -0.751  -0.674  -0.662  -0.657
 -- Virtual --
 -0.429  -0.148  -0.107  -0.089  -0.085  -0.059  -0.050  -0.040
 -0.033  -0.017  -0.015  -0.009   0.017   0.025   0.032   0.034
  0.036   0.038   0.073   0.081   0.086   0.103   0.134   0.135
  0.179   0.187   0.220   0.278   0.282   0.306   0.311   0.362
  0.369   0.374   0.408   0.408   0.431   0.435   0.447   0.472
  0.522   0.535   0.586   0.638   0.648   0.674   0.733   0.750
  0.826   0.842   0.858   0.888   0.919   0.928   0.992   0.999
  1.012   1.018   1.068   1.091   1.109   1.135   1.157   1.226
  1.232   1.244   1.285   1.295   1.308   1.351   1.361   1.425
  1.502   1.593   1.750   1.794   1.966   2.082   2.175   2.248
  2.316   2.372   2.385   2.506   2.591   2.596   2.604   2.724
  2.787   2.810   2.840   2.849   2.961   2.971   2.988   3.044
  3.085   3.134   3.168   3.273   3.273   3.302   3.331   3.334
  3.407   3.445   3.510   3.570   3.648   3.707   3.761   3.772
  3.813   3.814   3.912   3.949   4.001   4.030   4.042   4.054
  4.107   4.220   4.222   4.276   4.354   4.364   4.428   4.684
  4.849   4.874   4.895   5.051   5.160   5.212   5.243   5.286
  5.441   5.445   5.563   5.633   6.105   6.628   6.818   6.860
  6.889   7.204   7.303  23.828  24.006  27.313  27.651  27.703
 27.816  27.822  28.014  40.534  40.547  40.644  40.721  40.757
 40.804  40.837  40.879  40.917  40.962  43.344  43.354  43.407
 43.460  43.500  45.199  45.508  45.930  49.387
 --------------------------------------------------------------
 
          Ground-State Mulliken Net Atomic Charges

     Atom                 Charge (a.u.)    Spin (a.u.)
  --------------------------------------------------------
      1 C                    -0.194014       0.020098
      2 C                    -0.193487       0.066888
      3 O                     0.131628       0.586486
      4 H                     0.319445      -0.008313
      5 H                     0.233478       0.130300
      6 H                     0.232485       0.127147
      7 H                     0.133864      -0.001416
      8 H                     0.168059       0.038477
      9 H                     0.168543       0.040332
  --------------------------------------------------------
  Sum of atomic charges =     1.000000
  Sum of spin   charges =     1.000000

 -----------------------------------------------------------------
                    Cartesian Multipole Moments
 -----------------------------------------------------------------
    Charge (ESU x 10^10)
                 4.8032
    Dipole Moment (Debye)
         X       1.0089      Y      -0.0001      Z       8.0205
       Tot       8.0837
    Quadrupole Moments (Debye-Ang)
        XX     -14.6831     XY      -0.0117     YY     -15.5065
        XZ       4.6104     YZ       0.0127     ZZ       4.0057
    Octapole Moments (Debye-Ang^2)
       XXX     -18.2706    XXY      -0.0085    XYY      -6.7471
       YYY       0.0011    XXZ     -10.4973    XYZ      -0.0146
       YYZ     -16.3865    XZZ      11.0977    YZZ       0.0251
       ZZZ       0.8011
    Hexadecapole Moments (Debye-Ang^3)
      XXXX     -78.4982   XXXY      -0.0277   XXYY     -17.0524
      XYYY      -0.0132   YYYY     -24.3756   XXXZ     -28.8155
      XXYZ      -0.0062   XYYZ     -16.2106   YYYZ       0.0173
      XXZZ     -22.9521   XYZZ      -0.0283   YYZZ     -37.3475
      XZZZ      20.3193   YZZZ       0.0723   ZZZZ     -75.1859
 -----------------------------------------------------------------
 Total job time:  102.41s(wall), 101.74s(cpu) 
 Sun Jul  7 08:45:21 2013

        *************************************************************
        *                                                           *
        *  Thank you very much for using Q-Chem.  Have a nice day.  *
        *                                                           *
        *************************************************************


0 sent ACK to 0 
now end server 0 ... 
