Process 0 of 1 is on cl090.stfx.acenet.ca - thread support 1
initial socket setup ...start
initial socket setup ...done 
now start server 0 ... 

cmd = /usr/bin/ssh clhead /usr/local/qchem/bin/get_hostid 740289914 > /scratch/tmp/6067161.1.short.q/qchem29187/lic.dat
                  Welcome to Q-Chem
     A Quantum Leap Into The Future Of Chemistry

 Y. Shao, L. Fusti-Molnar, Y. Jung, J. Kussmann, C. Ochsenfeld,
 S. T. Brown, A. T. B. Gilbert, L. V. Slipchenko,S. V. Levchenko,
 D. P. O'Neill, R. A. DiStasio Jr., R. C. Lochan, T. Wang,
 G. J. O. Beran, N. A. Besley, J. M. Herbert, C. Y. Lin,
 T. Van Voorhis, S. H. Chien, A. Sodt, R. P. Steele, 
 V. A. Rassolov, P. E. Maslen, P. P. Korambath, R. D. Adamson,
 B. Austin, J. Baker, E. F. C. Byrd, H. Dachsel, R. J. Doerksen,
 A. Dreuw, B. D. Dunietz, A. D. Dutoi, T. R. Furlani,
 S. R. Gwaltney, A. Heyden, S. Hirata, C.-P. Hsu, G. Kedziora,
 R. Z. Khaliullin, P. Klunzinger, A. M. Lee, M. S. Lee, W. Liang,
 I. Lotan, N. Nair, B. Peters, E. I. Proynov, P. A. Pieniazek, 
 Y. M. Rhee, J. Ritchie, E. Rosta, C. D. Sherrill, 
 A. C. Simmonett, J. E. Subotnik, H. L. Woodcock III,
 W. Zhang, A. T. Bell, A. K. Chakraborty, D. M. Chipman,
 F. J. Keil, A. Warshel, W. J. Hehre, H. F. Schaefer III,
 J. Kong, A. I. Krylov, P. M. W. Gill, M. Head-Gordon,
 Q-Chem, Version 3.1, Q-Chem, Inc., Pittsburgh, PA (2007).

 Additional authors for Version 3.1: 
 Z. Gan, Y. Zhao, N. E. Schultz, D. Truhlar, E. Epifanovsky and M. Oana.

 Additional authors for Version 3.2: 
 R. Baer, B. R. Brooks, D. Casanova, J.-D. Chai, C.-L. Cheng, 
 C. Cramer, D. Crittenden, A. Ghysels, G. Hawkins, E. G. Hohenstein, 
 C. Kelley, W. Kurlancheek, D. Liotard, E. Livshits, P. Manohar, 
 A. Marenich, D. Neuhauser, R. Olson, M. A. Rohrdanz, K. S. Thanthiriwatte, 
 A. J. W. Thom, V. Vanovschi, C. F. Williams, Q. Wu and Z.-Q. You. 


 Intel X86 Linux Version

 Q-chem begins on Wed Jul 24 16:21:07 2013  

 Parallel job on  1  processors
Processing $rem in /usr/local/qchem/config/preferences.

theFileMan(): MAXOPENFILES=974 MAX_SUB_FILE_NUM=16
Maximum size of a physical file is 2.0 GB, maximum size of a tmp-file is 32.0 GB


--------------------------------------------------------------
User input:
--------------------------------------------------------------

$molecule
0,1
H
H,1,r

r=0.74264369

$end


$comment
b3lyp opt
$end

$rem
   EXCHANGE B3LYP
   UNRESTRICTED TRUE
   SYMMETRY_DECOMPOSITION	0
   BASIS                   g3large
   JOBTYPE                 opt
   mem_static              760
   max_scf_cycles          200
   scf_final_print         1
   sym_ignore              true
$end


--------------------------------------------------------------
 Writing REM_CC_EA            2
 ----------------------------------------------------
       Standard Nuclear Orientation (Angstroms)
    I     Atom         X            Y            Z
 ----------------------------------------------------
    1      H       0.000000     0.000000     0.000000
    2      H       0.000000     0.000000     0.742644
 ----------------------------------------------------
 Nuclear Repulsion Energy =     0.7125586845 hartrees
 There are        1 alpha and        1 beta electrons
 Requested basis set is G3large
 There are 12 shells and 20 basis functions

Total QAlloc Memory Limit   2000 MB
Mega-Array Size       743 MB
MEM_STATIC part       760 MB
 A cutoff of  1.0D-11 yielded     78 shell pairs
 There are    222 function pairs
Evaluating contribution to one-electron hamiltonian from nuclear
 Smallest overlap matrix eigenvalue = 3.03E-03
 Multipole matrices computed through 2nd order

  Scale SEOQF with 1.000000e+00/1.000000e+00/1.000000e+00

 Standard Electronic Orientation quadrupole field applied
 Nucleus-field energy     =    -0.0000000006 hartrees
 Guess from superposition of atomic densities
 Warning:  Energy on first SCF cycle will be non-variational
 An unrestricted hybrid HF-DFT SCF calculation will be
 performed using Pulay DIIS extrapolation
 Exchange:     0.2000 Hartree-Fock + 0.0800 Slater + 0.7200 Becke88
 Correlation:  0.8100 LYP + 0.1900 VWN1RPA
 Using SG-1 standard quadrature grid
 SCF converges when DIIS error is below 1.0E-08
 ---------------------------------------
  Cycle       Energy         DIIS Error
 ---------------------------------------
    1      -0.9712807569      2.51E-02
    2      -1.1781763958      4.85E-03
    3      -1.1800128070      1.93E-04
    4      -1.1800144647      1.21E-05
    5      -1.1800144721      7.35E-08
    6      -1.1800144721      1.98E-09 Convergence criterion met
 ---------------------------------------
 One-Electron    Energy =    -2.5018989332
 Total Coulomb   Energy =     1.3142309528
 Alpha Exchange  Energy =    -0.0657115476
 Beta  Exchange  Energy =    -0.0657115476
 DFT   Exchange  Energy =    -0.5177764932
 DFT Correlation Energy =    -0.0557055871
 Nuclear Repu.   Energy =     0.7125586839
 Nuclear Attr.   Energy =    -3.6408487137
 Kinetic         Energy =     1.1389497805
 <S^2> = 0.0000
 SCF time:  CPU 0.25 s  wall 0.26 s
 Final Alpha MO Eigenvalues
            1           2           3           4           5           6
    1  -0.4341137   0.0201997   0.0315928   0.1450148   0.3443014   0.4959937
 Final Beta MO Eigenvalues
            1           2           3           4           5           6
    1  -0.4341137   0.0201997   0.0315928   0.1450148   0.3443014   0.4959937
 Analysis of SCF Wavefunction
 
 --------------------------------------------------------------
                    Orbital Energies (a.u.)
 --------------------------------------------------------------
 
 Alpha MOs
 -- Occupied --
 -0.434
 -- Virtual --
  0.020   0.032   0.145   0.344   0.496   0.496   0.567   0.913
  0.926   0.926   1.420   2.250   2.425   3.376   3.376   3.696
  4.181   4.181   5.578
 
 Beta MOs
 -- Occupied --
 -0.434
 -- Virtual --
  0.020   0.032   0.145   0.344   0.496   0.496   0.567   0.913
  0.926   0.926   1.420   2.250   2.425   3.376   3.376   3.696
  4.181   4.181   5.578
 --------------------------------------------------------------
 
          Ground-State Mulliken Net Atomic Charges

     Atom                 Charge (a.u.)    Spin (a.u.)
  --------------------------------------------------------
      1 H                     0.000000       0.000000
      2 H                     0.000000       0.000000
  --------------------------------------------------------
  Sum of atomic charges =     0.000000
  Sum of spin   charges =     0.000000

 -----------------------------------------------------------------
                    Cartesian Multipole Moments
 -----------------------------------------------------------------
    Charge (ESU x 10^10)
                 0.0000
    Dipole Moment (Debye)
         X       0.0000      Y       0.0000      Z       0.0000
       Tot       0.0000
    Quadrupole Moments (Debye-Ang)
        XX      -2.1059     XY       0.0000     YY      -2.1059
        XZ       0.0000     YZ       0.0000     ZZ      -1.5331
    Octapole Moments (Debye-Ang^2)
       XXX       0.0000    XXY       0.0000    XYY       0.0000
       YYY       0.0000    XXZ      -0.7820    XYZ       0.0000
       YYZ      -0.7820    XZZ       0.0000    YZZ       0.0000
       ZZZ      -1.7078
    Hexadecapole Moments (Debye-Ang^3)
      XXXX      -2.1821   XXXY       0.0000   XXYY      -0.7274
      XYYY       0.0000   YYYY      -2.1821   XXXZ       0.0000
      XXYZ       0.0000   XYYZ       0.0000   YYYZ       0.0000
      XXZZ      -1.1738   XYZZ       0.0000   YYZZ      -1.1738
      XZZZ       0.0000   YZZZ       0.0000   ZZZZ      -4.2841
 -----------------------------------------------------------------
 Calculating analytic gradient of the SCF energy
 Gradient of XC Energy
            1           2
    1   0.0000000  -0.0000000
    2   0.0000000  -0.0000000
    3  -0.2045888   0.2045888
 Gradient of SCF Energy
            1           2
    1   0.0000000  -0.0000000
    2   0.0000000  -0.0000000
    3   0.0000837  -0.0000837
 Max gradient component =       8.372E-05
 RMS gradient           =       4.834E-05
 Gradient time:  CPU 0.07 s  wall 0.08 s
 Geometry Optimization Parameters
   NAtoms,    NIC,     NZ,  NCons,   NDum,   NFix, NCnnct, MaxDiis
        2       5       2       0       0       0       0       0


** GEOMETRY OPTIMIZATION IN DELOCALIZED INTERNAL COORDINATES **
   Searching for a Minimum

   Optimization Cycle:   1

                       Coordinates (Angstroms)
     ATOM              X           Y           Z
    1  H           0.000000    0.000000    0.000000
    2  H           0.000000    0.000000    0.742644
   Point Group: c1    Number of degrees of freedom:   0


   Energy is     -1.180014472


 Attempting to Generate Delocalized Internal Coordinates

  ***ERROR*** Wrong Number of Internal Coordinates
              Should be:   0  Found:   1
**WARNING** Problems with Internal Coordinates
  Switching to Cartesian Coordinates

 Translations and Rotations Projected Out of Hessian

  1 Hessian modes will be used to form the next step
  Hessian Eigenvalues:
     1.000000

 Minimum Search - Taking Simple RFO Step
 Searching for Lamda that Minimizes Along All modes
 Value Taken    Lamda =   0.00000000
 Step Taken.  Stepsize is  0.000118

                             Maximum     Tolerance    Cnvgd?
         Gradient           0.000084      0.000300     YES
         Displacement       0.000084      0.001200     YES
         Energy change     -1.180014      0.000001      NO


                       Distance Matrix (Angstroms)
             H (  1)
   H (  2)  0.742644
 


 ******************************
 **  OPTIMIZATION CONVERGED  **
 ******************************
 Analysis of SCF Wavefunction
 
 --------------------------------------------------------------
                    Orbital Energies (a.u.)
 --------------------------------------------------------------
 
 Alpha MOs
 -- Occupied --
 -0.434
 -- Virtual --
  0.020   0.032   0.145   0.344   0.496   0.496   0.567   0.913
  0.926   0.926   1.420   2.250   2.425   3.376   3.376   3.696
  4.181   4.181   5.578
 
 Beta MOs
 -- Occupied --
 -0.434
 -- Virtual --
  0.020   0.032   0.145   0.344   0.496   0.496   0.567   0.913
  0.926   0.926   1.420   2.250   2.425   3.376   3.376   3.696
  4.181   4.181   5.578
 --------------------------------------------------------------
 
          Ground-State Mulliken Net Atomic Charges

     Atom                 Charge (a.u.)    Spin (a.u.)
  --------------------------------------------------------
      1 H                     0.000000       0.000000
      2 H                     0.000000       0.000000
  --------------------------------------------------------
  Sum of atomic charges =     0.000000
  Sum of spin   charges =     0.000000

 -----------------------------------------------------------------
                    Cartesian Multipole Moments
 -----------------------------------------------------------------
    Charge (ESU x 10^10)
                 0.0000
    Dipole Moment (Debye)
         X       0.0000      Y       0.0000      Z       0.0000
       Tot       0.0000
    Quadrupole Moments (Debye-Ang)
        XX      -2.1059     XY       0.0000     YY      -2.1059
        XZ       0.0000     YZ       0.0000     ZZ      -1.5331
    Octapole Moments (Debye-Ang^2)
       XXX       0.0000    XXY       0.0000    XYY       0.0000
       YYY       0.0000    XXZ      -0.7820    XYZ       0.0000
       YYZ      -0.7820    XZZ       0.0000    YZZ       0.0000
       ZZZ      -1.7078
    Hexadecapole Moments (Debye-Ang^3)
      XXXX      -2.1821   XXXY       0.0000   XXYY      -0.7274
      XYYY       0.0000   YYYY      -2.1821   XXXZ       0.0000
      XXYZ       0.0000   XYYZ       0.0000   YYYZ       0.0000
      XXZZ      -1.1738   XYZZ       0.0000   YYZZ      -1.1738
      XZZZ       0.0000   YZZZ       0.0000   ZZZZ      -4.2841
 -----------------------------------------------------------------
 Total job time:  0.40s(wall), 0.38s(cpu) 
 Wed Jul 24 16:21:08 2013

        *************************************************************
        *                                                           *
        *  Thank you very much for using Q-Chem.  Have a nice day.  *
        *                                                           *
        *************************************************************


0 sent ACK to 0 
now end server 0 ... 
 
**********************************************************************
Job 2 of 2 
**********************************************************************
 
Process 0 of 1 is on cl090.stfx.acenet.ca - thread support 1
initial socket setup ...start
initial socket setup ...done 
now start server 0 ... 

cmd = /usr/bin/ssh clhead /usr/local/qchem/bin/get_hostid 906759663 > /scratch/tmp/6067161.1.short.q/qchem29187/lic.dat
                  Welcome to Q-Chem
     A Quantum Leap Into The Future Of Chemistry

 Y. Shao, L. Fusti-Molnar, Y. Jung, J. Kussmann, C. Ochsenfeld,
 S. T. Brown, A. T. B. Gilbert, L. V. Slipchenko,S. V. Levchenko,
 D. P. O'Neill, R. A. DiStasio Jr., R. C. Lochan, T. Wang,
 G. J. O. Beran, N. A. Besley, J. M. Herbert, C. Y. Lin,
 T. Van Voorhis, S. H. Chien, A. Sodt, R. P. Steele, 
 V. A. Rassolov, P. E. Maslen, P. P. Korambath, R. D. Adamson,
 B. Austin, J. Baker, E. F. C. Byrd, H. Dachsel, R. J. Doerksen,
 A. Dreuw, B. D. Dunietz, A. D. Dutoi, T. R. Furlani,
 S. R. Gwaltney, A. Heyden, S. Hirata, C.-P. Hsu, G. Kedziora,
 R. Z. Khaliullin, P. Klunzinger, A. M. Lee, M. S. Lee, W. Liang,
 I. Lotan, N. Nair, B. Peters, E. I. Proynov, P. A. Pieniazek, 
 Y. M. Rhee, J. Ritchie, E. Rosta, C. D. Sherrill, 
 A. C. Simmonett, J. E. Subotnik, H. L. Woodcock III,
 W. Zhang, A. T. Bell, A. K. Chakraborty, D. M. Chipman,
 F. J. Keil, A. Warshel, W. J. Hehre, H. F. Schaefer III,
 J. Kong, A. I. Krylov, P. M. W. Gill, M. Head-Gordon,
 Q-Chem, Version 3.1, Q-Chem, Inc., Pittsburgh, PA (2007).

 Additional authors for Version 3.1: 
 Z. Gan, Y. Zhao, N. E. Schultz, D. Truhlar, E. Epifanovsky and M. Oana.

 Additional authors for Version 3.2: 
 R. Baer, B. R. Brooks, D. Casanova, J.-D. Chai, C.-L. Cheng, 
 C. Cramer, D. Crittenden, A. Ghysels, G. Hawkins, E. G. Hohenstein, 
 C. Kelley, W. Kurlancheek, D. Liotard, E. Livshits, P. Manohar, 
 A. Marenich, D. Neuhauser, R. Olson, M. A. Rohrdanz, K. S. Thanthiriwatte, 
 A. J. W. Thom, V. Vanovschi, C. F. Williams, Q. Wu and Z.-Q. You. 


 Intel X86 Linux Version

 Q-chem begins on Wed Jul 24 16:21:11 2013  

 Parallel job on  1  processors
Processing $rem in /usr/local/qchem/config/preferences.

theFileMan(): MAXOPENFILES=974 MAX_SUB_FILE_NUM=16
Maximum size of a physical file is 2.0 GB, maximum size of a tmp-file is 32.0 GB


--------------------------------------------------------------
User input:
--------------------------------------------------------------

$molecule 
READ 
$end 

$rem
   EXCHANGE B3LYP
   UNRESTRICTED TRUE
   SYMMETRY_DECOMPOSITION       0
   BASIS                   g3large
   JOBTYPE                 freq
   mem_static              760
   max_scf_cycles          200
   scf_final_print         1
   sym_ignore              true
   JOBTYPE                 freq
   IDERIV 1
   SCF_GUESS READ
$end
--------------------------------------------------------------
 Writing REM_CC_EA            2
 ----------------------------------------------------
       Standard Nuclear Orientation (Angstroms)
    I     Atom         X            Y            Z
 ----------------------------------------------------
    1      H       0.000000     0.000000     0.000000
    2      H       0.000000     0.000000     0.742644
 ----------------------------------------------------
 Nuclear Repulsion Energy =     0.7125586845 hartrees
 There are        1 alpha and        1 beta electrons
 Requested basis set is G3large
 There are 12 shells and 20 basis functions

Total QAlloc Memory Limit   2000 MB
Mega-Array Size       759 MB
MEM_STATIC part       760 MB

                       Distance Matrix (Angstroms)
             H (  1)
   H (  2)  0.742644
 
 A cutoff of  1.0D-11 yielded     78 shell pairs
 There are    222 function pairs
Evaluating contribution to one-electron hamiltonian from nuclear
 Smallest overlap matrix eigenvalue = 3.03E-03
 Multipole matrices computed through 2nd order
 Guess MOs from SCF MO coefficient file
Reading MOs from coefficient file
Reading MOs from coefficient file
 An unrestricted hybrid HF-DFT SCF calculation will be
 performed using Pulay DIIS extrapolation
 Exchange:     0.2000 Hartree-Fock + 0.0800 Slater + 0.7200 Becke88
 Correlation:  0.8100 LYP + 0.1900 VWN1RPA
 Using SG-1 standard quadrature grid
 SCF converges when DIIS error is below 1.0E-08
 ---------------------------------------
  Cycle       Energy         DIIS Error
 ---------------------------------------
    1      -1.1800144720      3.59E-10
    2      -1.1800144720      1.98E-10 Convergence criterion met
 ---------------------------------------
 One-Electron    Energy =    -2.5018989385
 Total Coulomb   Energy =     1.3142309628
 Alpha Exchange  Energy =    -0.0657115481
 Beta  Exchange  Energy =    -0.0657115481
 DFT   Exchange  Energy =    -0.5177764973
 DFT Correlation Energy =    -0.0557055873
 Nuclear Repu.   Energy =     0.7125586845
 Nuclear Attr.   Energy =    -3.6408487365
 Kinetic         Energy =     1.1389497980
 <S^2> = 0.0000
 SCF time:  CPU 0.08 s  wall 0.09 s
 Final Alpha MO Eigenvalues
            1           2           3           4           5           6
    1  -0.4341137   0.0201998   0.0315928   0.1450150   0.3443014   0.4959937
 Final Beta MO Eigenvalues
            1           2           3           4           5           6
    1  -0.4341137   0.0201998   0.0315928   0.1450150   0.3443014   0.4959937
 Analysis of SCF Wavefunction
 
 --------------------------------------------------------------
                    Orbital Energies (a.u.)
 --------------------------------------------------------------
 
 Alpha MOs
 -- Occupied --
 -0.434
 -- Virtual --
  0.020   0.032   0.145   0.344   0.496   0.496   0.567   0.913
  0.926   0.926   1.420   2.250   2.425   3.376   3.376   3.696
  4.181   4.181   5.578
 
 Beta MOs
 -- Occupied --
 -0.434
 -- Virtual --
  0.020   0.032   0.145   0.344   0.496   0.496   0.567   0.913
  0.926   0.926   1.420   2.250   2.425   3.376   3.376   3.696
  4.181   4.181   5.578
 --------------------------------------------------------------
 
          Ground-State Mulliken Net Atomic Charges

     Atom                 Charge (a.u.)    Spin (a.u.)
  --------------------------------------------------------
      1 H                     0.000000       0.000000
      2 H                     0.000000       0.000000
  --------------------------------------------------------
  Sum of atomic charges =     0.000000
  Sum of spin   charges =     0.000000

 -----------------------------------------------------------------
                    Cartesian Multipole Moments
 -----------------------------------------------------------------
    Charge (ESU x 10^10)
                 0.0000
    Dipole Moment (Debye)
         X       0.0000      Y       0.0000      Z       0.0000
       Tot       0.0000
    Quadrupole Moments (Debye-Ang)
        XX      -2.1059     XY       0.0000     YY      -2.1059
        XZ       0.0000     YZ       0.0000     ZZ      -1.5331
    Octapole Moments (Debye-Ang^2)
       XXX       0.0000    XXY       0.0000    XYY       0.0000
       YYY       0.0000    XXZ      -0.7820    XYZ       0.0000
       YYZ      -0.7820    XZZ       0.0000    YZZ       0.0000
       ZZZ      -1.7078
    Hexadecapole Moments (Debye-Ang^3)
      XXXX      -2.1821   XXXY       0.0000   XXYY      -0.7274
      XYYY       0.0000   YYYY      -2.1821   XXXZ       0.0000
      XXYZ       0.0000   XYYZ       0.0000   YYYZ       0.0000
      XXZZ      -1.1738   XYZZ       0.0000   YYZZ      -1.1738
      XZZZ       0.0000   YZZZ       0.0000   ZZZZ      -4.2841
 -----------------------------------------------------------------
 Calculating analytic gradient of the SCF energy
 Gradient of XC Energy
            1           2
    1   0.0000000  -0.0000000
    2   0.0000000  -0.0000000
    3  -0.2045888   0.2045888
 Gradient of SCF Energy
            1           2
    1   0.0000000  -0.0000000
    2   0.0000000  -0.0000000
    3   0.0000837  -0.0000837
 Max gradient component =       8.372E-05
 RMS gradient           =       4.834E-05
 Gradient time:  CPU 0.07 s  wall 0.07 s
 ######################################################
 ######################################################
 # Starting finite difference calculation for IDERIV  #
 Finite diff step size: 1.89e-03 a.u.
 Writing REM_CC_EA            2
 ----------------------------------------------------
       Standard Nuclear Orientation (Angstroms)
    I     Atom         X            Y            Z
 ----------------------------------------------------
    1      H       0.001000     0.000000     0.000000
    2      H       0.000000     0.000000     0.742644
 ----------------------------------------------------
 Nuclear Repulsion Energy =     0.7125580385 hartrees
 There are        1 alpha and        1 beta electrons

                       Distance Matrix (Angstroms)
             H (  1)
   H (  2)  0.742644
 
 Requested basis set is G3large
 There are 12 shells and 20 basis functions
 A cutoff of  1.0D-11 yielded     78 shell pairs
 There are    222 function pairs
Evaluating contribution to one-electron hamiltonian from nuclear
 Smallest overlap matrix eigenvalue = 3.03E-03
 Multipole matrices computed through 2nd order
 Guess MOs from SCF MO coefficient file
Reading MOs from coefficient file
Reading MOs from coefficient file
 An unrestricted hybrid HF-DFT SCF calculation will be
 performed using Pulay DIIS extrapolation
 Exchange:     0.2000 Hartree-Fock + 0.0800 Slater + 0.7200 Becke88
 Correlation:  0.8100 LYP + 0.1900 VWN1RPA
 Using SG-1 standard quadrature grid
 SCF converges when DIIS error is below 1.0E-08
 ---------------------------------------
  Cycle       Energy         DIIS Error
 ---------------------------------------
    1      -1.1800142393      1.14E-05
    2      -1.1800144721      6.26E-07
    3      -1.1800144721      7.15E-09 Convergence criterion met
 ---------------------------------------
 One-Electron    Energy =    -2.5018980391
 Total Coulomb   Energy =     1.3142304734
 Alpha Exchange  Energy =    -0.0657115237
 Beta  Exchange  Energy =    -0.0657115237
 DFT   Exchange  Energy =    -0.5177763180
 DFT Correlation Energy =    -0.0557055796
 Nuclear Repu.   Energy =     0.7125580385
 Nuclear Attr.   Energy =    -3.6408471497
 Kinetic         Energy =     1.1389491107
 <S^2> = 0.0000
 SCF time:  CPU 0.13 s  wall 0.14 s
 Final Alpha MO Eigenvalues
            1           2           3           4           5           6
    1  -0.4341136   0.0201997   0.0315928   0.1450149   0.3443015   0.4959936
 Final Beta MO Eigenvalues
            1           2           3           4           5           6
    1  -0.4341136   0.0201997   0.0315928   0.1450149   0.3443015   0.4959936
 Analysis of SCF Wavefunction
 
 --------------------------------------------------------------
                    Orbital Energies (a.u.)
 --------------------------------------------------------------
 
 Alpha MOs
 -- Occupied --
 -0.434
 -- Virtual --
  0.020   0.032   0.145   0.344   0.496   0.496   0.567   0.913
  0.926   0.926   1.420   2.250   2.425   3.376   3.376   3.696
  4.181   4.181   5.578
 
 Beta MOs
 -- Occupied --
 -0.434
 -- Virtual --
  0.020   0.032   0.145   0.344   0.496   0.496   0.567   0.913
  0.926   0.926   1.420   2.250   2.425   3.376   3.376   3.696
  4.181   4.181   5.578
 --------------------------------------------------------------
 
          Ground-State Mulliken Net Atomic Charges

     Atom                 Charge (a.u.)    Spin (a.u.)
  --------------------------------------------------------
      1 H                     0.000000       0.000000
      2 H                     0.000000       0.000000
  --------------------------------------------------------
  Sum of atomic charges =     0.000000
  Sum of spin   charges =     0.000000

 -----------------------------------------------------------------
                    Cartesian Multipole Moments
 -----------------------------------------------------------------
    Charge (ESU x 10^10)
                 0.0000
    Dipole Moment (Debye)
         X       0.0000      Y       0.0000      Z       0.0000
       Tot       0.0000
    Quadrupole Moments (Debye-Ang)
        XX      -2.1059     XY       0.0000     YY      -2.1059
        XZ      -0.0008     YZ       0.0000     ZZ      -1.5331
    Octapole Moments (Debye-Ang^2)
       XXX      -0.0032    XXY       0.0000    XYY      -0.0011
       YYY       0.0000    XXZ      -0.7820    XYZ       0.0000
       YYZ      -0.7820    XZZ      -0.0013    YZZ       0.0000
       ZZZ      -1.7078
    Hexadecapole Moments (Debye-Ang^3)
      XXXX      -2.1821   XXXY       0.0000   XXYY      -0.7274
      XYYY       0.0000   YYYY      -2.1821   XXXZ      -0.0005
      XXYZ       0.0000   XYYZ      -0.0002   YYYZ       0.0000
      XXZZ      -1.1738   XYZZ       0.0000   YYZZ      -1.1738
      XZZZ      -0.0007   YZZZ       0.0000   ZZZZ      -4.2841
 -----------------------------------------------------------------
 Calculating analytic gradient of the SCF energy
 Gradient of XC Energy
            1           2
    1   0.0002755  -0.0002755
    2  -0.0000000   0.0000000
    3  -0.2045886   0.2045886
 Gradient of SCF Energy
            1           2
    1  -0.0000001   0.0000001
    2  -0.0000000   0.0000000
    3   0.0000833  -0.0000833
 Max gradient component =       8.325E-05
 RMS gradient           =       4.807E-05
 Gradient time:  CPU 0.07 s  wall 0.07 s
 Writing REM_CC_EA            2
 ----------------------------------------------------
       Standard Nuclear Orientation (Angstroms)
    I     Atom         X            Y            Z
 ----------------------------------------------------
    1      H      -0.001000     0.000000     0.000000
    2      H       0.000000     0.000000     0.742644
 ----------------------------------------------------
 Nuclear Repulsion Energy =     0.7125580385 hartrees
 There are        1 alpha and        1 beta electrons

                       Distance Matrix (Angstroms)
             H (  1)
   H (  2)  0.742644
 
 Requested basis set is G3large
 There are 12 shells and 20 basis functions
 A cutoff of  1.0D-11 yielded     78 shell pairs
 There are    222 function pairs
Evaluating contribution to one-electron hamiltonian from nuclear
 Smallest overlap matrix eigenvalue = 3.03E-03
 Multipole matrices computed through 2nd order
 Guess MOs from SCF MO coefficient file
Reading MOs from coefficient file
Reading MOs from coefficient file
 An unrestricted hybrid HF-DFT SCF calculation will be
 performed using Pulay DIIS extrapolation
 Exchange:     0.2000 Hartree-Fock + 0.0800 Slater + 0.7200 Becke88
 Correlation:  0.8100 LYP + 0.1900 VWN1RPA
 Using SG-1 standard quadrature grid
 SCF converges when DIIS error is below 1.0E-08
 ---------------------------------------
  Cycle       Energy         DIIS Error
 ---------------------------------------
    1      -1.1800143875      2.28E-05
    2      -1.1800144720      1.25E-06
    3      -1.1800144721      1.34E-08
    4      -1.1800144721      8.36E-10 Convergence criterion met
 ---------------------------------------
 One-Electron    Energy =    -2.5018980534
 Total Coulomb   Energy =     1.3142305024
 Alpha Exchange  Energy =    -0.0657115251
 Beta  Exchange  Energy =    -0.0657115251
 DFT   Exchange  Energy =    -0.5177763292
 DFT Correlation Energy =    -0.0557055800
 Nuclear Repu.   Energy =     0.7125580385
 Nuclear Attr.   Energy =    -3.6408472111
 Kinetic         Energy =     1.1389491576
 <S^2> = 0.0000
 SCF time:  CPU 0.18 s  wall 0.18 s
 Final Alpha MO Eigenvalues
            1           2           3           4           5           6
    1  -0.4341136   0.0201997   0.0315928   0.1450149   0.3443015   0.4959936
 Final Beta MO Eigenvalues
            1           2           3           4           5           6
    1  -0.4341136   0.0201997   0.0315928   0.1450149   0.3443015   0.4959936
 Analysis of SCF Wavefunction
 
 --------------------------------------------------------------
                    Orbital Energies (a.u.)
 --------------------------------------------------------------
 
 Alpha MOs
 -- Occupied --
 -0.434
 -- Virtual --
  0.020   0.032   0.145   0.344   0.496   0.496   0.567   0.913
  0.926   0.926   1.420   2.250   2.425   3.376   3.376   3.696
  4.181   4.181   5.578
 
 Beta MOs
 -- Occupied --
 -0.434
 -- Virtual --
  0.020   0.032   0.145   0.344   0.496   0.496   0.567   0.913
  0.926   0.926   1.420   2.250   2.425   3.376   3.376   3.696
  4.181   4.181   5.578
 --------------------------------------------------------------
 
          Ground-State Mulliken Net Atomic Charges

     Atom                 Charge (a.u.)    Spin (a.u.)
  --------------------------------------------------------
      1 H                     0.000000       0.000000
      2 H                     0.000000       0.000000
  --------------------------------------------------------
  Sum of atomic charges =     0.000000
  Sum of spin   charges =     0.000000

 -----------------------------------------------------------------
                    Cartesian Multipole Moments
 -----------------------------------------------------------------
    Charge (ESU x 10^10)
                 0.0000
    Dipole Moment (Debye)
         X       0.0000      Y       0.0000      Z       0.0000
       Tot       0.0000
    Quadrupole Moments (Debye-Ang)
        XX      -2.1059     XY       0.0000     YY      -2.1059
        XZ       0.0008     YZ       0.0000     ZZ      -1.5331
    Octapole Moments (Debye-Ang^2)
       XXX       0.0032    XXY       0.0000    XYY       0.0011
       YYY       0.0000    XXZ      -0.7820    XYZ       0.0000
       YYZ      -0.7820    XZZ       0.0013    YZZ       0.0000
       ZZZ      -1.7078
    Hexadecapole Moments (Debye-Ang^3)
      XXXX      -2.1821   XXXY       0.0000   XXYY      -0.7274
      XYYY       0.0000   YYYY      -2.1821   XXXZ       0.0005
      XXYZ       0.0000   XYYZ       0.0002   YYYZ       0.0000
      XXZZ      -1.1738   XYZZ       0.0000   YYZZ      -1.1738
      XZZZ       0.0007   YZZZ       0.0000   ZZZZ      -4.2841
 -----------------------------------------------------------------
 Calculating analytic gradient of the SCF energy
 Gradient of XC Energy
            1           2
    1  -0.0002755   0.0002755
    2  -0.0000000   0.0000000
    3  -0.2045886   0.2045886
 Gradient of SCF Energy
            1           2
    1   0.0000001  -0.0000001
    2   0.0000000  -0.0000000
    3   0.0000833  -0.0000833
 Max gradient component =       8.325E-05
 RMS gradient           =       4.806E-05
 Gradient time:  CPU 0.07 s  wall 0.07 s
 Writing REM_CC_EA            2
 ----------------------------------------------------
       Standard Nuclear Orientation (Angstroms)
    I     Atom         X            Y            Z
 ----------------------------------------------------
    1      H       0.000000     0.001000     0.000000
    2      H       0.000000     0.000000     0.742644
 ----------------------------------------------------
 Nuclear Repulsion Energy =     0.7125580385 hartrees
 There are        1 alpha and        1 beta electrons

                       Distance Matrix (Angstroms)
             H (  1)
   H (  2)  0.742644
 
 Requested basis set is G3large
 There are 12 shells and 20 basis functions
 A cutoff of  1.0D-11 yielded     78 shell pairs
 There are    222 function pairs
Evaluating contribution to one-electron hamiltonian from nuclear
 Smallest overlap matrix eigenvalue = 3.03E-03
 Multipole matrices computed through 2nd order
 Guess MOs from SCF MO coefficient file
Reading MOs from coefficient file
Reading MOs from coefficient file
 An unrestricted hybrid HF-DFT SCF calculation will be
 performed using Pulay DIIS extrapolation
 Exchange:     0.2000 Hartree-Fock + 0.0800 Slater + 0.7200 Becke88
 Correlation:  0.8100 LYP + 0.1900 VWN1RPA
 Using SG-1 standard quadrature grid
 SCF converges when DIIS error is below 1.0E-08
 ---------------------------------------
  Cycle       Energy         DIIS Error
 ---------------------------------------
    1      -1.1800144298      1.62E-05
    2      -1.1800144720      8.86E-07
    3      -1.1800144721      9.40E-09 Convergence criterion met
 ---------------------------------------
 One-Electron    Energy =    -2.5018980463
 Total Coulomb   Energy =     1.3142304880
 Alpha Exchange  Energy =    -0.0657115244
 Beta  Exchange  Energy =    -0.0657115244
 DFT   Exchange  Energy =    -0.5177763237
 DFT Correlation Energy =    -0.0557055798
 Nuclear Repu.   Energy =     0.7125580385
 Nuclear Attr.   Energy =    -3.6408471808
 Kinetic         Energy =     1.1389491345
 <S^2> = 0.0000
 SCF time:  CPU 0.14 s  wall 0.14 s
 Final Alpha MO Eigenvalues
            1           2           3           4           5           6
    1  -0.4341136   0.0201997   0.0315928   0.1450149   0.3443015   0.4959936
 Final Beta MO Eigenvalues
            1           2           3           4           5           6
    1  -0.4341136   0.0201997   0.0315928   0.1450149   0.3443015   0.4959936
 Analysis of SCF Wavefunction
 
 --------------------------------------------------------------
                    Orbital Energies (a.u.)
 --------------------------------------------------------------
 
 Alpha MOs
 -- Occupied --
 -0.434
 -- Virtual --
  0.020   0.032   0.145   0.344   0.496   0.496   0.567   0.913
  0.926   0.926   1.420   2.250   2.425   3.376   3.376   3.696
  4.181   4.181   5.578
 
 Beta MOs
 -- Occupied --
 -0.434
 -- Virtual --
  0.020   0.032   0.145   0.344   0.496   0.496   0.567   0.913
  0.926   0.926   1.420   2.250   2.425   3.376   3.376   3.696
  4.181   4.181   5.578
 --------------------------------------------------------------
 
          Ground-State Mulliken Net Atomic Charges

     Atom                 Charge (a.u.)    Spin (a.u.)
  --------------------------------------------------------
      1 H                     0.000000       0.000000
      2 H                     0.000000       0.000000
  --------------------------------------------------------
  Sum of atomic charges =     0.000000
  Sum of spin   charges =     0.000000

 -----------------------------------------------------------------
                    Cartesian Multipole Moments
 -----------------------------------------------------------------
    Charge (ESU x 10^10)
                 0.0000
    Dipole Moment (Debye)
         X       0.0000      Y       0.0000      Z       0.0000
       Tot       0.0000
    Quadrupole Moments (Debye-Ang)
        XX      -2.1059     XY       0.0000     YY      -2.1059
        XZ       0.0000     YZ      -0.0008     ZZ      -1.5331
    Octapole Moments (Debye-Ang^2)
       XXX       0.0000    XXY      -0.0011    XYY       0.0000
       YYY      -0.0032    XXZ      -0.7820    XYZ       0.0000
       YYZ      -0.7820    XZZ       0.0000    YZZ      -0.0013
       ZZZ      -1.7078
    Hexadecapole Moments (Debye-Ang^3)
      XXXX      -2.1821   XXXY       0.0000   XXYY      -0.7274
      XYYY       0.0000   YYYY      -2.1821   XXXZ       0.0000
      XXYZ      -0.0002   XYYZ       0.0000   YYYZ      -0.0005
      XXZZ      -1.1738   XYZZ       0.0000   YYZZ      -1.1738
      XZZZ       0.0000   YZZZ      -0.0007   ZZZZ      -4.2841
 -----------------------------------------------------------------
 Calculating analytic gradient of the SCF energy
 Gradient of XC Energy
            1           2
    1   0.0000000  -0.0000000
    2   0.0002755  -0.0002755
    3  -0.2045886   0.2045886
 Gradient of SCF Energy
            1           2
    1   0.0000000  -0.0000000
    2  -0.0000001   0.0000001
    3   0.0000833  -0.0000833
 Max gradient component =       8.325E-05
 RMS gradient           =       4.807E-05
 Gradient time:  CPU 0.07 s  wall 0.07 s
 Writing REM_CC_EA            2
 ----------------------------------------------------
       Standard Nuclear Orientation (Angstroms)
    I     Atom         X            Y            Z
 ----------------------------------------------------
    1      H       0.000000    -0.001000     0.000000
    2      H       0.000000     0.000000     0.742644
 ----------------------------------------------------
 Nuclear Repulsion Energy =     0.7125580385 hartrees
 There are        1 alpha and        1 beta electrons

                       Distance Matrix (Angstroms)
             H (  1)
   H (  2)  0.742644
 
 Requested basis set is G3large
 There are 12 shells and 20 basis functions
 A cutoff of  1.0D-11 yielded     78 shell pairs
 There are    222 function pairs
Evaluating contribution to one-electron hamiltonian from nuclear
 Smallest overlap matrix eigenvalue = 3.03E-03
 Multipole matrices computed through 2nd order
 Guess MOs from SCF MO coefficient file
Reading MOs from coefficient file
Reading MOs from coefficient file
 An unrestricted hybrid HF-DFT SCF calculation will be
 performed using Pulay DIIS extrapolation
 Exchange:     0.2000 Hartree-Fock + 0.0800 Slater + 0.7200 Becke88
 Correlation:  0.8100 LYP + 0.1900 VWN1RPA
 Using SG-1 standard quadrature grid
 SCF converges when DIIS error is below 1.0E-08
 ---------------------------------------
  Cycle       Energy         DIIS Error
 ---------------------------------------
    1      -1.1800143875      2.28E-05
    2      -1.1800144720      1.25E-06
    3      -1.1800144721      1.34E-08
    4      -1.1800144721      8.26E-10 Convergence criterion met
 ---------------------------------------
 One-Electron    Energy =    -2.5018980538
 Total Coulomb   Energy =     1.3142305030
 Alpha Exchange  Energy =    -0.0657115252
 Beta  Exchange  Energy =    -0.0657115252
 DFT   Exchange  Energy =    -0.5177763295
 DFT Correlation Energy =    -0.0557055800
 Nuclear Repu.   Energy =     0.7125580385
 Nuclear Attr.   Energy =    -3.6408472122
 Kinetic         Energy =     1.1389491584
 <S^2> = 0.0000
 SCF time:  CPU 0.18 s  wall 0.18 s
 Final Alpha MO Eigenvalues
            1           2           3           4           5           6
    1  -0.4341136   0.0201997   0.0315928   0.1450149   0.3443015   0.4959936
 Final Beta MO Eigenvalues
            1           2           3           4           5           6
    1  -0.4341136   0.0201997   0.0315928   0.1450149   0.3443015   0.4959936
 Analysis of SCF Wavefunction
 
 --------------------------------------------------------------
                    Orbital Energies (a.u.)
 --------------------------------------------------------------
 
 Alpha MOs
 -- Occupied --
 -0.434
 -- Virtual --
  0.020   0.032   0.145   0.344   0.496   0.496   0.567   0.913
  0.926   0.926   1.420   2.250   2.425   3.376   3.376   3.696
  4.181   4.181   5.578
 
 Beta MOs
 -- Occupied --
 -0.434
 -- Virtual --
  0.020   0.032   0.145   0.344   0.496   0.496   0.567   0.913
  0.926   0.926   1.420   2.250   2.425   3.376   3.376   3.696
  4.181   4.181   5.578
 --------------------------------------------------------------
 
          Ground-State Mulliken Net Atomic Charges

     Atom                 Charge (a.u.)    Spin (a.u.)
  --------------------------------------------------------
      1 H                     0.000000       0.000000
      2 H                     0.000000       0.000000
  --------------------------------------------------------
  Sum of atomic charges =     0.000000
  Sum of spin   charges =     0.000000

 -----------------------------------------------------------------
                    Cartesian Multipole Moments
 -----------------------------------------------------------------
    Charge (ESU x 10^10)
                 0.0000
    Dipole Moment (Debye)
         X       0.0000      Y       0.0000      Z       0.0000
       Tot       0.0000
    Quadrupole Moments (Debye-Ang)
        XX      -2.1059     XY       0.0000     YY      -2.1059
        XZ       0.0000     YZ       0.0008     ZZ      -1.5331
    Octapole Moments (Debye-Ang^2)
       XXX       0.0000    XXY       0.0011    XYY       0.0000
       YYY       0.0032    XXZ      -0.7820    XYZ       0.0000
       YYZ      -0.7820    XZZ       0.0000    YZZ       0.0013
       ZZZ      -1.7078
    Hexadecapole Moments (Debye-Ang^3)
      XXXX      -2.1821   XXXY       0.0000   XXYY      -0.7274
      XYYY       0.0000   YYYY      -2.1821   XXXZ       0.0000
      XXYZ       0.0002   XYYZ       0.0000   YYYZ       0.0005
      XXZZ      -1.1738   XYZZ       0.0000   YYZZ      -1.1738
      XZZZ       0.0000   YZZZ       0.0007   ZZZZ      -4.2841
 -----------------------------------------------------------------
 Calculating analytic gradient of the SCF energy
 Gradient of XC Energy
            1           2
    1   0.0000000  -0.0000000
    2  -0.0002755   0.0002755
    3  -0.2045886   0.2045886
 Gradient of SCF Energy
            1           2
    1   0.0000000  -0.0000000
    2   0.0000001  -0.0000001
    3   0.0000833  -0.0000833
 Max gradient component =       8.325E-05
 RMS gradient           =       4.806E-05
 Gradient time:  CPU 0.07 s  wall 0.07 s
 Writing REM_CC_EA            2
 ----------------------------------------------------
       Standard Nuclear Orientation (Angstroms)
    I     Atom         X            Y            Z
 ----------------------------------------------------
    1      H       0.000000     0.000000     0.001000
    2      H       0.000000     0.000000     0.742644
 ----------------------------------------------------
 Nuclear Repulsion Energy =     0.7135194675 hartrees
 There are        1 alpha and        1 beta electrons

                       Distance Matrix (Angstroms)
             H (  1)
   H (  2)  0.741644
 
 Requested basis set is G3large
 There are 12 shells and 20 basis functions
 A cutoff of  1.0D-11 yielded     78 shell pairs
 There are    222 function pairs
Evaluating contribution to one-electron hamiltonian from nuclear
 Smallest overlap matrix eigenvalue = 3.01E-03
 Multipole matrices computed through 2nd order
 Guess MOs from SCF MO coefficient file
Reading MOs from coefficient file
Reading MOs from coefficient file
 An unrestricted hybrid HF-DFT SCF calculation will be
 performed using Pulay DIIS extrapolation
 Exchange:     0.2000 Hartree-Fock + 0.0800 Slater + 0.7200 Becke88
 Correlation:  0.8100 LYP + 0.1900 VWN1RPA
 Using SG-1 standard quadrature grid
 SCF converges when DIIS error is below 1.0E-08
 ---------------------------------------
  Cycle       Energy         DIIS Error
 ---------------------------------------
    1      -1.1803281771      4.19E-05
    2      -1.1800136364      9.93E-06
    3      -1.1800136449      4.48E-06
    4      -1.1800136465      5.60E-08
    5      -1.1800136465      1.13E-09 Convergence criterion met
 ---------------------------------------
 One-Electron    Energy =    -2.5032183003
 Total Coulomb   Energy =     1.3149233264
 Alpha Exchange  Energy =    -0.0657461663
 Beta  Exchange  Energy =    -0.0657461663
 DFT   Exchange  Energy =    -0.5180293605
 DFT Correlation Energy =    -0.0557164471
 Nuclear Repu.   Energy =     0.7135194675
 Nuclear Attr.   Energy =    -3.6431331515
 Kinetic         Energy =     1.1399148512
 <S^2> = 0.0000
 SCF time:  CPU 0.22 s  wall 0.23 s
 Final Alpha MO Eigenvalues
            1           2           3           4           5           6
    1  -0.4343198   0.0202926   0.0315855   0.1451869   0.3442204   0.4960773
 Final Beta MO Eigenvalues
            1           2           3           4           5           6
    1  -0.4343198   0.0202926   0.0315855   0.1451869   0.3442204   0.4960773
 Analysis of SCF Wavefunction
 
 --------------------------------------------------------------
                    Orbital Energies (a.u.)
 --------------------------------------------------------------
 
 Alpha MOs
 -- Occupied --
 -0.434
 -- Virtual --
  0.020   0.032   0.145   0.344   0.496   0.496   0.567   0.914
  0.926   0.926   1.420   2.249   2.425   3.375   3.375   3.699
  4.182   4.182   5.582
 
 Beta MOs
 -- Occupied --
 -0.434
 -- Virtual --
  0.020   0.032   0.145   0.344   0.496   0.496   0.567   0.914
  0.926   0.926   1.420   2.249   2.425   3.375   3.375   3.699
  4.182   4.182   5.582
 --------------------------------------------------------------
 
          Ground-State Mulliken Net Atomic Charges

     Atom                 Charge (a.u.)    Spin (a.u.)
  --------------------------------------------------------
      1 H                     0.000000       0.000000
      2 H                     0.000000       0.000000
  --------------------------------------------------------
  Sum of atomic charges =     0.000000
  Sum of spin   charges =     0.000000

 -----------------------------------------------------------------
                    Cartesian Multipole Moments
 -----------------------------------------------------------------
    Charge (ESU x 10^10)
                 0.0000
    Dipole Moment (Debye)
         X       0.0000      Y       0.0000      Z       0.0000
       Tot       0.0000
    Quadrupole Moments (Debye-Ang)
        XX      -2.1045     XY       0.0000     YY      -2.1045
        XZ       0.0000     YZ       0.0000     ZZ      -1.5329
    Octapole Moments (Debye-Ang^2)
       XXX       0.0000    XXY       0.0000    XYY       0.0000
       YYY       0.0000    XXZ      -0.7825    XYZ       0.0000
       YYZ      -0.7825    XZZ       0.0000    YZZ       0.0000
       ZZZ      -1.7099
    Hexadecapole Moments (Debye-Ang^3)
      XXXX      -2.1793   XXXY       0.0000   XXYY      -0.7264
      XYYY       0.0000   YYYY      -2.1793   XXXZ       0.0000
      XXYZ       0.0000   XYYZ       0.0000   YYYZ       0.0000
      XXZZ      -1.1728   XYZZ       0.0000   YYZZ      -1.1728
      XZZZ       0.0000   YZZZ       0.0000   ZZZZ      -4.2816
 -----------------------------------------------------------------
 Calculating analytic gradient of the SCF energy
 Gradient of XC Energy
            1           2
    1  -0.0000000   0.0000000
    2  -0.0000000   0.0000000
    3  -0.2047348   0.2047348
 Gradient of SCF Energy
            1           2
    1  -0.0000000   0.0000000
    2  -0.0000000   0.0000000
    3   0.0007907  -0.0007907
 Max gradient component =       7.907E-04
 RMS gradient           =       4.565E-04
 Gradient time:  CPU 0.07 s  wall 0.07 s
 Writing REM_CC_EA            2
 ----------------------------------------------------
       Standard Nuclear Orientation (Angstroms)
    I     Atom         X            Y            Z
 ----------------------------------------------------
    1      H       0.000000     0.000000    -0.001000
    2      H       0.000000     0.000000     0.742644
 ----------------------------------------------------
 Nuclear Repulsion Energy =     0.7116004854 hartrees
 There are        1 alpha and        1 beta electrons

                       Distance Matrix (Angstroms)
             H (  1)
   H (  2)  0.743644
 
 Requested basis set is G3large
 There are 12 shells and 20 basis functions
 A cutoff of  1.0D-11 yielded     78 shell pairs
 There are    222 function pairs
Evaluating contribution to one-electron hamiltonian from nuclear
 Smallest overlap matrix eigenvalue = 3.06E-03
 Multipole matrices computed through 2nd order
 Guess MOs from SCF MO coefficient file
Reading MOs from coefficient file
Reading MOs from coefficient file
 An unrestricted hybrid HF-DFT SCF calculation will be
 performed using Pulay DIIS extrapolation
 Exchange:     0.2000 Hartree-Fock + 0.0800 Slater + 0.7200 Becke88
 Correlation:  0.8100 LYP + 0.1900 VWN1RPA
 Using SG-1 standard quadrature grid
 SCF converges when DIIS error is below 1.0E-08
 ---------------------------------------
  Cycle       Energy         DIIS Error
 ---------------------------------------
    1      -1.1793846860      8.04E-05
    2      -1.1800139253      1.98E-05
    3      -1.1800139589      9.20E-06
    4      -1.1800139658      1.14E-07
    5      -1.1800139658      2.51E-09 Convergence criterion met
 ---------------------------------------
 One-Electron    Energy =    -2.5005812331
 Total Coulomb   Energy =     1.3135394744
 Alpha Exchange  Energy =    -0.0656769737
 Beta  Exchange  Energy =    -0.0656769737
 DFT   Exchange  Energy =    -0.5175240116
 DFT Correlation Energy =    -0.0556947335
 Nuclear Repu.   Energy =     0.7116004854
 Nuclear Attr.   Energy =    -3.6385682323
 Kinetic         Energy =     1.1379869992
 <S^2> = 0.0000
 SCF time:  CPU 0.21 s  wall 0.22 s
 Final Alpha MO Eigenvalues
            1           2           3           4           5           6
    1  -0.4339079   0.0201075   0.0316014   0.1448449   0.3443836   0.4959102
 Final Beta MO Eigenvalues
            1           2           3           4           5           6
    1  -0.4339079   0.0201075   0.0316014   0.1448449   0.3443836   0.4959102
 Analysis of SCF Wavefunction
 
 --------------------------------------------------------------
                    Orbital Energies (a.u.)
 --------------------------------------------------------------
 
 Alpha MOs
 -- Occupied --
 -0.434
 -- Virtual --
  0.020   0.032   0.145   0.344   0.496   0.496   0.567   0.913
  0.926   0.926   1.420   2.251   2.425   3.376   3.376   3.694
  4.179   4.179   5.574
 
 Beta MOs
 -- Occupied --
 -0.434
 -- Virtual --
  0.020   0.032   0.145   0.344   0.496   0.496   0.567   0.913
  0.926   0.926   1.420   2.251   2.425   3.376   3.376   3.694
  4.179   4.179   5.574
 --------------------------------------------------------------
 
          Ground-State Mulliken Net Atomic Charges

     Atom                 Charge (a.u.)    Spin (a.u.)
  --------------------------------------------------------
      1 H                     0.000000       0.000000
      2 H                     0.000000       0.000000
  --------------------------------------------------------
  Sum of atomic charges =     0.000000
  Sum of spin   charges =     0.000000

 -----------------------------------------------------------------
                    Cartesian Multipole Moments
 -----------------------------------------------------------------
    Charge (ESU x 10^10)
                 0.0000
    Dipole Moment (Debye)
         X       0.0000      Y       0.0000      Z       0.0000
       Tot       0.0000
    Quadrupole Moments (Debye-Ang)
        XX      -2.1074     XY       0.0000     YY      -2.1074
        XZ       0.0000     YZ       0.0000     ZZ      -1.5333
    Octapole Moments (Debye-Ang^2)
       XXX       0.0000    XXY       0.0000    XYY       0.0000
       YYY       0.0000    XXZ      -0.7815    XYZ       0.0000
       YYZ      -0.7815    XZZ       0.0000    YZZ       0.0000
       ZZZ      -1.7057
    Hexadecapole Moments (Debye-Ang^3)
      XXXX      -2.1849   XXXY       0.0000   XXYY      -0.7283
      XYYY       0.0000   YYYY      -2.1849   XXXZ       0.0000
      XXYZ       0.0000   XYYZ       0.0000   YYYZ       0.0000
      XXZZ      -1.1747   XYZZ       0.0000   YYZZ      -1.1747
      XZZZ       0.0000   YZZZ       0.0000   ZZZZ      -4.2866
 -----------------------------------------------------------------
 Calculating analytic gradient of the SCF energy
 Gradient of XC Energy
            1           2
    1  -0.0000000   0.0000000
    2   0.0000000  -0.0000000
    3  -0.2044429   0.2044429
 Gradient of SCF Energy
            1           2
    1  -0.0000000   0.0000000
    2   0.0000000  -0.0000000
    3  -0.0006187   0.0006187
 Max gradient component =       6.187E-04
 RMS gradient           =       3.572E-04
 Gradient time:  CPU 0.07 s  wall 0.07 s
 Writing REM_CC_EA            2
 ----------------------------------------------------
       Standard Nuclear Orientation (Angstroms)
    I     Atom         X            Y            Z
 ----------------------------------------------------
    1      H       0.000000     0.000000     0.000000
    2      H       0.001000     0.000000     0.742644
 ----------------------------------------------------
 Nuclear Repulsion Energy =     0.7125580385 hartrees
 There are        1 alpha and        1 beta electrons

                       Distance Matrix (Angstroms)
             H (  1)
   H (  2)  0.742644
 
 Requested basis set is G3large
 There are 12 shells and 20 basis functions
 A cutoff of  1.0D-11 yielded     78 shell pairs
 There are    222 function pairs
Evaluating contribution to one-electron hamiltonian from nuclear
 Smallest overlap matrix eigenvalue = 3.03E-03
 Multipole matrices computed through 2nd order
 Guess MOs from SCF MO coefficient file
Reading MOs from coefficient file
Reading MOs from coefficient file
 An unrestricted hybrid HF-DFT SCF calculation will be
 performed using Pulay DIIS extrapolation
 Exchange:     0.2000 Hartree-Fock + 0.0800 Slater + 0.7200 Becke88
 Correlation:  0.8100 LYP + 0.1900 VWN1RPA
 Using SG-1 standard quadrature grid
 SCF converges when DIIS error is below 1.0E-08
 ---------------------------------------
  Cycle       Energy         DIIS Error
 ---------------------------------------
    1      -1.1803284223      4.18E-05
    2      -1.1800144620      9.92E-06
    3      -1.1800144705      4.47E-06
    4      -1.1800144721      5.63E-08
    5      -1.1800144721      1.10E-09 Convergence criterion met
 ---------------------------------------
 One-Electron    Energy =    -2.5018980463
 Total Coulomb   Energy =     1.3142304884
 Alpha Exchange  Energy =    -0.0657115244
 Beta  Exchange  Energy =    -0.0657115244
 DFT   Exchange  Energy =    -0.5177763241
 DFT Correlation Energy =    -0.0557055798
 Nuclear Repu.   Energy =     0.7125580385
 Nuclear Attr.   Energy =    -3.6408471843
 Kinetic         Energy =     1.1389491380
 <S^2> = 0.0000
 SCF time:  CPU 0.22 s  wall 0.23 s
 Final Alpha MO Eigenvalues
            1           2           3           4           5           6
    1  -0.4341136   0.0201997   0.0315929   0.1450149   0.3443015   0.4959936
 Final Beta MO Eigenvalues
            1           2           3           4           5           6
    1  -0.4341136   0.0201997   0.0315929   0.1450149   0.3443015   0.4959936
 Analysis of SCF Wavefunction
 
 --------------------------------------------------------------
                    Orbital Energies (a.u.)
 --------------------------------------------------------------
 
 Alpha MOs
 -- Occupied --
 -0.434
 -- Virtual --
  0.020   0.032   0.145   0.344   0.496   0.496   0.567   0.913
  0.926   0.926   1.420   2.250   2.425   3.376   3.376   3.696
  4.181   4.181   5.578
 
 Beta MOs
 -- Occupied --
 -0.434
 -- Virtual --
  0.020   0.032   0.145   0.344   0.496   0.496   0.567   0.913
  0.926   0.926   1.420   2.250   2.425   3.376   3.376   3.696
  4.181   4.181   5.578
 --------------------------------------------------------------
 
          Ground-State Mulliken Net Atomic Charges

     Atom                 Charge (a.u.)    Spin (a.u.)
  --------------------------------------------------------
      1 H                     0.000000       0.000000
      2 H                     0.000000       0.000000
  --------------------------------------------------------
  Sum of atomic charges =     0.000000
  Sum of spin   charges =     0.000000

 -----------------------------------------------------------------
                    Cartesian Multipole Moments
 -----------------------------------------------------------------
    Charge (ESU x 10^10)
                 0.0000
    Dipole Moment (Debye)
         X       0.0000      Y       0.0000      Z       0.0000
       Tot       0.0000
    Quadrupole Moments (Debye-Ang)
        XX      -2.1059     XY       0.0000     YY      -2.1059
        XZ       0.0008     YZ       0.0000     ZZ      -1.5331
    Octapole Moments (Debye-Ang^2)
       XXX      -0.0032    XXY       0.0000    XYY      -0.0011
       YYY       0.0000    XXZ      -0.7820    XYZ       0.0000
       YYZ      -0.7820    XZZ      -0.0002    YZZ       0.0000
       ZZZ      -1.7078
    Hexadecapole Moments (Debye-Ang^3)
      XXXX      -2.1821   XXXY       0.0000   XXYY      -0.7274
      XYYY       0.0000   YYYY      -2.1821   XXXZ      -0.0018
      XXYZ       0.0000   XYYZ      -0.0006   YYYZ       0.0000
      XXZZ      -1.1738   XYZZ       0.0000   YYZZ      -1.1738
      XZZZ      -0.0010   YZZZ       0.0000   ZZZZ      -4.2841
 -----------------------------------------------------------------
 Calculating analytic gradient of the SCF energy
 Gradient of XC Energy
            1           2
    1  -0.0002755   0.0002755
    2  -0.0000000   0.0000000
    3  -0.2045886   0.2045886
 Gradient of SCF Energy
            1           2
    1   0.0000001  -0.0000001
    2  -0.0000000   0.0000000
    3   0.0000833  -0.0000833
 Max gradient component =       8.325E-05
 RMS gradient           =       4.806E-05
 Gradient time:  CPU 0.07 s  wall 0.07 s
 Writing REM_CC_EA            2
 ----------------------------------------------------
       Standard Nuclear Orientation (Angstroms)
    I     Atom         X            Y            Z
 ----------------------------------------------------
    1      H       0.000000     0.000000     0.000000
    2      H      -0.001000     0.000000     0.742644
 ----------------------------------------------------
 Nuclear Repulsion Energy =     0.7125580385 hartrees
 There are        1 alpha and        1 beta electrons

                       Distance Matrix (Angstroms)
             H (  1)
   H (  2)  0.742644
 
 Requested basis set is G3large
 There are 12 shells and 20 basis functions
 A cutoff of  1.0D-11 yielded     78 shell pairs
 There are    222 function pairs
Evaluating contribution to one-electron hamiltonian from nuclear
 Smallest overlap matrix eigenvalue = 3.03E-03
 Multipole matrices computed through 2nd order
 Guess MOs from SCF MO coefficient file
Reading MOs from coefficient file
Reading MOs from coefficient file
 An unrestricted hybrid HF-DFT SCF calculation will be
 performed using Pulay DIIS extrapolation
 Exchange:     0.2000 Hartree-Fock + 0.0800 Slater + 0.7200 Becke88
 Correlation:  0.8100 LYP + 0.1900 VWN1RPA
 Using SG-1 standard quadrature grid
 SCF converges when DIIS error is below 1.0E-08
 ---------------------------------------
  Cycle       Energy         DIIS Error
 ---------------------------------------
    1      -1.1800143875      2.28E-05
    2      -1.1800144720      1.25E-06
    3      -1.1800144721      1.34E-08
    4      -1.1800144721      8.23E-10 Convergence criterion met
 ---------------------------------------
 One-Electron    Energy =    -2.5018980535
 Total Coulomb   Energy =     1.3142305025
 Alpha Exchange  Energy =    -0.0657115251
 Beta  Exchange  Energy =    -0.0657115251
 DFT   Exchange  Energy =    -0.5177763293
 DFT Correlation Energy =    -0.0557055800
 Nuclear Repu.   Energy =     0.7125580385
 Nuclear Attr.   Energy =    -3.6408472117
 Kinetic         Energy =     1.1389491582
 <S^2> = 0.0000
 SCF time:  CPU 0.18 s  wall 0.18 s
 Final Alpha MO Eigenvalues
            1           2           3           4           5           6
    1  -0.4341136   0.0201997   0.0315928   0.1450149   0.3443015   0.4959936
 Final Beta MO Eigenvalues
            1           2           3           4           5           6
    1  -0.4341136   0.0201997   0.0315928   0.1450149   0.3443015   0.4959936
 Analysis of SCF Wavefunction
 
 --------------------------------------------------------------
                    Orbital Energies (a.u.)
 --------------------------------------------------------------
 
 Alpha MOs
 -- Occupied --
 -0.434
 -- Virtual --
  0.020   0.032   0.145   0.344   0.496   0.496   0.567   0.913
  0.926   0.926   1.420   2.250   2.425   3.376   3.376   3.696
  4.181   4.181   5.578
 
 Beta MOs
 -- Occupied --
 -0.434
 -- Virtual --
  0.020   0.032   0.145   0.344   0.496   0.496   0.567   0.913
  0.926   0.926   1.420   2.250   2.425   3.376   3.376   3.696
  4.181   4.181   5.578
 --------------------------------------------------------------
 
          Ground-State Mulliken Net Atomic Charges

     Atom                 Charge (a.u.)    Spin (a.u.)
  --------------------------------------------------------
      1 H                     0.000000       0.000000
      2 H                     0.000000       0.000000
  --------------------------------------------------------
  Sum of atomic charges =     0.000000
  Sum of spin   charges =     0.000000

 -----------------------------------------------------------------
                    Cartesian Multipole Moments
 -----------------------------------------------------------------
    Charge (ESU x 10^10)
                 0.0000
    Dipole Moment (Debye)
         X       0.0000      Y       0.0000      Z       0.0000
       Tot       0.0000
    Quadrupole Moments (Debye-Ang)
        XX      -2.1059     XY       0.0000     YY      -2.1059
        XZ      -0.0008     YZ       0.0000     ZZ      -1.5331
    Octapole Moments (Debye-Ang^2)
       XXX       0.0032    XXY       0.0000    XYY       0.0011
       YYY       0.0000    XXZ      -0.7820    XYZ       0.0000
       YYZ      -0.7820    XZZ       0.0002    YZZ       0.0000
       ZZZ      -1.7078
    Hexadecapole Moments (Debye-Ang^3)
      XXXX      -2.1821   XXXY       0.0000   XXYY      -0.7274
      XYYY       0.0000   YYYY      -2.1821   XXXZ       0.0018
      XXYZ       0.0000   XYYZ       0.0006   YYYZ       0.0000
      XXZZ      -1.1738   XYZZ       0.0000   YYZZ      -1.1738
      XZZZ       0.0010   YZZZ       0.0000   ZZZZ      -4.2841
 -----------------------------------------------------------------
 Calculating analytic gradient of the SCF energy
 Gradient of XC Energy
            1           2
    1   0.0002755  -0.0002755
    2  -0.0000000   0.0000000
    3  -0.2045886   0.2045886
 Gradient of SCF Energy
            1           2
    1  -0.0000001   0.0000001
    2  -0.0000000   0.0000000
    3   0.0000832  -0.0000832
 Max gradient component =       8.325E-05
 RMS gradient           =       4.806E-05
 Gradient time:  CPU 0.07 s  wall 0.07 s
 Writing REM_CC_EA            2
 ----------------------------------------------------
       Standard Nuclear Orientation (Angstroms)
    I     Atom         X            Y            Z
 ----------------------------------------------------
    1      H       0.000000     0.000000     0.000000
    2      H       0.000000     0.001000     0.742644
 ----------------------------------------------------
 Nuclear Repulsion Energy =     0.7125580385 hartrees
 There are        1 alpha and        1 beta electrons

                       Distance Matrix (Angstroms)
             H (  1)
   H (  2)  0.742644
 
 Requested basis set is G3large
 There are 12 shells and 20 basis functions
 A cutoff of  1.0D-11 yielded     78 shell pairs
 There are    222 function pairs
Evaluating contribution to one-electron hamiltonian from nuclear
 Smallest overlap matrix eigenvalue = 3.03E-03
 Multipole matrices computed through 2nd order
 Guess MOs from SCF MO coefficient file
Reading MOs from coefficient file
Reading MOs from coefficient file
 An unrestricted hybrid HF-DFT SCF calculation will be
 performed using Pulay DIIS extrapolation
 Exchange:     0.2000 Hartree-Fock + 0.0800 Slater + 0.7200 Becke88
 Correlation:  0.8100 LYP + 0.1900 VWN1RPA
 Using SG-1 standard quadrature grid
 SCF converges when DIIS error is below 1.0E-08
 ---------------------------------------
  Cycle       Energy         DIIS Error
 ---------------------------------------
    1      -1.1800144298      1.62E-05
    2      -1.1800144720      8.86E-07
    3      -1.1800144721      9.41E-09 Convergence criterion met
 ---------------------------------------
 One-Electron    Energy =    -2.5018980468
 Total Coulomb   Energy =     1.3142304889
 Alpha Exchange  Energy =    -0.0657115244
 Beta  Exchange  Energy =    -0.0657115244
 DFT   Exchange  Energy =    -0.5177763240
 DFT Correlation Energy =    -0.0557055798
 Nuclear Repu.   Energy =     0.7125580385
 Nuclear Attr.   Energy =    -3.6408471824
 Kinetic         Energy =     1.1389491356
 <S^2> = 0.0000
 SCF time:  CPU 0.14 s  wall 0.14 s
 Final Alpha MO Eigenvalues
            1           2           3           4           5           6
    1  -0.4341136   0.0201997   0.0315928   0.1450149   0.3443015   0.4959936
 Final Beta MO Eigenvalues
            1           2           3           4           5           6
    1  -0.4341136   0.0201997   0.0315928   0.1450149   0.3443015   0.4959936
 Analysis of SCF Wavefunction
 
 --------------------------------------------------------------
                    Orbital Energies (a.u.)
 --------------------------------------------------------------
 
 Alpha MOs
 -- Occupied --
 -0.434
 -- Virtual --
  0.020   0.032   0.145   0.344   0.496   0.496   0.567   0.913
  0.926   0.926   1.420   2.250   2.425   3.376   3.376   3.696
  4.181   4.181   5.578
 
 Beta MOs
 -- Occupied --
 -0.434
 -- Virtual --
  0.020   0.032   0.145   0.344   0.496   0.496   0.567   0.913
  0.926   0.926   1.420   2.250   2.425   3.376   3.376   3.696
  4.181   4.181   5.578
 --------------------------------------------------------------
 
          Ground-State Mulliken Net Atomic Charges

     Atom                 Charge (a.u.)    Spin (a.u.)
  --------------------------------------------------------
      1 H                     0.000000       0.000000
      2 H                     0.000000       0.000000
  --------------------------------------------------------
  Sum of atomic charges =     0.000000
  Sum of spin   charges =     0.000000

 -----------------------------------------------------------------
                    Cartesian Multipole Moments
 -----------------------------------------------------------------
    Charge (ESU x 10^10)
                 0.0000
    Dipole Moment (Debye)
         X       0.0000      Y       0.0000      Z       0.0000
       Tot       0.0000
    Quadrupole Moments (Debye-Ang)
        XX      -2.1059     XY       0.0000     YY      -2.1059
        XZ       0.0000     YZ       0.0008     ZZ      -1.5331
    Octapole Moments (Debye-Ang^2)
       XXX       0.0000    XXY      -0.0011    XYY       0.0000
       YYY      -0.0032    XXZ      -0.7820    XYZ       0.0000
       YYZ      -0.7820    XZZ       0.0000    YZZ      -0.0002
       ZZZ      -1.7078
    Hexadecapole Moments (Debye-Ang^3)
      XXXX      -2.1821   XXXY       0.0000   XXYY      -0.7274
      XYYY       0.0000   YYYY      -2.1821   XXXZ       0.0000
      XXYZ      -0.0006   XYYZ       0.0000   YYYZ      -0.0018
      XXZZ      -1.1738   XYZZ       0.0000   YYZZ      -1.1738
      XZZZ       0.0000   YZZZ      -0.0010   ZZZZ      -4.2841
 -----------------------------------------------------------------
 Calculating analytic gradient of the SCF energy
 Gradient of XC Energy
            1           2
    1  -0.0000000   0.0000000
    2  -0.0002755   0.0002755
    3  -0.2045886   0.2045886
 Gradient of SCF Energy
            1           2
    1  -0.0000000   0.0000000
    2   0.0000001  -0.0000001
    3   0.0000833  -0.0000833
 Max gradient component =       8.325E-05
 RMS gradient           =       4.807E-05
 Gradient time:  CPU 0.07 s  wall 0.07 s
 Writing REM_CC_EA            2
 ----------------------------------------------------
       Standard Nuclear Orientation (Angstroms)
    I     Atom         X            Y            Z
 ----------------------------------------------------
    1      H       0.000000     0.000000     0.000000
    2      H       0.000000    -0.001000     0.742644
 ----------------------------------------------------
 Nuclear Repulsion Energy =     0.7125580385 hartrees
 There are        1 alpha and        1 beta electrons

                       Distance Matrix (Angstroms)
             H (  1)
   H (  2)  0.742644
 
 Requested basis set is G3large
 There are 12 shells and 20 basis functions
 A cutoff of  1.0D-11 yielded     78 shell pairs
 There are    222 function pairs
Evaluating contribution to one-electron hamiltonian from nuclear
 Smallest overlap matrix eigenvalue = 3.03E-03
 Multipole matrices computed through 2nd order
 Guess MOs from SCF MO coefficient file
Reading MOs from coefficient file
Reading MOs from coefficient file
 An unrestricted hybrid HF-DFT SCF calculation will be
 performed using Pulay DIIS extrapolation
 Exchange:     0.2000 Hartree-Fock + 0.0800 Slater + 0.7200 Becke88
 Correlation:  0.8100 LYP + 0.1900 VWN1RPA
 Using SG-1 standard quadrature grid
 SCF converges when DIIS error is below 1.0E-08
 ---------------------------------------
  Cycle       Energy         DIIS Error
 ---------------------------------------
    1      -1.1800143875      2.28E-05
    2      -1.1800144720      1.25E-06
    3      -1.1800144721      1.34E-08
    4      -1.1800144721      8.03E-10 Convergence criterion met
 ---------------------------------------
 One-Electron    Energy =    -2.5018980536
 Total Coulomb   Energy =     1.3142305028
 Alpha Exchange  Energy =    -0.0657115251
 Beta  Exchange  Energy =    -0.0657115251
 DFT   Exchange  Energy =    -0.5177763294
 DFT Correlation Energy =    -0.0557055800
 Nuclear Repu.   Energy =     0.7125580385
 Nuclear Attr.   Energy =    -3.6408472123
 Kinetic         Energy =     1.1389491587
 <S^2> = 0.0000
 SCF time:  CPU 0.17 s  wall 0.18 s
 Final Alpha MO Eigenvalues
            1           2           3           4           5           6
    1  -0.4341136   0.0201997   0.0315928   0.1450149   0.3443015   0.4959936
 Final Beta MO Eigenvalues
            1           2           3           4           5           6
    1  -0.4341136   0.0201997   0.0315928   0.1450149   0.3443015   0.4959936
 Analysis of SCF Wavefunction
 
 --------------------------------------------------------------
                    Orbital Energies (a.u.)
 --------------------------------------------------------------
 
 Alpha MOs
 -- Occupied --
 -0.434
 -- Virtual --
  0.020   0.032   0.145   0.344   0.496   0.496   0.567   0.913
  0.926   0.926   1.420   2.250   2.425   3.376   3.376   3.696
  4.181   4.181   5.578
 
 Beta MOs
 -- Occupied --
 -0.434
 -- Virtual --
  0.020   0.032   0.145   0.344   0.496   0.496   0.567   0.913
  0.926   0.926   1.420   2.250   2.425   3.376   3.376   3.696
  4.181   4.181   5.578
 --------------------------------------------------------------
 
          Ground-State Mulliken Net Atomic Charges

     Atom                 Charge (a.u.)    Spin (a.u.)
  --------------------------------------------------------
      1 H                     0.000000       0.000000
      2 H                     0.000000       0.000000
  --------------------------------------------------------
  Sum of atomic charges =     0.000000
  Sum of spin   charges =     0.000000

 -----------------------------------------------------------------
                    Cartesian Multipole Moments
 -----------------------------------------------------------------
    Charge (ESU x 10^10)
                 0.0000
    Dipole Moment (Debye)
         X       0.0000      Y       0.0000      Z       0.0000
       Tot       0.0000
    Quadrupole Moments (Debye-Ang)
        XX      -2.1059     XY       0.0000     YY      -2.1059
        XZ       0.0000     YZ      -0.0008     ZZ      -1.5331
    Octapole Moments (Debye-Ang^2)
       XXX       0.0000    XXY       0.0011    XYY       0.0000
       YYY       0.0032    XXZ      -0.7820    XYZ       0.0000
       YYZ      -0.7820    XZZ       0.0000    YZZ       0.0002
       ZZZ      -1.7078
    Hexadecapole Moments (Debye-Ang^3)
      XXXX      -2.1821   XXXY       0.0000   XXYY      -0.7274
      XYYY       0.0000   YYYY      -2.1821   XXXZ       0.0000
      XXYZ       0.0006   XYYZ       0.0000   YYYZ       0.0018
      XXZZ      -1.1738   XYZZ       0.0000   YYZZ      -1.1738
      XZZZ       0.0000   YZZZ       0.0010   ZZZZ      -4.2841
 -----------------------------------------------------------------
 Calculating analytic gradient of the SCF energy
 Gradient of XC Energy
            1           2
    1  -0.0000000   0.0000000
    2   0.0002755  -0.0002755
    3  -0.2045886   0.2045886
 Gradient of SCF Energy
            1           2
    1  -0.0000000   0.0000000
    2  -0.0000001   0.0000001
    3   0.0000833  -0.0000833
 Max gradient component =       8.325E-05
 RMS gradient           =       4.806E-05
 Gradient time:  CPU 0.07 s  wall 0.07 s
 Writing REM_CC_EA            2
 ----------------------------------------------------
       Standard Nuclear Orientation (Angstroms)
    I     Atom         X            Y            Z
 ----------------------------------------------------
    1      H       0.000000     0.000000     0.000000
    2      H       0.000000     0.000000     0.743644
 ----------------------------------------------------
 Nuclear Repulsion Energy =     0.7116004854 hartrees
 There are        1 alpha and        1 beta electrons

                       Distance Matrix (Angstroms)
             H (  1)
   H (  2)  0.743644
 
 Requested basis set is G3large
 There are 12 shells and 20 basis functions
 A cutoff of  1.0D-11 yielded     78 shell pairs
 There are    222 function pairs
Evaluating contribution to one-electron hamiltonian from nuclear
 Smallest overlap matrix eigenvalue = 3.06E-03
 Multipole matrices computed through 2nd order
 Guess MOs from SCF MO coefficient file
Reading MOs from coefficient file
Reading MOs from coefficient file
 An unrestricted hybrid HF-DFT SCF calculation will be
 performed using Pulay DIIS extrapolation
 Exchange:     0.2000 Hartree-Fock + 0.0800 Slater + 0.7200 Becke88
 Correlation:  0.8100 LYP + 0.1900 VWN1RPA
 Using SG-1 standard quadrature grid
 SCF converges when DIIS error is below 1.0E-08
 ---------------------------------------
  Cycle       Energy         DIIS Error
 ---------------------------------------
    1      -1.1796997217      4.17E-05
    2      -1.1800139557      9.93E-06
    3      -1.1800139642      4.47E-06
    4      -1.1800139658      5.66E-08
    5      -1.1800139658      1.01E-09 Convergence criterion met
 ---------------------------------------
 One-Electron    Energy =    -2.5005812234
 Total Coulomb   Energy =     1.3135394554
 Alpha Exchange  Energy =    -0.0656769728
 Beta  Exchange  Energy =    -0.0656769728
 DFT   Exchange  Energy =    -0.5175240045
 DFT Correlation Energy =    -0.0556947332
 Nuclear Repu.   Energy =     0.7116004854
 Nuclear Attr.   Energy =    -3.6385681952
 Kinetic         Energy =     1.1379869717
 <S^2> = 0.0000
 SCF time:  CPU 0.22 s  wall 0.23 s
 Final Alpha MO Eigenvalues
            1           2           3           4           5           6
    1  -0.4339079   0.0201069   0.0316004   0.1448436   0.3443827   0.4959102
 Final Beta MO Eigenvalues
            1           2           3           4           5           6
    1  -0.4339079   0.0201069   0.0316004   0.1448436   0.3443827   0.4959102
 Analysis of SCF Wavefunction
 
 --------------------------------------------------------------
                    Orbital Energies (a.u.)
 --------------------------------------------------------------
 
 Alpha MOs
 -- Occupied --
 -0.434
 -- Virtual --
  0.020   0.032   0.145   0.344   0.496   0.496   0.567   0.913
  0.926   0.926   1.420   2.251   2.425   3.376   3.376   3.694
  4.179   4.179   5.574
 
 Beta MOs
 -- Occupied --
 -0.434
 -- Virtual --
  0.020   0.032   0.145   0.344   0.496   0.496   0.567   0.913
  0.926   0.926   1.420   2.251   2.425   3.376   3.376   3.694
  4.179   4.179   5.574
 --------------------------------------------------------------
 
          Ground-State Mulliken Net Atomic Charges

     Atom                 Charge (a.u.)    Spin (a.u.)
  --------------------------------------------------------
      1 H                     0.000000       0.000000
      2 H                     0.000000       0.000000
  --------------------------------------------------------
  Sum of atomic charges =     0.000000
  Sum of spin   charges =     0.000000

 -----------------------------------------------------------------
                    Cartesian Multipole Moments
 -----------------------------------------------------------------
    Charge (ESU x 10^10)
                 0.0000
    Dipole Moment (Debye)
         X       0.0000      Y       0.0000      Z       0.0000
       Tot       0.0000
    Quadrupole Moments (Debye-Ang)
        XX      -2.1074     XY       0.0000     YY      -2.1074
        XZ       0.0000     YZ       0.0000     ZZ      -1.5333
    Octapole Moments (Debye-Ang^2)
       XXX       0.0000    XXY       0.0000    XYY       0.0000
       YYY       0.0000    XXZ      -0.7836    XYZ       0.0000
       YYZ      -0.7836    XZZ       0.0000    YZZ       0.0000
       ZZZ      -1.7103
    Hexadecapole Moments (Debye-Ang^3)
      XXXX      -2.1849   XXXY       0.0000   XXYY      -0.7283
      XYYY       0.0000   YYYY      -2.1849   XXXZ       0.0000
      XXYZ       0.0000   XYYZ       0.0000   YYYZ       0.0000
      XXZZ      -1.1763   XYZZ       0.0000   YYZZ      -1.1763
      XZZZ       0.0000   YZZZ       0.0000   ZZZZ      -4.2934
 -----------------------------------------------------------------
 Calculating analytic gradient of the SCF energy
 Gradient of XC Energy
            1           2
    1   0.0000000  -0.0000000
    2   0.0000000  -0.0000000
    3  -0.2044429   0.2044429
 Gradient of SCF Energy
            1           2
    1   0.0000000  -0.0000000
    2   0.0000000  -0.0000000
    3  -0.0006187   0.0006187
 Max gradient component =       6.187E-04
 RMS gradient           =       3.572E-04
 Gradient time:  CPU 0.07 s  wall 0.07 s
 Writing REM_CC_EA            2
 ----------------------------------------------------
       Standard Nuclear Orientation (Angstroms)
    I     Atom         X            Y            Z
 ----------------------------------------------------
    1      H       0.000000     0.000000     0.000000
    2      H       0.000000     0.000000     0.741644
 ----------------------------------------------------
 Nuclear Repulsion Energy =     0.7135194675 hartrees
 There are        1 alpha and        1 beta electrons

                       Distance Matrix (Angstroms)
             H (  1)
   H (  2)  0.741644
 
 Requested basis set is G3large
 There are 12 shells and 20 basis functions
 A cutoff of  1.0D-11 yielded     78 shell pairs
 There are    222 function pairs
Evaluating contribution to one-electron hamiltonian from nuclear
 Smallest overlap matrix eigenvalue = 3.01E-03
 Multipole matrices computed through 2nd order
 Guess MOs from SCF MO coefficient file
Reading MOs from coefficient file
Reading MOs from coefficient file
 An unrestricted hybrid HF-DFT SCF calculation will be
 performed using Pulay DIIS extrapolation
 Exchange:     0.2000 Hartree-Fock + 0.0800 Slater + 0.7200 Becke88
 Correlation:  0.8100 LYP + 0.1900 VWN1RPA
 Using SG-1 standard quadrature grid
 SCF converges when DIIS error is below 1.0E-08
 ---------------------------------------
  Cycle       Energy         DIIS Error
 ---------------------------------------
    1      -1.1806419171      8.05E-05
    2      -1.1800136061      1.98E-05
    3      -1.1800136397      9.20E-06
    4      -1.1800136465      1.16E-07
    5      -1.1800136465      2.50E-09 Convergence criterion met
 ---------------------------------------
 One-Electron    Energy =    -2.5032182913
 Total Coulomb   Energy =     1.3149233088
 Alpha Exchange  Energy =    -0.0657461654
 Beta  Exchange  Energy =    -0.0657461654
 DFT   Exchange  Energy =    -0.5180293538
 DFT Correlation Energy =    -0.0557164468
 Nuclear Repu.   Energy =     0.7135194675
 Nuclear Attr.   Energy =    -3.6431331170
 Kinetic         Energy =     1.1399148257
 <S^2> = 0.0000
 SCF time:  CPU 0.22 s  wall 0.22 s
 Final Alpha MO Eigenvalues
            1           2           3           4           5           6
    1  -0.4343198   0.0202926   0.0315855   0.1451868   0.3442204   0.4960773
 Final Beta MO Eigenvalues
            1           2           3           4           5           6
    1  -0.4343198   0.0202926   0.0315855   0.1451868   0.3442204   0.4960773
 Analysis of SCF Wavefunction
 
 --------------------------------------------------------------
                    Orbital Energies (a.u.)
 --------------------------------------------------------------
 
 Alpha MOs
 -- Occupied --
 -0.434
 -- Virtual --
  0.020   0.032   0.145   0.344   0.496   0.496   0.567   0.914
  0.926   0.926   1.420   2.249   2.425   3.375   3.375   3.699
  4.182   4.182   5.582
 
 Beta MOs
 -- Occupied --
 -0.434
 -- Virtual --
  0.020   0.032   0.145   0.344   0.496   0.496   0.567   0.914
  0.926   0.926   1.420   2.249   2.425   3.375   3.375   3.699
  4.182   4.182   5.582
 --------------------------------------------------------------
 
          Ground-State Mulliken Net Atomic Charges

     Atom                 Charge (a.u.)    Spin (a.u.)
  --------------------------------------------------------
      1 H                     0.000000       0.000000
      2 H                     0.000000       0.000000
  --------------------------------------------------------
  Sum of atomic charges =     0.000000
  Sum of spin   charges =     0.000000

 -----------------------------------------------------------------
                    Cartesian Multipole Moments
 -----------------------------------------------------------------
    Charge (ESU x 10^10)
                 0.0000
    Dipole Moment (Debye)
         X       0.0000      Y       0.0000      Z       0.0000
       Tot       0.0000
    Quadrupole Moments (Debye-Ang)
        XX      -2.1045     XY       0.0000     YY      -2.1045
        XZ       0.0000     YZ       0.0000     ZZ      -1.5329
    Octapole Moments (Debye-Ang^2)
       XXX       0.0000    XXY       0.0000    XYY       0.0000
       YYY       0.0000    XXZ      -0.7804    XYZ       0.0000
       YYZ      -0.7804    XZZ       0.0000    YZZ       0.0000
       ZZZ      -1.7053
    Hexadecapole Moments (Debye-Ang^3)
      XXXX      -2.1793   XXXY       0.0000   XXYY      -0.7264
      XYYY       0.0000   YYYY      -2.1793   XXXZ       0.0000
      XXYZ       0.0000   XYYZ       0.0000   YYYZ       0.0000
      XXZZ      -1.1713   XYZZ       0.0000   YYZZ      -1.1713
      XZZZ       0.0000   YZZZ       0.0000   ZZZZ      -4.2748
 -----------------------------------------------------------------
 Calculating analytic gradient of the SCF energy
 Gradient of XC Energy
            1           2
    1   0.0000000  -0.0000000
    2  -0.0000000   0.0000000
    3  -0.2047348   0.2047348
 Gradient of SCF Energy
            1           2
    1   0.0000000  -0.0000000
    2  -0.0000000   0.0000000
    3   0.0007907  -0.0007907
 Max gradient component =       7.907E-04
 RMS gradient           =       4.565E-04
 Gradient time:  CPU 0.07 s  wall 0.07 s
Dipole drv :
gprntSymmMtrx error report: 
 Final Hessian.
            1           2           3           4           5           6
    1  -0.0000408   0.0000000   0.0000000   0.0000408  -0.0000000   0.0000000
    2   0.0000000  -0.0000408   0.0000000   0.0000000   0.0000408   0.0000000
    3   0.0000000   0.0000000   0.3729082   0.0000001   0.0000002  -0.3729082
    4   0.0000408   0.0000000   0.0000001  -0.0000408   0.0000000   0.0000000
    5  -0.0000000   0.0000408   0.0000002   0.0000000  -0.0000408   0.0000000
    6   0.0000000   0.0000000  -0.3729082   0.0000000   0.0000000   0.3729082
 Writing REM_CC_EA            2
 ----------------------------------------------------
       Standard Nuclear Orientation (Angstroms)
    I     Atom         X            Y            Z
 ----------------------------------------------------
    1      H       0.000000     0.000000     0.000000
    2      H       0.000000     0.000000     0.742644
 ----------------------------------------------------
 Nuclear Repulsion Energy =     0.7125586845 hartrees
 There are        1 alpha and        1 beta electrons
 old dipole drv.
            1           2           3           4           5           6
    1  -0.0000014   0.0000011  -0.0000010   0.0000005   0.0000000   0.0000010
    2  -0.0000000  -0.0000017  -0.0000009  -0.0000002   0.0000020   0.0000009
    3  -0.0000008  -0.0000030  -0.0000035  -0.0000008   0.0000032   0.0000033
 New transposed dipole drv.
            1           2           3
    1  -0.0000014  -0.0000000  -0.0000008
    2   0.0000011  -0.0000017  -0.0000030
    3  -0.0000010  -0.0000009  -0.0000035
    4   0.0000005  -0.0000002  -0.0000008
    5   0.0000000   0.0000020   0.0000032
    6   0.0000010   0.0000009   0.0000033
FINAL TENSOR RESULT:
Order 2, Length 6
Order 1, Length 6
  -0.0000408   0.0000000   0.0000000   0.0000408  -0.0000000   0.0000000
Order 1, Length 6
   0.0000000  -0.0000408   0.0000000   0.0000000   0.0000408   0.0000000
Order 1, Length 6
   0.0000000   0.0000000   0.3729082   0.0000001   0.0000002  -0.3729082
Order 1, Length 6
   0.0000408   0.0000000   0.0000001  -0.0000408   0.0000000   0.0000000
Order 1, Length 6
  -0.0000000   0.0000408   0.0000002   0.0000000  -0.0000408   0.0000000
Order 1, Length 6
   0.0000000   0.0000000  -0.3729082   0.0000000   0.0000000   0.3729082


 # Finishing finite difference calculation for IDERIV #
 ######################################################
 ######################################################
 Requested basis set is G3large
 There are 12 shells and 20 basis functions
 **********************************************************************
 **                                                                  **
 **                       VIBRATIONAL ANALYSIS                       **
 **                       --------------------                       **
 **                                                                  **
 **        VIBRATIONAL FREQUENCIES (CM**-1) AND NORMAL MODES         **
 **     FORCE CONSTANTS (mDYN/ANGSTROM) AND REDUCED MASSES (AMU)     **
 **                  INFRARED INTENSITIES (KM/MOL)                   **
 **                                                                  **
 **********************************************************************
 

 Mode:                 1
 Frequency:      4422.09
 Force Cnst:     11.6116
 Red. Mass:       1.0078
 IR Active:          YES
 IR Intens:        0.000
 Raman Active:       YES
               X      Y      Z
 H          0.000  0.000  0.707
 H          0.000  0.000 -0.707
 TransDip   0.000  0.000  0.000

 STANDARD THERMODYNAMIC QUANTITIES AT   298.18 K  AND     1.00 ATM

   This Molecule has  0 Imaginary Frequencies
   Zero point vibrational energy:        6.322 kcal/mol

   Atom    1 Element H  Has Mass    1.00783
   Atom    2 Element H  Has Mass    1.00783
   Molecular Mass:     2.015660 amu
   Principal axes and moments of inertia in atomic units:
                             1           2           3
    Eigenvalues --        0.00000     0.99247     0.99247
          X               0.00000     0.00000     1.00000
          Y               0.00000     1.00000     0.00000
          Z               1.00000     0.00000     0.00000
   Rotational Symmetry Number is   1
   The Molecule is a Symmetric Top
   Translational Enthalpy:        0.889 kcal/mol
   Rotational Enthalpy:           0.889 kcal/mol
   Vibrational Enthalpy:          6.322 kcal/mol
   gas constant (RT):             0.593 kcal/mol
   Translational Entropy:        28.081  cal/mol.K
   Rotational Entropy:          -42.776  cal/mol.K
   Vibrational Entropy:           0.000  cal/mol.K

   Total Enthalpy:                8.692 kcal/mol
   Total Entropy:               -14.695  cal/mol.K
 Total job time:  3.44s(wall), 3.30s(cpu) 
 Wed Jul 24 16:21:14 2013

        *************************************************************
        *                                                           *
        *  Thank you very much for using Q-Chem.  Have a nice day.  *
        *                                                           *
        *************************************************************


0 sent ACK to 0 
now end server 0 ... 
