Process 0 of 1 is on cl232.stfx.acenet.ca - thread support 1
initial socket setup ...start
initial socket setup ...done 
now start server 0 ... 

cmd = /usr/bin/ssh clhead /usr/local/qchem/bin/get_hostid 1139667319 > /scratch/tmp/6065263.1.long.q/qchem392/lic.dat
                  Welcome to Q-Chem
     A Quantum Leap Into The Future Of Chemistry

 Y. Shao, L. Fusti-Molnar, Y. Jung, J. Kussmann, C. Ochsenfeld,
 S. T. Brown, A. T. B. Gilbert, L. V. Slipchenko,S. V. Levchenko,
 D. P. O'Neill, R. A. DiStasio Jr., R. C. Lochan, T. Wang,
 G. J. O. Beran, N. A. Besley, J. M. Herbert, C. Y. Lin,
 T. Van Voorhis, S. H. Chien, A. Sodt, R. P. Steele, 
 V. A. Rassolov, P. E. Maslen, P. P. Korambath, R. D. Adamson,
 B. Austin, J. Baker, E. F. C. Byrd, H. Dachsel, R. J. Doerksen,
 A. Dreuw, B. D. Dunietz, A. D. Dutoi, T. R. Furlani,
 S. R. Gwaltney, A. Heyden, S. Hirata, C.-P. Hsu, G. Kedziora,
 R. Z. Khaliullin, P. Klunzinger, A. M. Lee, M. S. Lee, W. Liang,
 I. Lotan, N. Nair, B. Peters, E. I. Proynov, P. A. Pieniazek, 
 Y. M. Rhee, J. Ritchie, E. Rosta, C. D. Sherrill, 
 A. C. Simmonett, J. E. Subotnik, H. L. Woodcock III,
 W. Zhang, A. T. Bell, A. K. Chakraborty, D. M. Chipman,
 F. J. Keil, A. Warshel, W. J. Hehre, H. F. Schaefer III,
 J. Kong, A. I. Krylov, P. M. W. Gill, M. Head-Gordon,
 Q-Chem, Version 3.1, Q-Chem, Inc., Pittsburgh, PA (2007).

 Additional authors for Version 3.1: 
 Z. Gan, Y. Zhao, N. E. Schultz, D. Truhlar, E. Epifanovsky and M. Oana.

 Additional authors for Version 3.2: 
 R. Baer, B. R. Brooks, D. Casanova, J.-D. Chai, C.-L. Cheng, 
 C. Cramer, D. Crittenden, A. Ghysels, G. Hawkins, E. G. Hohenstein, 
 C. Kelley, W. Kurlancheek, D. Liotard, E. Livshits, P. Manohar, 
 A. Marenich, D. Neuhauser, R. Olson, M. A. Rohrdanz, K. S. Thanthiriwatte, 
 A. J. W. Thom, V. Vanovschi, C. F. Williams, Q. Wu and Z.-Q. You. 


 Intel X86 Linux Version

 Q-chem begins on Mon Jul  8 16:57:49 2013  

 Parallel job on  1  processors
Processing $rem in /usr/local/qchem/config/preferences.

theFileMan(): MAXOPENFILES=974 MAX_SUB_FILE_NUM=16
Maximum size of a physical file is 2.0 GB, maximum size of a tmp-file is 32.0 GB


--------------------------------------------------------------
User input:
--------------------------------------------------------------

$molecule
-1,2
N          0.00000        0.00000        1.83618
C          0.00000        0.00000        0.69391
C          0.00000        0.00000       -0.69391
N          0.00000        0.00000       -1.83618
$end

$comment
negative
$end

$xc_functional
C PBE   1.00
X wPBE  1.00
$end

$rem
SYMMETRY_DECOMPOSITION	0
exchange 		general
LRC_DFT                 true
BASIS                   g3large
omega			350
mem_static              760
max_scf_cycles          200
scf_final_print         1
sym_ignore              true
$end

--------------------------------------------------------------
 Writing REM_CC_EA            4
 ----------------------------------------------------
       Standard Nuclear Orientation (Angstroms)
    I     Atom         X            Y            Z
 ----------------------------------------------------
    1      N       0.000000     0.000000     1.836180
    2      C       0.000000     0.000000     0.693910
    3      C       0.000000     0.000000    -0.693910
    4      N       0.000000     0.000000    -1.836180
 ----------------------------------------------------
 Nuclear Repulsion Energy =    77.2710182365 hartrees
 There are       14 alpha and       13 beta electrons
 Requested basis set is G3large
 There are 40 shells and 168 basis functions

Total QAlloc Memory Limit   2000 MB
Mega-Array Size       743 MB
MEM_STATIC part       760 MB

                       Distance Matrix (Angstroms)
             N (  1)   C (  2)   C (  3)
   C (  2)  1.142270
   C (  3)  2.530090  1.387820
   N (  4)  3.672360  2.530090  1.142270
 
 A cutoff of  1.0D-08 yielded    716 shell pairs
 There are  12995 function pairs ( 17001 Cartesian)
Evaluating contribution to one-electron hamiltonian from nuclear
 Smallest overlap matrix eigenvalue = 9.69E-06

 Q-Chem warning in module mkSTV.C, line 194:

 Overlap eigenvalue is smaller than square root of threshold

 Multipole matrices computed through 2nd order

  Scale SEOQF with 1.000000e-01/1.000000e-01/1.000000e-01

 Standard Electronic Orientation quadrupole field applied
 Nucleus-field energy     =    -0.0000000057 hartrees
 Guess from superposition of atomic densities
 Warning:  Energy on first SCF cycle will be non-variational
 Long-range K will be added via erf
 Coulomb attenuation parameter = 0.35 bohr**(-1)
 An unrestricted Kohn-Sham SCF calculation will be
 performed using Pulay DIIS extrapolation
 Exchange:  wPBE + LR-HF      Correlation:  PBE
 Using SG-1 standard quadrature grid
 SCF converges when DIIS error is below 1.0E-05
 Requested basis set is G3large
 There are 40 shells and 168 basis functions
 A cutoff of  1.0D-08 yielded    716 shell pairs
 There are  12995 function pairs ( 17001 Cartesian)
 Warning!  Inaccurate integrated density:
   Number of electrons =    27
   Numerical integral  =    26.000074941606
   Relative error      =    -3.7034261422 %
 ---------------------------------------
  Cycle       Energy         DIIS Error
 ---------------------------------------
    1    -186.2758075094      3.75E-02
    2    -185.3890402485      6.61E-03
    3    -185.3423291900      8.57E-03
    4    -185.5480251427      7.67E-04
    5    -185.5507705298      3.00E-04
    6    -185.5514358329      5.34E-05
    7    -185.5515122260      1.46E-05
    8    -185.5515180381      4.43E-06 Convergence criterion met
 ---------------------------------------
 One-Electron    Energy =  -409.4587052021
 Total Coulomb   Energy =   171.3311972904
 Alpha Exchange  Energy =    -2.4974875687
 Beta  Exchange  Energy =    -2.3242184897
 DFT   Exchange  Energy =   -18.9981141791
 DFT Correlation Energy =    -0.8752081197
 Nuclear Repu.   Energy =    77.2710182308
 Nuclear Attr.   Energy =  -594.8035808632
 Kinetic         Energy =   185.3448756611
 <S^2> = 0.7617
 SCF time:  CPU 53.76 s  wall 53.99 s
 Final Alpha MO Eigenvalues
            1           2           3           4           5           6
    1 -13.9529021 -13.9528425  -9.9101738  -9.9096710  -0.8361361  -0.8145338
            7           8           9          10          11          12
    1  -0.5927967  -0.3319380  -0.3188919  -0.2946033  -0.2809383  -0.2498312
           13          14          15          16          17          18
    1  -0.2283828  -0.0030533   0.1945003   0.2051121   0.2384898   0.2600372
           19
    1   0.2600486
 Final Beta MO Eigenvalues
            1           2           3           4           5           6
    1 -13.9462395 -13.9461755  -9.9091419  -9.9086920  -0.8265740  -0.8051849
            7           8           9          10          11          12
    1  -0.5729372  -0.3150185  -0.2973866  -0.2815061  -0.2692050  -0.2235286
           13          14          15          16          17          18
    1  -0.2048652   0.1952328   0.2057179   0.2451434   0.2572798   0.2613967
 Analysis of SCF Wavefunction
 
 --------------------------------------------------------------
                    Orbital Energies (a.u.)
 --------------------------------------------------------------
 
 Alpha MOs
 -- Occupied --
-13.953 -13.953  -9.910  -9.910  -0.836  -0.815  -0.593  -0.332
 -0.319  -0.295  -0.281  -0.250  -0.228  -0.003
 -- Virtual --
  0.195   0.205   0.238   0.260   0.260   0.273   0.275   0.312
  0.318   0.410   0.411   0.414   0.424   0.425   0.427   0.445
  0.489   0.500   0.518   0.563   0.776   0.786   0.786   0.829
  0.830   0.889   0.893   0.918   0.963   1.040   1.041   1.079
  1.092   1.101   1.105   1.108   1.160   1.163   1.221   1.225
  1.239   1.416   1.417   1.481   1.602   1.603   1.621   1.688
  1.689   1.856   1.997   1.998   2.307   2.321   2.333   2.335
  2.353   2.652   2.938   2.938   2.942   2.943   2.956   2.957
  2.959   3.056   3.058   3.159   3.161   3.177   3.177   3.396
  3.397   3.411   3.411   3.479   3.481   3.486   3.525   3.714
  3.714   3.764   3.764   3.936   3.936   3.976   3.976   4.119
  4.123   4.216   4.267   4.270   4.406   4.507   4.508   4.693
  4.856   4.857   4.931   4.982   4.983   5.066   5.068   5.130
  5.132   5.326   5.394   5.397   5.543   5.544   6.023   6.219
  6.220   6.792   7.198   7.199   7.221   8.493  24.630  25.015
 27.521  27.522  27.716  27.716  28.903  30.375  36.305  37.163
 37.660  37.663  38.028  38.030  38.492  38.626  40.648  40.657
 40.755  40.762  40.771  40.841  40.843  41.004  41.018  41.032
 41.034  41.258  41.273  41.286  41.455  41.456  41.532  41.532
 41.855  41.897
 
 Beta MOs
 -- Occupied --
-13.946 -13.946  -9.909  -9.909  -0.827  -0.805  -0.573  -0.315
 -0.297  -0.282  -0.269  -0.224  -0.205
 -- Virtual --
  0.195   0.206   0.245   0.257   0.261   0.273   0.274   0.276
  0.315   0.318   0.416   0.422   0.427   0.428   0.429   0.435
  0.447   0.490   0.522   0.538   0.570   0.786   0.788   0.798
  0.843   0.844   0.889   0.898   0.919   0.968   1.044   1.044
  1.085   1.097   1.109   1.114   1.122   1.167   1.180   1.229
  1.247   1.247   1.438   1.438   1.487   1.619   1.620   1.629
  1.690   1.705   1.863   2.002   2.017   2.311   2.328   2.335
  2.348   2.360   2.664   2.947   2.947   2.951   2.954   2.957
  2.968   2.973   3.057   3.070   3.161   3.173   3.185   3.185
  3.406   3.406   3.415   3.415   3.480   3.492   3.494   3.530
  3.727   3.727   3.767   3.781   3.958   3.958   3.998   3.998
  4.131   4.153   4.224   4.276   4.297   4.416   4.521   4.522
  4.703   4.860   4.878   4.940   4.996   4.997   5.100   5.100
  5.162   5.162   5.333   5.401   5.419   5.547   5.563   6.028
  6.223   6.239   6.798   7.202   7.219   7.227   8.497  24.631
 25.016  27.522  27.526  27.717  27.721  28.904  30.376  36.313
 37.172  37.667  37.679  38.035  38.047  38.496  38.630  40.664
 40.673  40.758  40.778  40.786  40.844  40.855  41.007  41.021
 41.035  41.046  41.260  41.276  41.289  41.455  41.459  41.532
 41.536  41.858  41.899
 --------------------------------------------------------------
 
          Ground-State Mulliken Net Atomic Charges

     Atom                 Charge (a.u.)    Spin (a.u.)
  --------------------------------------------------------
      1 N                    -0.578646       0.368157
      2 C                     0.078640       0.131844
      3 C                     0.078619       0.131838
      4 N                    -0.578612       0.368161
  --------------------------------------------------------
  Sum of atomic charges =    -1.000000
  Sum of spin   charges =     1.000000

 -----------------------------------------------------------------
                    Cartesian Multipole Moments
 -----------------------------------------------------------------
    Charge (ESU x 10^10)
                -4.8032
    Dipole Moment (Debye)
         X       0.0000      Y       0.0000      Z      -0.0002
       Tot       0.0002
    Quadrupole Moments (Debye-Ang)
        XX     -24.9708     XY      -1.0301     YY     -24.9677
        XZ      -0.0001     YZ       0.0000     ZZ     -47.7378
    Octapole Moments (Debye-Ang^2)
       XXX       0.0000    XXY       0.0000    XYY       0.0000
       YYY       0.0000    XXZ       0.0001    XYZ       0.0000
       YYZ       0.0001    XZZ       0.0000    YZZ       0.0000
       ZZZ      -0.0005
    Hexadecapole Moments (Debye-Ang^3)
      XXXX     -31.6847   XXXY      -1.7148   XXYY     -10.5599
      XYYY      -1.7148   YYYY     -31.6744   XXXZ      -0.0001
      XXYZ       0.0000   XYYZ       0.0000   YYYZ      -0.0001
      XXZZ     -64.8718   XYZZ      -2.8308   YYZZ     -64.8633
      XZZZ      -0.0005   YZZZ      -0.0003   ZZZZ    -456.3844
 -----------------------------------------------------------------
 Total job time:  54.19s(wall), 53.94s(cpu) 
 Mon Jul  8 16:58:44 2013

        *************************************************************
        *                                                           *
        *  Thank you very much for using Q-Chem.  Have a nice day.  *
        *                                                           *
        *************************************************************


0 sent ACK to 0 
now end server 0 ... 
 
**********************************************************************
Job 2 of 3 
**********************************************************************
 
Process 0 of 1 is on cl232.stfx.acenet.ca - thread support 1
initial socket setup ...start
initial socket setup ...done 
now start server 0 ... 

cmd = /usr/bin/ssh clhead /usr/local/qchem/bin/get_hostid 1748066075 > /scratch/tmp/6065263.1.long.q/qchem392/lic.dat
                  Welcome to Q-Chem
     A Quantum Leap Into The Future Of Chemistry

 Y. Shao, L. Fusti-Molnar, Y. Jung, J. Kussmann, C. Ochsenfeld,
 S. T. Brown, A. T. B. Gilbert, L. V. Slipchenko,S. V. Levchenko,
 D. P. O'Neill, R. A. DiStasio Jr., R. C. Lochan, T. Wang,
 G. J. O. Beran, N. A. Besley, J. M. Herbert, C. Y. Lin,
 T. Van Voorhis, S. H. Chien, A. Sodt, R. P. Steele, 
 V. A. Rassolov, P. E. Maslen, P. P. Korambath, R. D. Adamson,
 B. Austin, J. Baker, E. F. C. Byrd, H. Dachsel, R. J. Doerksen,
 A. Dreuw, B. D. Dunietz, A. D. Dutoi, T. R. Furlani,
 S. R. Gwaltney, A. Heyden, S. Hirata, C.-P. Hsu, G. Kedziora,
 R. Z. Khaliullin, P. Klunzinger, A. M. Lee, M. S. Lee, W. Liang,
 I. Lotan, N. Nair, B. Peters, E. I. Proynov, P. A. Pieniazek, 
 Y. M. Rhee, J. Ritchie, E. Rosta, C. D. Sherrill, 
 A. C. Simmonett, J. E. Subotnik, H. L. Woodcock III,
 W. Zhang, A. T. Bell, A. K. Chakraborty, D. M. Chipman,
 F. J. Keil, A. Warshel, W. J. Hehre, H. F. Schaefer III,
 J. Kong, A. I. Krylov, P. M. W. Gill, M. Head-Gordon,
 Q-Chem, Version 3.1, Q-Chem, Inc., Pittsburgh, PA (2007).

 Additional authors for Version 3.1: 
 Z. Gan, Y. Zhao, N. E. Schultz, D. Truhlar, E. Epifanovsky and M. Oana.

 Additional authors for Version 3.2: 
 R. Baer, B. R. Brooks, D. Casanova, J.-D. Chai, C.-L. Cheng, 
 C. Cramer, D. Crittenden, A. Ghysels, G. Hawkins, E. G. Hohenstein, 
 C. Kelley, W. Kurlancheek, D. Liotard, E. Livshits, P. Manohar, 
 A. Marenich, D. Neuhauser, R. Olson, M. A. Rohrdanz, K. S. Thanthiriwatte, 
 A. J. W. Thom, V. Vanovschi, C. F. Williams, Q. Wu and Z.-Q. You. 


 Intel X86 Linux Version

 Q-chem begins on Mon Jul  8 16:58:47 2013  

 Parallel job on  1  processors
Processing $rem in /usr/local/qchem/config/preferences.

theFileMan(): MAXOPENFILES=974 MAX_SUB_FILE_NUM=16
Maximum size of a physical file is 2.0 GB, maximum size of a tmp-file is 32.0 GB


--------------------------------------------------------------
User input:
--------------------------------------------------------------

$molecule
0,1
N          0.00000        0.00000        1.83618
C          0.00000        0.00000        0.69391
C          0.00000        0.00000       -0.69391
N          0.00000        0.00000       -1.83618
$end

$comment
neutral
$end

$xc_functional
C PBE   1.00
X wPBE  1.00
$end


$rem
SYMMETRY_DECOMPOSITION	0
LRC_DFT                 true
exchange 		general
BASIS                   g3large
omega			350
mem_static              760
max_scf_cycles          200
scf_final_print         1
sym_ignore              true
$end

--------------------------------------------------------------
 Writing REM_CC_EA            4
 ----------------------------------------------------
       Standard Nuclear Orientation (Angstroms)
    I     Atom         X            Y            Z
 ----------------------------------------------------
    1      N       0.000000     0.000000     1.836180
    2      C       0.000000     0.000000     0.693910
    3      C       0.000000     0.000000    -0.693910
    4      N       0.000000     0.000000    -1.836180
 ----------------------------------------------------
 Nuclear Repulsion Energy =    77.2710182365 hartrees
 There are       13 alpha and       13 beta electrons
 Requested basis set is G3large
 There are 40 shells and 168 basis functions

Total QAlloc Memory Limit   2000 MB
Mega-Array Size       743 MB
MEM_STATIC part       760 MB

                       Distance Matrix (Angstroms)
             N (  1)   C (  2)   C (  3)
   C (  2)  1.142270
   C (  3)  2.530090  1.387820
   N (  4)  3.672360  2.530090  1.142270
 
 A cutoff of  1.0D-08 yielded    716 shell pairs
 There are  12995 function pairs ( 17001 Cartesian)
Evaluating contribution to one-electron hamiltonian from nuclear
 Smallest overlap matrix eigenvalue = 9.69E-06

 Q-Chem warning in module mkSTV.C, line 194:

 Overlap eigenvalue is smaller than square root of threshold

 Multipole matrices computed through 2nd order

  Scale SEOQF with 1.000000e-01/1.000000e-01/1.000000e-01

 Standard Electronic Orientation quadrupole field applied
 Nucleus-field energy     =    -0.0000000057 hartrees
 Guess from superposition of atomic densities
 Warning:  Energy on first SCF cycle will be non-variational
 Long-range K will be added via erf
 Coulomb attenuation parameter = 0.35 bohr**(-1)
 A restricted Kohn-Sham SCF calculation will be
 performed using Pulay DIIS extrapolation
 Exchange:  wPBE + LR-HF      Correlation:  PBE
 Using SG-1 standard quadrature grid
 SCF converges when DIIS error is below 1.0E-05
 Requested basis set is G3large
 There are 40 shells and 168 basis functions
 A cutoff of  1.0D-08 yielded    716 shell pairs
 There are  12995 function pairs ( 17001 Cartesian)
 ---------------------------------------
  Cycle       Energy         DIIS Error
 ---------------------------------------
    1    -186.2758075094      3.75E-02
    2    -185.4312237871      5.65E-03
    3    -185.3149867289      9.18E-03
    4    -185.5438266450      4.32E-04
    5    -185.5456027359      1.44E-04
    6    -185.5459216953      4.49E-05
    7    -185.5459267231      1.01E-05
    8    -185.5459315605      2.13E-06 Convergence criterion met
 ---------------------------------------
 One-Electron    Energy =  -402.4193057521
 Total Coulomb   Energy =   163.9781985518
 Alpha Exchange  Energy =    -2.3365922247
 Beta  Exchange  Energy =    -2.3365922247
 DFT   Exchange  Energy =   -18.8599991186
 DFT Correlation Energy =    -0.8426590228
 Nuclear Repu.   Energy =    77.2710182308
 Nuclear Attr.   Energy =  -587.4488371312
 Kinetic         Energy =   185.0295313791
 SCF time:  CPU 43.53 s  wall 43.88 s
 Final Alpha MO Eigenvalues
            1           2           3           4           5           6
    1 -14.2447617 -14.2446966 -10.1892385 -10.1887785  -1.1056408  -1.0833386
            7           8           9          10          11          12
    1  -0.8680564  -0.5817406  -0.5817392  -0.5474167  -0.5349456  -0.4885636
           13          14          15          16          17          18
    1  -0.4885611  -0.0093310  -0.0093304   0.0480702   0.0752264   0.0996896
 Analysis of SCF Wavefunction
 
 --------------------------------------------------------------
                    Orbital Energies (a.u.)
 --------------------------------------------------------------
 
 Alpha MOs
 -- Occupied --
-14.245 -14.245 -10.189 -10.189  -1.106  -1.083  -0.868  -0.582
 -0.582  -0.547  -0.535  -0.489  -0.489
 -- Virtual --
 -0.009  -0.009   0.048   0.075   0.100   0.100   0.133   0.133
  0.149   0.165   0.211   0.211   0.226   0.253   0.253   0.260
  0.289   0.315   0.323   0.323   0.370   0.553   0.564   0.564
  0.587   0.587   0.670   0.670   0.709   0.749   0.793   0.793
  0.865   0.879   0.889   0.889   0.904   0.951   0.951   0.970
  0.970   0.994   1.180   1.180   1.219   1.364   1.364   1.397
  1.439   1.439   1.623   1.755   1.755   2.067   2.079   2.101
  2.101   2.118   2.394   2.671   2.671   2.674   2.674   2.686
  2.686   2.693   2.793   2.793   2.898   2.898   2.910   2.910
  3.127   3.128   3.147   3.147   3.215   3.215   3.229   3.259
  3.442   3.442   3.495   3.495   3.680   3.680   3.719   3.719
  3.860   3.860   3.947   4.006   4.006   4.144   4.245   4.245
  4.427   4.585   4.585   4.664   4.720   4.720   4.805   4.805
  4.867   4.867   5.066   5.135   5.135   5.285   5.285   5.758
  5.948   5.948   6.521   6.928   6.928   6.946   8.220  24.351
 24.738  27.243  27.243  27.438  27.438  28.623  30.096  36.016
 36.875  37.372  37.372  37.740  37.740  38.202  38.336  40.359
 40.368  40.469  40.472  40.482  40.552  40.552  40.726  40.739
 40.744  40.744  40.975  40.995  41.008  41.176  41.176  41.252
 41.252  41.570  41.614
 --------------------------------------------------------------
 
          Ground-State Mulliken Net Atomic Charges

     Atom                 Charge (a.u.)
  ----------------------------------------
      1 N                    -0.287860
      2 C                     0.287854
      3 C                     0.287825
      4 N                    -0.287819
  ----------------------------------------
  Sum of atomic charges =     0.000000

 -----------------------------------------------------------------
                    Cartesian Multipole Moments
 -----------------------------------------------------------------
    Charge (ESU x 10^10)
                 0.0000
    Dipole Moment (Debye)
         X       0.0000      Y       0.0000      Z      -0.0002
       Tot       0.0002
    Quadrupole Moments (Debye-Ang)
        XX     -20.8654     XY       0.0000     YY     -20.8654
        XZ       0.0000     YZ       0.0000     ZZ     -30.3020
    Octapole Moments (Debye-Ang^2)
       XXX       0.0000    XXY       0.0000    XYY       0.0000
       YYY       0.0000    XXZ       0.0000    XYZ       0.0000
       YYZ       0.0000    XZZ       0.0000    YZZ       0.0000
       ZZZ      -0.0010
    Hexadecapole Moments (Debye-Ang^3)
      XXXX     -20.3468   XXXY       0.0000   XXYY      -6.7823
      XYYY       0.0000   YYYY     -20.3468   XXXZ       0.0000
      XXYZ       0.0000   XYYZ       0.0000   YYYZ       0.0000
      XXZZ     -50.5075   XYZZ       0.0002   YYZZ     -50.5075
      XZZZ       0.0000   YZZZ       0.0000   ZZZZ    -332.8409
 -----------------------------------------------------------------
 Total job time:  44.06s(wall), 43.70s(cpu) 
 Mon Jul  8 16:59:31 2013

        *************************************************************
        *                                                           *
        *  Thank you very much for using Q-Chem.  Have a nice day.  *
        *                                                           *
        *************************************************************


0 sent ACK to 0 
now end server 0 ... 
 
**********************************************************************
Job 3 of 3 
**********************************************************************
 
Process 0 of 1 is on cl232.stfx.acenet.ca - thread support 1
initial socket setup ...start
initial socket setup ...done 
now start server 0 ... 

cmd = /usr/bin/ssh clhead /usr/local/qchem/bin/get_hostid 334375903 > /scratch/tmp/6065263.1.long.q/qchem392/lic.dat
                  Welcome to Q-Chem
     A Quantum Leap Into The Future Of Chemistry

 Y. Shao, L. Fusti-Molnar, Y. Jung, J. Kussmann, C. Ochsenfeld,
 S. T. Brown, A. T. B. Gilbert, L. V. Slipchenko,S. V. Levchenko,
 D. P. O'Neill, R. A. DiStasio Jr., R. C. Lochan, T. Wang,
 G. J. O. Beran, N. A. Besley, J. M. Herbert, C. Y. Lin,
 T. Van Voorhis, S. H. Chien, A. Sodt, R. P. Steele, 
 V. A. Rassolov, P. E. Maslen, P. P. Korambath, R. D. Adamson,
 B. Austin, J. Baker, E. F. C. Byrd, H. Dachsel, R. J. Doerksen,
 A. Dreuw, B. D. Dunietz, A. D. Dutoi, T. R. Furlani,
 S. R. Gwaltney, A. Heyden, S. Hirata, C.-P. Hsu, G. Kedziora,
 R. Z. Khaliullin, P. Klunzinger, A. M. Lee, M. S. Lee, W. Liang,
 I. Lotan, N. Nair, B. Peters, E. I. Proynov, P. A. Pieniazek, 
 Y. M. Rhee, J. Ritchie, E. Rosta, C. D. Sherrill, 
 A. C. Simmonett, J. E. Subotnik, H. L. Woodcock III,
 W. Zhang, A. T. Bell, A. K. Chakraborty, D. M. Chipman,
 F. J. Keil, A. Warshel, W. J. Hehre, H. F. Schaefer III,
 J. Kong, A. I. Krylov, P. M. W. Gill, M. Head-Gordon,
 Q-Chem, Version 3.1, Q-Chem, Inc., Pittsburgh, PA (2007).

 Additional authors for Version 3.1: 
 Z. Gan, Y. Zhao, N. E. Schultz, D. Truhlar, E. Epifanovsky and M. Oana.

 Additional authors for Version 3.2: 
 R. Baer, B. R. Brooks, D. Casanova, J.-D. Chai, C.-L. Cheng, 
 C. Cramer, D. Crittenden, A. Ghysels, G. Hawkins, E. G. Hohenstein, 
 C. Kelley, W. Kurlancheek, D. Liotard, E. Livshits, P. Manohar, 
 A. Marenich, D. Neuhauser, R. Olson, M. A. Rohrdanz, K. S. Thanthiriwatte, 
 A. J. W. Thom, V. Vanovschi, C. F. Williams, Q. Wu and Z.-Q. You. 


 Intel X86 Linux Version

 Q-chem begins on Mon Jul  8 16:59:34 2013  

 Parallel job on  1  processors
Processing $rem in /usr/local/qchem/config/preferences.

theFileMan(): MAXOPENFILES=974 MAX_SUB_FILE_NUM=16
Maximum size of a physical file is 2.0 GB, maximum size of a tmp-file is 32.0 GB


--------------------------------------------------------------
User input:
--------------------------------------------------------------

$molecule
1,2
N          0.00000        0.00000        1.83618
C          0.00000        0.00000        0.69391
C          0.00000        0.00000       -0.69391
N          0.00000        0.00000       -1.83618
$end

$comment
positive
$end

$xc_functional
C PBE   1.00
X wPBE  1.00
$end

$rem
SYMMETRY_DECOMPOSITION	0
LRC_DFT                 true
exchange 		general
BASIS                   g3large
omega			350
mem_static              760
max_scf_cycles          200
scf_final_print         1
sym_ignore              true
$end

--------------------------------------------------------------
 Writing REM_CC_EA            4
 ----------------------------------------------------
       Standard Nuclear Orientation (Angstroms)
    I     Atom         X            Y            Z
 ----------------------------------------------------
    1      N       0.000000     0.000000     1.836180
    2      C       0.000000     0.000000     0.693910
    3      C       0.000000     0.000000    -0.693910
    4      N       0.000000     0.000000    -1.836180
 ----------------------------------------------------
 Nuclear Repulsion Energy =    77.2710182365 hartrees
 There are       13 alpha and       12 beta electrons
 Requested basis set is G3large
 There are 40 shells and 168 basis functions

Total QAlloc Memory Limit   2000 MB
Mega-Array Size       743 MB
MEM_STATIC part       760 MB

                       Distance Matrix (Angstroms)
             N (  1)   C (  2)   C (  3)
   C (  2)  1.142270
   C (  3)  2.530090  1.387820
   N (  4)  3.672360  2.530090  1.142270
 
 A cutoff of  1.0D-08 yielded    716 shell pairs
 There are  12995 function pairs ( 17001 Cartesian)
Evaluating contribution to one-electron hamiltonian from nuclear
 Smallest overlap matrix eigenvalue = 9.69E-06

 Q-Chem warning in module mkSTV.C, line 194:

 Overlap eigenvalue is smaller than square root of threshold

 Multipole matrices computed through 2nd order

  Scale SEOQF with 1.000000e-01/1.000000e-01/1.000000e-01

 Standard Electronic Orientation quadrupole field applied
 Nucleus-field energy     =    -0.0000000057 hartrees
 Guess from superposition of atomic densities
 Warning:  Energy on first SCF cycle will be non-variational
 Long-range K will be added via erf
 Coulomb attenuation parameter = 0.35 bohr**(-1)
 An unrestricted Kohn-Sham SCF calculation will be
 performed using Pulay DIIS extrapolation
 Exchange:  wPBE + LR-HF      Correlation:  PBE
 Using SG-1 standard quadrature grid
 SCF converges when DIIS error is below 1.0E-05
 Requested basis set is G3large
 There are 40 shells and 168 basis functions
 A cutoff of  1.0D-08 yielded    716 shell pairs
 There are  12995 function pairs ( 17001 Cartesian)
 Warning!  Inaccurate integrated density:
   Number of electrons =    25
   Numerical integral  =    26.000074941606
   Relative error      =     4.0002997664 %
 ---------------------------------------
  Cycle       Energy         DIIS Error
 ---------------------------------------
    1    -186.2758075094      3.75E-02
    2    -184.9316557011      4.58E-03
    3    -184.9206587777      6.46E-03
    4    -185.0417908136      6.33E-04
    5    -185.0448643629      2.30E-04
    6    -185.0457643049      6.33E-05
    7    -185.0459641539      1.58E-05
    8    -185.0459932674      6.96E-06 Convergence criterion met
 ---------------------------------------
 One-Electron    Energy =  -394.3644048860
 Total Coulomb   Energy =   156.0647175117
 Alpha Exchange  Energy =    -2.3502335718
 Beta  Exchange  Energy =    -2.1573907592
 DFT   Exchange  Energy =   -18.7094667182
 DFT Correlation Energy =    -0.8002330748
 Nuclear Repu.   Energy =    77.2710182308
 Nuclear Attr.   Energy =  -579.1903594517
 Kinetic         Energy =   184.8259545656
 <S^2> = 0.7959
 SCF time:  CPU 53.97 s  wall 54.33 s
 Final Alpha MO Eigenvalues
            1           2           3           4           5           6
    1 -14.5777906 -14.5777266 -10.5071251 -10.5066757  -1.4310035  -1.4144827
            7           8           9          10          11          12
    1  -1.1631320  -0.8969014  -0.8756983  -0.8394902  -0.8274478  -0.8216032
           13          14          15          16          17          18
    1  -0.7905461  -0.3114771  -0.2921346  -0.1223643  -0.1021328  -0.0876786
 Final Beta MO Eigenvalues
            1           2           3           4           5           6
    1 -14.5688190 -14.5687658 -10.5063622 -10.5058412  -1.4064696  -1.3834777
            7           8           9          10          11          12
    1  -1.1645850  -0.8711856  -0.8249244  -0.8226290  -0.8138341  -0.7795422
           13          14          15          16          17
    1  -0.5110781  -0.2865831  -0.2581598  -0.1217608  -0.0961149
 Analysis of SCF Wavefunction
 
 --------------------------------------------------------------
                    Orbital Energies (a.u.)
 --------------------------------------------------------------
 
 Alpha MOs
 -- Occupied --
-14.578 -14.578 -10.507 -10.507  -1.431  -1.414  -1.163  -0.897
 -0.876  -0.839  -0.827  -0.822  -0.791
 -- Virtual --
 -0.311  -0.292  -0.122  -0.102  -0.088  -0.071  -0.070  -0.066
 -0.036  -0.015  -0.013  -0.011   0.043   0.085   0.085   0.090
  0.134   0.144   0.151   0.155   0.196   0.313   0.322   0.323
  0.326   0.333   0.430   0.439   0.491   0.517   0.518   0.518
  0.618   0.640   0.641   0.653   0.677   0.688   0.696   0.712
  0.725   0.739   0.900   0.900   0.930   1.090   1.090   1.147
  1.151   1.166   1.370   1.480   1.494   1.803   1.805   1.836
  1.851   1.860   2.112   2.376   2.378   2.379   2.379   2.398
  2.400   2.405   2.494   2.504   2.602   2.612   2.615   2.615
  2.827   2.827   2.838   2.838   2.899   2.917   2.938   2.967
  3.143   3.144   3.173   3.192   3.368   3.368   3.409   3.409
  3.532   3.560   3.638   3.684   3.710   3.845   3.937   3.939
  4.125   4.272   4.288   4.362   4.421   4.421   4.473   4.475
  4.533   4.534   4.778   4.822   4.844   4.978   4.998   5.458
  5.623   5.643   6.213   6.604   6.625   6.632   7.911  24.036
 24.422  26.925  26.929  27.119  27.124  28.307  29.780  35.684
 36.542  37.029  37.044  37.397  37.412  37.874  38.007  40.018
 40.028  40.129  40.141  40.145  40.212  40.226  40.404  40.407
 40.418  40.420  40.653  40.676  40.689  40.855  40.859  40.931
 40.935  41.246  41.293
 
 Beta MOs
 -- Occupied --
-14.569 -14.569 -10.506 -10.506  -1.406  -1.383  -1.165  -0.871
 -0.825  -0.823  -0.814  -0.780
 -- Virtual --
 -0.511  -0.287  -0.258  -0.122  -0.096  -0.068  -0.068  -0.066
 -0.054  -0.034  -0.013  -0.010  -0.009   0.044   0.087   0.090
  0.090   0.135   0.146   0.157   0.157   0.199   0.314   0.324
  0.326   0.328   0.332   0.439   0.440   0.497   0.526   0.536
  0.537   0.627   0.646   0.654   0.654   0.695   0.701   0.706
  0.728   0.731   0.744   0.922   0.924   0.939   1.107   1.109
  1.160   1.171   1.173   1.375   1.494   1.495   1.810   1.816
  1.854   1.856   1.870   2.118   2.384   2.384   2.385   2.385
  2.400   2.404   2.408   2.501   2.503   2.611   2.612   2.624
  2.624   2.833   2.833   2.854   2.855   2.920   2.921   2.947
  2.972   3.149   3.149   3.195   3.197   3.403   3.404   3.442
  3.443   3.571   3.580   3.651   3.718   3.726   3.861   3.958
  3.960   4.139   4.291   4.293   4.375   4.437   4.438   4.519
  4.524   4.579   4.583   4.785   4.850   4.856   5.002   5.007
  5.465   5.647   5.650   6.221   6.630   6.634   6.640   7.917
 24.037  24.423  26.928  26.928  27.123  27.123  28.307  29.781
 35.695  36.556  37.050  37.056  37.418  37.424  37.879  38.013
 40.040  40.049  40.147  40.154  40.163  40.228  40.232  40.409
 40.420  40.422  40.423  40.655  40.678  40.691  40.858  40.859
 40.935  40.935  41.249  41.295
 --------------------------------------------------------------
 
          Ground-State Mulliken Net Atomic Charges

     Atom                 Charge (a.u.)    Spin (a.u.)
  --------------------------------------------------------
      1 N                     0.015398       0.441015
      2 C                     0.484611       0.058985
      3 C                     0.484605       0.058964
      4 N                     0.015385       0.441035
  --------------------------------------------------------
  Sum of atomic charges =     1.000000
  Sum of spin   charges =     1.000000

 -----------------------------------------------------------------
                    Cartesian Multipole Moments
 -----------------------------------------------------------------
    Charge (ESU x 10^10)
                 4.8032
    Dipole Moment (Debye)
         X       0.0000      Y       0.0000      Z       0.0001
       Tot       0.0001
    Quadrupole Moments (Debye-Ang)
        XX     -17.9302     XY      -0.6060     YY     -17.9290
        XZ       0.0068     YZ      -0.0068     ZZ     -15.0405
    Octapole Moments (Debye-Ang^2)
       XXX       0.0000    XXY       0.0000    XYY       0.0000
       YYY       0.0000    XXZ       0.0000    XYZ       0.0000
       YYZ       0.0000    XZZ       0.0000    YZZ       0.0000
       ZZZ       0.0003
    Hexadecapole Moments (Debye-Ang^3)
      XXXX     -15.1122   XXXY      -0.3931   XXYY      -5.0374
      XYYY      -0.3931   YYYY     -15.1108   XXXZ       0.0055
      XXYZ      -0.0018   XYYZ       0.0018   YYYZ      -0.0055
      XXZZ     -41.4113   XYZZ      -1.6587   YYZZ     -41.4082
      XZZZ       0.0377   YZZZ      -0.0378   ZZZZ    -248.9079
 -----------------------------------------------------------------
 Total job time:  54.51s(wall), 54.15s(cpu) 
 Mon Jul  8 17:00:28 2013

        *************************************************************
        *                                                           *
        *  Thank you very much for using Q-Chem.  Have a nice day.  *
        *                                                           *
        *************************************************************


0 sent ACK to 0 
now end server 0 ... 
