Process 0 of 1 is on cl030.stfx.acenet.ca - thread support 1
initial socket setup ...start
initial socket setup ...done 
now start server 0 ... 

cmd = /usr/bin/ssh clhead /usr/local/qchem/bin/get_hostid 1990515941 > /scratch/tmp/6027630.1.short.q/qchem32458/lic.dat
                  Welcome to Q-Chem
     A Quantum Leap Into The Future Of Chemistry

 Y. Shao, L. Fusti-Molnar, Y. Jung, J. Kussmann, C. Ochsenfeld,
 S. T. Brown, A. T. B. Gilbert, L. V. Slipchenko,S. V. Levchenko,
 D. P. O'Neill, R. A. DiStasio Jr., R. C. Lochan, T. Wang,
 G. J. O. Beran, N. A. Besley, J. M. Herbert, C. Y. Lin,
 T. Van Voorhis, S. H. Chien, A. Sodt, R. P. Steele, 
 V. A. Rassolov, P. E. Maslen, P. P. Korambath, R. D. Adamson,
 B. Austin, J. Baker, E. F. C. Byrd, H. Dachsel, R. J. Doerksen,
 A. Dreuw, B. D. Dunietz, A. D. Dutoi, T. R. Furlani,
 S. R. Gwaltney, A. Heyden, S. Hirata, C.-P. Hsu, G. Kedziora,
 R. Z. Khaliullin, P. Klunzinger, A. M. Lee, M. S. Lee, W. Liang,
 I. Lotan, N. Nair, B. Peters, E. I. Proynov, P. A. Pieniazek, 
 Y. M. Rhee, J. Ritchie, E. Rosta, C. D. Sherrill, 
 A. C. Simmonett, J. E. Subotnik, H. L. Woodcock III,
 W. Zhang, A. T. Bell, A. K. Chakraborty, D. M. Chipman,
 F. J. Keil, A. Warshel, W. J. Hehre, H. F. Schaefer III,
 J. Kong, A. I. Krylov, P. M. W. Gill, M. Head-Gordon,
 Q-Chem, Version 3.1, Q-Chem, Inc., Pittsburgh, PA (2007).

 Additional authors for Version 3.1: 
 Z. Gan, Y. Zhao, N. E. Schultz, D. Truhlar, E. Epifanovsky and M. Oana.

 Additional authors for Version 3.2: 
 R. Baer, B. R. Brooks, D. Casanova, J.-D. Chai, C.-L. Cheng, 
 C. Cramer, D. Crittenden, A. Ghysels, G. Hawkins, E. G. Hohenstein, 
 C. Kelley, W. Kurlancheek, D. Liotard, E. Livshits, P. Manohar, 
 A. Marenich, D. Neuhauser, R. Olson, M. A. Rohrdanz, K. S. Thanthiriwatte, 
 A. J. W. Thom, V. Vanovschi, C. F. Williams, Q. Wu and Z.-Q. You. 


 Intel X86 Linux Version

 Q-chem begins on Mon Jun  3 17:03:40 2013  

 Parallel job on  1  processors
Processing $rem in /usr/local/qchem/config/preferences.

theFileMan(): MAXOPENFILES=974 MAX_SUB_FILE_NUM=16
Maximum size of a physical file is 2.0 GB, maximum size of a tmp-file is 32.0 GB


--------------------------------------------------------------
User input:
--------------------------------------------------------------

$molecule
-1,1
Si
X,1,1.
H,1,R,2,BETA
H,1,R,2,BETA,3,120.,0
H,1,R,2,BETA,3,-120.,0

 R=1.48898721
 BETA=108.02552928

$end

$comment
negative
$end

$xc_functional
C PBE   1.00
X wPBE  1.00
$end

$rem
SYMMETRY_DECOMPOSITION	0
exchange 		general
LRC_DFT                 true
BASIS                   g3large
omega			2000
mem_static              760
max_scf_cycles          200
scf_final_print         1
sym_ignore              true
$end

--------------------------------------------------------------
 Writing REM_CC_EA            4
 ----------------------------------------------------
       Standard Nuclear Orientation (Angstroms)
    I     Atom         X            Y            Z
 ----------------------------------------------------
    1      Si      0.000000     0.000000     0.000000
    2      H       1.415906     0.000000    -0.460753
    3      H      -0.707953    -1.226210    -0.460753
    4      H      -0.707953     1.226210    -0.460753
 ----------------------------------------------------
 Nuclear Repulsion Energy =    15.5738830141 hartrees
 There are        9 alpha and        9 beta electrons
 Requested basis set is G3large
 There are 37 shells and 96 basis functions

Total QAlloc Memory Limit   2000 MB
Mega-Array Size       743 MB
MEM_STATIC part       760 MB

                       Distance Matrix (Angstroms)
             Si(  1)   H (  2)   H (  3)
   H (  2)  1.488987
   H (  3)  1.488987  2.452421
   H (  4)  1.488987  2.452421  2.452421
 
 A cutoff of  1.0D-08 yielded    703 shell pairs
 There are   4798 function pairs (  6229 Cartesian)
Evaluating contribution to one-electron hamiltonian from nuclear
 Smallest overlap matrix eigenvalue = 1.72E-03
 Multipole matrices computed through 2nd order

  Scale SEOQF with 1.000000e-01/1.000000e-01/1.000000e-01

 Standard Electronic Orientation quadrupole field applied
 Nucleus-field energy     =     0.0000000003 hartrees
 Guess from superposition of atomic densities
 Warning:  Energy on first SCF cycle will be non-variational
 Long-range K will be added via erf
 Coulomb attenuation parameter = 2 bohr**(-1)
 A restricted Kohn-Sham SCF calculation will be
 performed using Pulay DIIS extrapolation
 Exchange:  wPBE + LR-HF      Correlation:  PBE
 Using SG-1 standard quadrature grid
 SCF converges when DIIS error is below 1.0E-05
 Requested basis set is G3large
 There are 37 shells and 96 basis functions
 A cutoff of  1.0D-08 yielded    703 shell pairs
 There are   4798 function pairs (  6229 Cartesian)
 Warning!  Inaccurate integrated density:
   Number of electrons =    18
   Numerical integral  =    16.999930810780
   Relative error      =    -5.5559399401 %
 ---------------------------------------
  Cycle       Energy         DIIS Error
 ---------------------------------------
    1    -291.0874463213      2.60E-02
    2    -291.2739750523      3.49E-03
    3    -291.3049094302      1.34E-03
    4    -291.3073449737      3.67E-04
    5    -291.3079218476      1.18E-04
    6    -291.3080206174      4.34E-05
    7    -291.3080376888      1.25E-05
    8    -291.3080393403      3.84E-06 Convergence criterion met
 ---------------------------------------
 One-Electron    Energy =  -438.0188694168
 Total Coulomb   Energy =   153.3585880143
 Alpha Exchange  Energy =    -5.3839272363
 Beta  Exchange  Energy =    -5.3839272363
 DFT   Exchange  Energy =   -10.8394626095
 DFT Correlation Energy =    -0.6143238702
 Nuclear Repu.   Energy =    15.5738830143
 Nuclear Attr.   Energy =  -728.8100801382
 Kinetic         Energy =   290.7912107214
 SCF time:  CPU 16.66 s  wall 18.13 s
 Final Alpha MO Eigenvalues
            1           2           3           4           5           6
    1 -66.2115004  -5.6868033  -3.9022872  -3.9022629  -3.9011183  -0.5008750
            7           8           9          10          11          12
    1  -0.2898951  -0.2898930  -0.0555560   0.1891227   0.2095408   0.2095412
           13          14
    1   0.2260642   0.2260652
 Analysis of SCF Wavefunction
 
 --------------------------------------------------------------
                    Orbital Energies (a.u.)
 --------------------------------------------------------------
 
 Alpha MOs
 -- Occupied --
-66.212  -5.687  -3.902  -3.902  -3.901  -0.501  -0.290  -0.290
 -0.056
 -- Virtual --
  0.189   0.210   0.210   0.226   0.226   0.228   0.272   0.370
  0.370   0.390   0.440   0.440   0.501   0.546   0.546   0.579
  0.595   0.596   0.702   0.768   0.793   0.793   0.804   0.804
  0.816   0.864   1.023   1.023   1.063   1.100   1.100   1.194
  1.194   1.221   1.394   1.462   1.462   1.468   1.519   1.519
  1.669   1.736   1.736   1.756   1.935   1.935   2.586   2.590
  2.596   2.596   2.664   2.664   2.772   3.309   3.309   3.446
  4.099   4.100   4.193   4.331   4.332   4.519   4.522   4.522
  4.588   4.588   4.590   4.869   5.007   5.008   6.550  12.128
 12.209  12.209  18.377  18.377  18.415  18.601  18.665  23.059
 23.061  23.065  23.067  23.083  23.084  23.107 141.877
 --------------------------------------------------------------
 
          Ground-State Mulliken Net Atomic Charges

     Atom                 Charge (a.u.)
  ----------------------------------------
      1 Si                   -0.619856
      2 H                    -0.126628
      3 H                    -0.126714
      4 H                    -0.126803
  ----------------------------------------
  Sum of atomic charges =    -1.000000

 -----------------------------------------------------------------
                    Cartesian Multipole Moments
 -----------------------------------------------------------------
    Charge (ESU x 10^10)
                -4.8032
    Dipole Moment (Debye)
         X       0.0000      Y       0.0002      Z      -1.4009
       Tot       1.4009
    Quadrupole Moments (Debye-Ang)
        XX     -22.4119     XY       0.0000     YY     -22.4121
        XZ      -0.0002     YZ       0.0002     ZZ     -29.4209
    Octapole Moments (Debye-Ang^2)
       XXX      -1.9229    XXY       0.0001    XYY       1.9226
       YYY       0.0004    XXZ       0.5254    XYZ       0.0000
       YYZ       0.5251    XZZ      -0.0004    YZZ       0.0012
       ZZZ      -4.8697
    Hexadecapole Moments (Debye-Ang^3)
      XXXX     -69.1531   XXXY       0.0000   XXYY     -23.0514
      XYYY       0.0004   YYYY     -69.1535   XXXZ       0.9188
      XXYZ       0.0003   XYYZ      -0.9207   YYYZ       0.0009
      XXZZ     -30.9319   XYZZ       0.0000   YYZZ     -30.9315
      XZZZ      -0.0011   YZZZ       0.0009   ZZZZ    -110.5256
 -----------------------------------------------------------------
 Total job time:  18.34s(wall), 16.77s(cpu) 
 Mon Jun  3 17:03:58 2013

        *************************************************************
        *                                                           *
        *  Thank you very much for using Q-Chem.  Have a nice day.  *
        *                                                           *
        *************************************************************


0 sent ACK to 0 
now end server 0 ... 
 
**********************************************************************
Job 2 of 3 
**********************************************************************
 
Process 0 of 1 is on cl030.stfx.acenet.ca - thread support 1
initial socket setup ...start
initial socket setup ...done 
now start server 0 ... 

cmd = /usr/bin/ssh clhead /usr/local/qchem/bin/get_hostid 1445429342 > /scratch/tmp/6027630.1.short.q/qchem32458/lic.dat
                  Welcome to Q-Chem
     A Quantum Leap Into The Future Of Chemistry

 Y. Shao, L. Fusti-Molnar, Y. Jung, J. Kussmann, C. Ochsenfeld,
 S. T. Brown, A. T. B. Gilbert, L. V. Slipchenko,S. V. Levchenko,
 D. P. O'Neill, R. A. DiStasio Jr., R. C. Lochan, T. Wang,
 G. J. O. Beran, N. A. Besley, J. M. Herbert, C. Y. Lin,
 T. Van Voorhis, S. H. Chien, A. Sodt, R. P. Steele, 
 V. A. Rassolov, P. E. Maslen, P. P. Korambath, R. D. Adamson,
 B. Austin, J. Baker, E. F. C. Byrd, H. Dachsel, R. J. Doerksen,
 A. Dreuw, B. D. Dunietz, A. D. Dutoi, T. R. Furlani,
 S. R. Gwaltney, A. Heyden, S. Hirata, C.-P. Hsu, G. Kedziora,
 R. Z. Khaliullin, P. Klunzinger, A. M. Lee, M. S. Lee, W. Liang,
 I. Lotan, N. Nair, B. Peters, E. I. Proynov, P. A. Pieniazek, 
 Y. M. Rhee, J. Ritchie, E. Rosta, C. D. Sherrill, 
 A. C. Simmonett, J. E. Subotnik, H. L. Woodcock III,
 W. Zhang, A. T. Bell, A. K. Chakraborty, D. M. Chipman,
 F. J. Keil, A. Warshel, W. J. Hehre, H. F. Schaefer III,
 J. Kong, A. I. Krylov, P. M. W. Gill, M. Head-Gordon,
 Q-Chem, Version 3.1, Q-Chem, Inc., Pittsburgh, PA (2007).

 Additional authors for Version 3.1: 
 Z. Gan, Y. Zhao, N. E. Schultz, D. Truhlar, E. Epifanovsky and M. Oana.

 Additional authors for Version 3.2: 
 R. Baer, B. R. Brooks, D. Casanova, J.-D. Chai, C.-L. Cheng, 
 C. Cramer, D. Crittenden, A. Ghysels, G. Hawkins, E. G. Hohenstein, 
 C. Kelley, W. Kurlancheek, D. Liotard, E. Livshits, P. Manohar, 
 A. Marenich, D. Neuhauser, R. Olson, M. A. Rohrdanz, K. S. Thanthiriwatte, 
 A. J. W. Thom, V. Vanovschi, C. F. Williams, Q. Wu and Z.-Q. You. 


 Intel X86 Linux Version

 Q-chem begins on Mon Jun  3 17:04:04 2013  

 Parallel job on  1  processors
Processing $rem in /usr/local/qchem/config/preferences.

theFileMan(): MAXOPENFILES=974 MAX_SUB_FILE_NUM=16
Maximum size of a physical file is 2.0 GB, maximum size of a tmp-file is 32.0 GB


--------------------------------------------------------------
User input:
--------------------------------------------------------------

$molecule
0,2
Si
X,1,1.
H,1,R,2,BETA
H,1,R,2,BETA,3,120.,0
H,1,R,2,BETA,3,-120.,0

 R=1.48898721
 BETA=108.02552928

$end

$comment
neutral
$end

$xc_functional
C PBE   1.00
X wPBE  1.00
$end


$rem
SYMMETRY_DECOMPOSITION	0
LRC_DFT                 true
exchange 		general
BASIS                   g3large
omega			2000
mem_static              760
max_scf_cycles          200
scf_final_print         1
sym_ignore              true
$end

--------------------------------------------------------------
 Writing REM_CC_EA            4
 ----------------------------------------------------
       Standard Nuclear Orientation (Angstroms)
    I     Atom         X            Y            Z
 ----------------------------------------------------
    1      Si      0.000000     0.000000     0.000000
    2      H       1.415906     0.000000    -0.460753
    3      H      -0.707953    -1.226210    -0.460753
    4      H      -0.707953     1.226210    -0.460753
 ----------------------------------------------------
 Nuclear Repulsion Energy =    15.5738830141 hartrees
 There are        9 alpha and        8 beta electrons
 Requested basis set is G3large
 There are 37 shells and 96 basis functions

Total QAlloc Memory Limit   2000 MB
Mega-Array Size       743 MB
MEM_STATIC part       760 MB

                       Distance Matrix (Angstroms)
             Si(  1)   H (  2)   H (  3)
   H (  2)  1.488987
   H (  3)  1.488987  2.452421
   H (  4)  1.488987  2.452421  2.452421
 
 A cutoff of  1.0D-08 yielded    703 shell pairs
 There are   4798 function pairs (  6229 Cartesian)
Evaluating contribution to one-electron hamiltonian from nuclear
 Smallest overlap matrix eigenvalue = 1.72E-03
 Multipole matrices computed through 2nd order

  Scale SEOQF with 1.000000e-01/1.000000e-01/1.000000e-01

 Standard Electronic Orientation quadrupole field applied
 Nucleus-field energy     =     0.0000000003 hartrees
 Guess from superposition of atomic densities
 Warning:  Energy on first SCF cycle will be non-variational
 Long-range K will be added via erf
 Coulomb attenuation parameter = 2 bohr**(-1)
 An unrestricted Kohn-Sham SCF calculation will be
 performed using Pulay DIIS extrapolation
 Exchange:  wPBE + LR-HF      Correlation:  PBE
 Using SG-1 standard quadrature grid
 SCF converges when DIIS error is below 1.0E-05
 Requested basis set is G3large
 There are 37 shells and 96 basis functions
 A cutoff of  1.0D-08 yielded    703 shell pairs
 There are   4798 function pairs (  6229 Cartesian)
 ---------------------------------------
  Cycle       Energy         DIIS Error
 ---------------------------------------
    1    -291.0874463213      2.60E-02
    2    -291.2573523316      2.73E-03
    3    -291.2821229357      7.91E-04
    4    -291.2850303292      2.59E-04
    5    -291.2854482237      8.86E-05
    6    -291.2855270986      3.15E-05
    7    -291.2855414001      7.93E-06 Convergence criterion met
 ---------------------------------------
 One-Electron    Energy =  -433.7240448913
 Total Coulomb   Energy =   148.9223646978
 Alpha Exchange  Energy =    -5.4558729816
 Beta  Exchange  Energy =    -5.1808912660
 DFT   Exchange  Energy =   -10.8387851122
 DFT Correlation Energy =    -0.5821948611
 Nuclear Repu.   Energy =    15.5738830143
 Nuclear Attr.   Energy =  -724.4306004909
 Kinetic         Energy =   290.7065555996
 <S^2> = 0.7540
 SCF time:  CPU 16.97 s  wall 17.14 s
 Final Alpha MO Eigenvalues
            1           2           3           4           5           6
    1 -66.4769749  -5.9527656  -4.1742903  -4.1657355  -4.1657036  -0.7575076
            7           8           9          10          11          12
    1  -0.5227797  -0.5227064  -0.3605727   0.0522645   0.0722248   0.0722298
           13          14
    1   0.0823887   0.0905530
 Final Beta MO Eigenvalues
            1           2           3           4           5           6
    1 -66.4737548  -5.9473731  -4.1634087  -4.1633909  -4.1575425  -0.7160011
            7           8           9          10          11          12
    1  -0.5154194  -0.5153676  -0.0007152   0.0547814   0.0744944   0.0744996
           13
    1   0.0941085
 Analysis of SCF Wavefunction
 
 --------------------------------------------------------------
                    Orbital Energies (a.u.)
 --------------------------------------------------------------
 
 Alpha MOs
 -- Occupied --
-66.477  -5.953  -4.174  -4.166  -4.166  -0.758  -0.523  -0.523
 -0.361
 -- Virtual --
  0.052   0.072   0.072   0.082   0.091   0.091   0.119   0.175
  0.175   0.193   0.224   0.224   0.300   0.355   0.355   0.366
  0.413   0.413   0.492   0.559   0.574   0.574   0.582   0.582
  0.595   0.649   0.806   0.806   0.837   0.860   0.860   0.973
  0.973   0.977   1.181   1.240   1.240   1.240   1.295   1.295
  1.417   1.493   1.493   1.521   1.707   1.707   2.319   2.328
  2.328   2.344   2.405   2.405   2.527   3.083   3.083   3.218
  3.837   3.837   3.924   4.089   4.090   4.291   4.296   4.296
  4.361   4.361   4.365   4.637   4.766   4.767   6.290  11.857
 11.948  11.948  18.106  18.112  18.148  18.336  18.402  22.793
 22.798  22.800  22.805  22.819  22.819  22.846 141.612
 
 Beta MOs
 -- Occupied --
-66.474  -5.947  -4.163  -4.163  -4.158  -0.716  -0.515  -0.515
 -- Virtual --
 -0.001   0.055   0.074   0.074   0.094   0.094   0.102   0.130
  0.188   0.188   0.209   0.249   0.249   0.325   0.360   0.360
  0.401   0.418   0.418   0.499   0.560   0.584   0.584   0.595
  0.595   0.604   0.659   0.812   0.812   0.850   0.873   0.873
  0.978   0.978   0.996   1.183   1.245   1.245   1.246   1.299
  1.299   1.440   1.498   1.498   1.530   1.710   1.711   2.328
  2.338   2.338   2.345   2.412   2.413   2.529   3.085   3.085
  3.220   3.840   3.840   3.929   4.089   4.091   4.293   4.297
  4.297   4.363   4.363   4.366   4.639   4.767   4.768   6.296
 11.870  11.949  11.949  18.116  18.117  18.154  18.341  18.405
 22.796  22.800  22.802  22.806  22.821  22.821  22.847 141.615
 --------------------------------------------------------------
 
          Ground-State Mulliken Net Atomic Charges

     Atom                 Charge (a.u.)    Spin (a.u.)
  --------------------------------------------------------
      1 Si                    0.131596       0.951732
      2 H                    -0.043840       0.015638
      3 H                    -0.043818       0.016672
      4 H                    -0.043938       0.015958
  --------------------------------------------------------
  Sum of atomic charges =     0.000000
  Sum of spin   charges =     1.000000

 -----------------------------------------------------------------
                    Cartesian Multipole Moments
 -----------------------------------------------------------------
    Charge (ESU x 10^10)
                 0.0000
    Dipole Moment (Debye)
         X       0.0001      Y      -0.0004      Z      -0.0108
       Tot       0.0108
    Quadrupole Moments (Debye-Ang)
        XX     -15.6401     XY       0.0003     YY     -15.6401
        XZ       0.0009     YZ       0.0009     ZZ     -16.1075
    Octapole Moments (Debye-Ang^2)
       XXX      -0.6343    XXY      -0.0004    XYY       0.6346
       YYY      -0.0012    XXZ       1.5129    XYZ      -0.0007
       YYZ       1.5129    XZZ      -0.0001    YZZ      -0.0010
       ZZZ       2.1829
    Hexadecapole Moments (Debye-Ang^3)
      XXXX     -40.6776   XXXY       0.0008   XXYY     -13.5592
      XYYY       0.0012   YYYY     -40.6775   XXXZ      -0.3689
      XXYZ       0.0008   XYYZ       0.3713   YYYZ       0.0022
      XXZZ     -12.1299   XYZZ       0.0006   YYZZ     -12.1297
      XZZZ       0.0016   YZZZ       0.0016   ZZZZ     -31.6439
 -----------------------------------------------------------------
 Total job time:  17.26s(wall), 17.08s(cpu) 
 Mon Jun  3 17:04:21 2013

        *************************************************************
        *                                                           *
        *  Thank you very much for using Q-Chem.  Have a nice day.  *
        *                                                           *
        *************************************************************


0 sent ACK to 0 
now end server 0 ... 
 
**********************************************************************
Job 3 of 3 
**********************************************************************
 
Process 0 of 1 is on cl030.stfx.acenet.ca - thread support 1
initial socket setup ...start
initial socket setup ...done 
now start server 0 ... 

cmd = /usr/bin/ssh clhead /usr/local/qchem/bin/get_hostid 1796606101 > /scratch/tmp/6027630.1.short.q/qchem32458/lic.dat
                  Welcome to Q-Chem
     A Quantum Leap Into The Future Of Chemistry

 Y. Shao, L. Fusti-Molnar, Y. Jung, J. Kussmann, C. Ochsenfeld,
 S. T. Brown, A. T. B. Gilbert, L. V. Slipchenko,S. V. Levchenko,
 D. P. O'Neill, R. A. DiStasio Jr., R. C. Lochan, T. Wang,
 G. J. O. Beran, N. A. Besley, J. M. Herbert, C. Y. Lin,
 T. Van Voorhis, S. H. Chien, A. Sodt, R. P. Steele, 
 V. A. Rassolov, P. E. Maslen, P. P. Korambath, R. D. Adamson,
 B. Austin, J. Baker, E. F. C. Byrd, H. Dachsel, R. J. Doerksen,
 A. Dreuw, B. D. Dunietz, A. D. Dutoi, T. R. Furlani,
 S. R. Gwaltney, A. Heyden, S. Hirata, C.-P. Hsu, G. Kedziora,
 R. Z. Khaliullin, P. Klunzinger, A. M. Lee, M. S. Lee, W. Liang,
 I. Lotan, N. Nair, B. Peters, E. I. Proynov, P. A. Pieniazek, 
 Y. M. Rhee, J. Ritchie, E. Rosta, C. D. Sherrill, 
 A. C. Simmonett, J. E. Subotnik, H. L. Woodcock III,
 W. Zhang, A. T. Bell, A. K. Chakraborty, D. M. Chipman,
 F. J. Keil, A. Warshel, W. J. Hehre, H. F. Schaefer III,
 J. Kong, A. I. Krylov, P. M. W. Gill, M. Head-Gordon,
 Q-Chem, Version 3.1, Q-Chem, Inc., Pittsburgh, PA (2007).

 Additional authors for Version 3.1: 
 Z. Gan, Y. Zhao, N. E. Schultz, D. Truhlar, E. Epifanovsky and M. Oana.

 Additional authors for Version 3.2: 
 R. Baer, B. R. Brooks, D. Casanova, J.-D. Chai, C.-L. Cheng, 
 C. Cramer, D. Crittenden, A. Ghysels, G. Hawkins, E. G. Hohenstein, 
 C. Kelley, W. Kurlancheek, D. Liotard, E. Livshits, P. Manohar, 
 A. Marenich, D. Neuhauser, R. Olson, M. A. Rohrdanz, K. S. Thanthiriwatte, 
 A. J. W. Thom, V. Vanovschi, C. F. Williams, Q. Wu and Z.-Q. You. 


 Intel X86 Linux Version

 Q-chem begins on Mon Jun  3 17:04:24 2013  

 Parallel job on  1  processors
Processing $rem in /usr/local/qchem/config/preferences.

theFileMan(): MAXOPENFILES=974 MAX_SUB_FILE_NUM=16
Maximum size of a physical file is 2.0 GB, maximum size of a tmp-file is 32.0 GB


--------------------------------------------------------------
User input:
--------------------------------------------------------------

$molecule
1,1
Si
X,1,1.
H,1,R,2,BETA
H,1,R,2,BETA,3,120.,0
H,1,R,2,BETA,3,-120.,0

 R=1.48898721
 BETA=108.02552928

$end

$comment
positive
$end

$xc_functional
C PBE   1.00
X wPBE  1.00
$end

$rem
SYMMETRY_DECOMPOSITION	0
LRC_DFT                 true
exchange 		general
BASIS                   g3large
omega			2000
mem_static              760
max_scf_cycles          200
scf_final_print         1
sym_ignore              true
$end

--------------------------------------------------------------
 Writing REM_CC_EA            4
 ----------------------------------------------------
       Standard Nuclear Orientation (Angstroms)
    I     Atom         X            Y            Z
 ----------------------------------------------------
    1      Si      0.000000     0.000000     0.000000
    2      H       1.415906     0.000000    -0.460753
    3      H      -0.707953    -1.226210    -0.460753
    4      H      -0.707953     1.226210    -0.460753
 ----------------------------------------------------
 Nuclear Repulsion Energy =    15.5738830141 hartrees
 There are        8 alpha and        8 beta electrons
 Requested basis set is G3large
 There are 37 shells and 96 basis functions

Total QAlloc Memory Limit   2000 MB
Mega-Array Size       743 MB
MEM_STATIC part       760 MB

                       Distance Matrix (Angstroms)
             Si(  1)   H (  2)   H (  3)
   H (  2)  1.488987
   H (  3)  1.488987  2.452421
   H (  4)  1.488987  2.452421  2.452421
 
 A cutoff of  1.0D-08 yielded    703 shell pairs
 There are   4798 function pairs (  6229 Cartesian)
Evaluating contribution to one-electron hamiltonian from nuclear
 Smallest overlap matrix eigenvalue = 1.72E-03
 Multipole matrices computed through 2nd order

  Scale SEOQF with 1.000000e-01/1.000000e-01/1.000000e-01

 Standard Electronic Orientation quadrupole field applied
 Nucleus-field energy     =     0.0000000003 hartrees
 Guess from superposition of atomic densities
 Warning:  Energy on first SCF cycle will be non-variational
 Long-range K will be added via erf
 Coulomb attenuation parameter = 2 bohr**(-1)
 A restricted Kohn-Sham SCF calculation will be
 performed using Pulay DIIS extrapolation
 Exchange:  wPBE + LR-HF      Correlation:  PBE
 Using SG-1 standard quadrature grid
 SCF converges when DIIS error is below 1.0E-05
 Requested basis set is G3large
 There are 37 shells and 96 basis functions
 A cutoff of  1.0D-08 yielded    703 shell pairs
 There are   4798 function pairs (  6229 Cartesian)
 Warning!  Inaccurate integrated density:
   Number of electrons =    16
   Numerical integral  =    16.999930810780
   Relative error      =     6.2495675674 %
 ---------------------------------------
  Cycle       Energy         DIIS Error
 ---------------------------------------
    1    -291.0874463213      2.60E-02
    2    -290.8985383173      4.74E-03
    3    -290.9484726822      1.22E-03
    4    -290.9505662520      3.69E-04
    5    -290.9507506916      6.94E-05
    6    -290.9507699666      1.92E-05
    7    -290.9507722986      6.68E-06 Convergence criterion met
 ---------------------------------------
 One-Electron    Energy =  -428.3875849452
 Total Coulomb   Energy =   143.6381432434
 Alpha Exchange  Energy =    -5.1953441997
 Beta  Exchange  Energy =    -5.1953441997
 DFT   Exchange  Energy =   -10.8262271077
 DFT Correlation Energy =    -0.5582981041
 Nuclear Repu.   Energy =    15.5738830143
 Nuclear Attr.   Energy =  -718.7393440660
 Kinetic         Energy =   290.3517591208
 SCF time:  CPU 14.42 s  wall 14.73 s
 Final Alpha MO Eigenvalues
            1           2           3           4           5           6
    1 -66.8204943  -6.2907687  -4.5097033  -4.5023502  -4.5023244  -1.0133759
            7           8           9          10          11          12
    1  -0.7894744  -0.7894591  -0.3077466  -0.1107913  -0.1107836  -0.1107199
           13
    1  -0.0650531
 Analysis of SCF Wavefunction
 
 --------------------------------------------------------------
                    Orbital Energies (a.u.)
 --------------------------------------------------------------
 
 Alpha MOs
 -- Occupied --
-66.820  -6.291  -4.510  -4.502  -4.502  -1.013  -0.789  -0.789
 -- Virtual --
 -0.308  -0.111  -0.111  -0.111  -0.065  -0.062  -0.062  -0.058
 -0.003  -0.003   0.003   0.003   0.014   0.103   0.153   0.153
  0.169   0.218   0.218   0.266   0.326   0.336   0.336   0.354
  0.354   0.358   0.420   0.569   0.569   0.590   0.590   0.591
  0.718   0.723   0.723   0.941   0.986   0.991   0.991   1.043
  1.043   1.144   1.211   1.211   1.262   1.443   1.443   2.007
  2.014   2.014   2.050   2.101   2.101   2.237   2.815   2.815
  2.948   3.508   3.509   3.587   3.791   3.792   4.020   4.026
  4.026   4.092   4.092   4.095   4.359   4.475   4.475   5.968
 11.522  11.615  11.615  17.767  17.776  17.811  18.001  18.067
 22.451  22.456  22.457  22.472  22.479  22.480  22.512 141.270
 --------------------------------------------------------------
 
          Ground-State Mulliken Net Atomic Charges

     Atom                 Charge (a.u.)
  ----------------------------------------
      1 Si                    0.718919
      2 H                     0.093713
      3 H                     0.093703
      4 H                     0.093665
  ----------------------------------------
  Sum of atomic charges =     1.000000

 -----------------------------------------------------------------
                    Cartesian Multipole Moments
 -----------------------------------------------------------------
    Charge (ESU x 10^10)
                 4.8032
    Dipole Moment (Debye)
         X       0.0001      Y      -0.0002      Z       0.8892
       Tot       0.8892
    Quadrupole Moments (Debye-Ang)
        XX     -11.0901     XY       0.0003     YY     -11.0897
        XZ       0.0014     YZ       0.0012     ZZ      -8.7793
    Octapole Moments (Debye-Ang^2)
       XXX       1.0021    XXY      -0.0002    XYY      -1.0023
       YYY      -0.0007    XXZ       0.4480    XYZ      -0.0005
       YYZ       0.4471    XZZ      -0.0003    YZZ      -0.0004
       ZZZ       4.7498
    Hexadecapole Moments (Debye-Ang^3)
      XXXX     -26.6540   XXXY       0.0005   XXYY      -8.8845
      XYYY       0.0007   YYYY     -26.6527   XXXZ      -1.4052
      XXYZ       0.0006   XYYZ       1.4078   YYYZ       0.0019
      XXZZ      -6.3156   XYZZ       0.0003   YYZZ      -6.3151
      XZZZ       0.0018   YZZZ       0.0016   ZZZZ     -11.3780
 -----------------------------------------------------------------
 Total job time:  14.84s(wall), 14.52s(cpu) 
 Mon Jun  3 17:04:39 2013

        *************************************************************
        *                                                           *
        *  Thank you very much for using Q-Chem.  Have a nice day.  *
        *                                                           *
        *************************************************************


0 sent ACK to 0 
now end server 0 ... 
