Process 0 of 1 is on cl205.stfx.acenet.ca - thread support 1
initial socket setup ...start
initial socket setup ...done 
now start server 0 ... 

cmd = /usr/bin/ssh clhead /usr/local/qchem/bin/get_hostid 321712483 > /scratch/tmp/4825303.1.medium.q/qchem13891/lic.dat
                  Welcome to Q-Chem
     A Quantum Leap Into The Future Of Chemistry

 Y. Shao, L. Fusti-Molnar, Y. Jung, J. Kussmann, C. Ochsenfeld,
 S. T. Brown, A. T. B. Gilbert, L. V. Slipchenko,S. V. Levchenko,
 D. P. O'Neill, R. A. DiStasio Jr., R. C. Lochan, T. Wang,
 G. J. O. Beran, N. A. Besley, J. M. Herbert, C. Y. Lin,
 T. Van Voorhis, S. H. Chien, A. Sodt, R. P. Steele, 
 V. A. Rassolov, P. E. Maslen, P. P. Korambath, R. D. Adamson,
 B. Austin, J. Baker, E. F. C. Byrd, H. Dachsel, R. J. Doerksen,
 A. Dreuw, B. D. Dunietz, A. D. Dutoi, T. R. Furlani,
 S. R. Gwaltney, A. Heyden, S. Hirata, C.-P. Hsu, G. Kedziora,
 R. Z. Khaliullin, P. Klunzinger, A. M. Lee, M. S. Lee, W. Liang,
 I. Lotan, N. Nair, B. Peters, E. I. Proynov, P. A. Pieniazek, 
 Y. M. Rhee, J. Ritchie, E. Rosta, C. D. Sherrill, 
 A. C. Simmonett, J. E. Subotnik, H. L. Woodcock III,
 W. Zhang, A. T. Bell, A. K. Chakraborty, D. M. Chipman,
 F. J. Keil, A. Warshel, W. J. Hehre, H. F. Schaefer III,
 J. Kong, A. I. Krylov, P. M. W. Gill, M. Head-Gordon,
 Q-Chem, Version 3.1, Q-Chem, Inc., Pittsburgh, PA (2007).

 Additional authors for Version 3.1: 
 Z. Gan, Y. Zhao, N. E. Schultz, D. Truhlar, E. Epifanovsky and M. Oana.

 Additional authors for Version 3.2: 
 R. Baer, B. R. Brooks, D. Casanova, J.-D. Chai, C.-L. Cheng, 
 C. Cramer, D. Crittenden, A. Ghysels, G. Hawkins, E. G. Hohenstein, 
 C. Kelley, W. Kurlancheek, D. Liotard, E. Livshits, P. Manohar, 
 A. Marenich, D. Neuhauser, R. Olson, M. A. Rohrdanz, K. S. Thanthiriwatte, 
 A. J. W. Thom, V. Vanovschi, C. F. Williams, Q. Wu and Z.-Q. You. 


 Intel X86 Linux Version

 Q-chem begins on Mon Nov 14 15:02:23 2011  

 Parallel job on  1  processors
Processing $rem in /usr/local/qchem/config/preferences.

theFileMan(): MAXOPENFILES=974 MAX_SUB_FILE_NUM=16
Maximum size of a physical file is 2.0 GB, maximum size of a tmp-file is 32.0 GB


--------------------------------------------------------------
User input:
--------------------------------------------------------------

$molecule
-1,3
S
H,1,R

R=1.35543613

$end


$comment
spin check
$end

$rem
   EXCHANGE B3LYP
   UNRESTRICTED TRUE
   BASIS G3large 
   SCF_PRINT 1
   PDB_PRINT 2
   INCDFT false
   VARTHRESH 0
   MAX_SCF_CYCLES 1000
   MEM_STATIC 256
   MEM_TOTAL 3000
   THRESH 140
   ITHRSH 14
   XC_GRID 75000302
   SCF_CONVERGENCE 6
$end

--------------------------------------------------------------
 Writing REM_CC_EA            0
 ----------------------------------------------------
       Standard Nuclear Orientation (Angstroms)
    I     Atom         X            Y            Z
 ----------------------------------------------------
    1      S       0.000000     0.000000    -0.079732
    2      H       0.000000     0.000000     1.275705
 ----------------------------------------------------
 Molecular Point Group                 C*v   NOp =***
 Largest Abelian Subgroup              C2v   NOp =  1
 Nuclear Repulsion Energy =     6.2465764232 hartrees
 There are       10 alpha and        8 beta electrons
 Requested basis set is G3large
 There are 25 shells and 76 basis functions

Total QAlloc Memory Limit   3000 MB
Mega-Array Size       251 MB
MEM_STATIC part       256 MB

                       Distance Matrix (Angstroms)
             S (  1)
   H (  2)  1.355436
 
 A cutoff of  1.0D-14 yielded    325 shell pairs
 There are   3056 function pairs (  4227 Cartesian)
Evaluating contribution to one-electron hamiltonian from nuclear
 Smallest overlap matrix eigenvalue = 3.71E-03
 Multipole matrices computed through 2nd order

  Scale SEOQF with 1.000000e-01/1.000000e-01/1.000000e-01

 Standard Electronic Orientation quadrupole field applied
 Nucleus-field energy     =    -0.0000000002 hartrees
 Guess from superposition of atomic densities
 Warning:  Energy on first SCF cycle will be non-variational
 An unrestricted hybrid HF-DFT SCF calculation will be
 performed using Pulay DIIS extrapolation
 Exchange:     0.2000 Hartree-Fock + 0.0800 Slater + 0.7200 Becke88
 Correlation:  0.8100 LYP + 0.1900 VWN1RPA
 Using Euler-Maclaurin-Lebedev (75,302) quadrature formula
 SCF converges when DIIS error is below 1.0E-06
 Maximum number of SCF iterations = 1000

NRad = 75 NAng = 302
 Warning!  Inaccurate integrated density:
   Number of electrons =    18
   Numerical integral  =    17.000001262880
   Relative error      =    -5.5555485396 %
 ---------------------------------------
  Cycle       Energy         DIIS Error
 ---------------------------------------
    1    -398.7157126775      2.51E-02

NRad = 75 NAng = 302
    2    -398.7123801841      3.37E-03

NRad = 75 NAng = 302
    3    -398.7297121632      4.47E-03

NRad = 75 NAng = 302
    4    -398.7493183163      7.70E-04

NRad = 75 NAng = 302
    5    -398.7502977169      2.34E-04

NRad = 75 NAng = 302
    6    -398.7504412948      1.15E-04

NRad = 75 NAng = 302
    7    -398.7504588793      9.82E-06

NRad = 75 NAng = 302
    8    -398.7504604656      3.12E-06

NRad = 75 NAng = 302
    9    -398.7504606167      7.68E-07 Convergence criterion met
 ---------------------------------------
 One-Electron    Energy =  -565.6927159122
 Total Coulomb   Energy =   186.8327106749
 Alpha Exchange  Energy =    -2.6003435264
 Beta  Exchange  Energy =    -2.4857855641
 DFT   Exchange  Energy =   -20.1908938494
 DFT Correlation Energy =    -0.8600088625
 Nuclear Repu.   Energy =     6.2465764230
 Nuclear Attr.   Energy =  -963.9636638613
 Kinetic         Energy =   398.2709479491
 <S^2> = 2.0040
 SCF time:  CPU 14.45 s  wall 24.88 s
 Analysis of SCF Wavefunction
 
 --------------------------------------------------------------
                    Orbital Energies (a.u.)
 --------------------------------------------------------------
 
 Alpha MOs
 -- Occupied --
-88.708  -7.793  -5.763  -5.752  -5.745  -0.566  -0.242  -0.156
 -0.111   0.077
 -- Virtual --
  0.149   0.168   0.174   0.191   0.231   0.348   0.370   0.373
  0.374   0.414   0.524   0.525   0.545   0.682   0.909   0.921
  0.925   1.004   1.017   1.017   1.022   1.023   1.079   1.106
  1.108   1.109   1.294   1.359   1.376   1.631   1.892   1.927
  2.152   2.872   3.428   3.513   3.540   3.595   3.596   3.596
  3.598   4.105   4.115   4.409   4.658   4.658   4.675   4.697
  5.373   8.138  17.213  17.232  17.382  23.663  23.663  23.664
 23.676  23.933  31.112  31.114  31.115  31.116  31.118  31.126
 31.143 189.258
 
 Beta MOs
 -- Occupied --
-88.702  -7.786  -5.748  -5.744  -5.742  -0.522  -0.225  -0.096
 -- Virtual --
 -0.014   0.125   0.172   0.179   0.182   0.204   0.253   0.374
  0.378   0.402   0.405   0.427   0.535   0.550   0.555   0.694
  0.928   0.930   0.943   1.021   1.033   1.035   1.047   1.048
  1.113   1.116   1.143   1.146   1.309   1.381   1.383   1.647
  1.935   1.938   2.160   2.876   3.448   3.547   3.550   3.630
  3.632   3.643   3.644   4.116   4.117   4.418   4.672   4.674
  4.690   4.699   5.385   8.150  17.237  17.238  17.387  23.675
 23.675  23.675  23.679  23.938  31.117  31.118  31.119  31.120
 31.122  31.127  31.145 189.264
 --------------------------------------------------------------
 
          Ground-State Mulliken Net Atomic Charges

     Atom                 Charge (a.u.)    Spin (a.u.)
  --------------------------------------------------------
      1 S                     1.070725      -0.225820
      2 H                    -2.070725       2.225820
  --------------------------------------------------------
  Sum of atomic charges =    -1.000000
  Sum of spin   charges =     2.000000

 -----------------------------------------------------------------
                    Cartesian Multipole Moments
 -----------------------------------------------------------------
    Charge (ESU x 10^10)
                -4.8032
    Dipole Moment (Debye)
         X       0.0000      Y       0.0000      Z      -4.9474
       Tot       4.9474
    Quadrupole Moments (Debye-Ang)
        XX     -26.6247     XY       1.5042     YY     -26.7709
        XZ       0.0000     YZ       0.0000     ZZ     -48.0738
    Octapole Moments (Debye-Ang^2)
       XXX      -0.0001    XXY       0.0000    XYY       0.0000
       YYY       0.0001    XXZ     -14.7780    XYZ      -0.0634
       YYZ     -14.7718    XZZ      -0.0001    YZZ       0.0000
       ZZZ     -79.8582
    Hexadecapole Moments (Debye-Ang^3)
      XXXX    -108.0394   XXXY       2.5366   XXYY     -36.0939
      XYYY       2.5364   YYYY    -108.5325   XXXZ       0.0000
      XXYZ       0.0000   XYYZ       0.0000   YYYZ       0.0000
      XXZZ     -87.7910   XYZZ       0.8807   YYZZ     -87.8766
      XZZZ       0.0000   YZZZ       0.0000   ZZZZ    -495.8365
 -----------------------------------------------------------------
 Total job time:  25.25s(wall), 14.77s(cpu) 
 Mon Nov 14 15:02:48 2011

        *************************************************************
        *                                                           *
        *  Thank you very much for using Q-Chem.  Have a nice day.  *
        *                                                           *
        *************************************************************


0 sent ACK to 0 
now end server 0 ... 
