Process 0 of 1 is on cl011.stfx.acenet.ca - thread support 1
initial socket setup ...start
initial socket setup ...done 
now start server 0 ... 

cmd = /usr/bin/ssh clhead /usr/local/qchem/bin/get_hostid 1266917691 > /scratch/tmp/6064725.1.short.q/qchem23457/lic.dat
                  Welcome to Q-Chem
     A Quantum Leap Into The Future Of Chemistry

 Y. Shao, L. Fusti-Molnar, Y. Jung, J. Kussmann, C. Ochsenfeld,
 S. T. Brown, A. T. B. Gilbert, L. V. Slipchenko,S. V. Levchenko,
 D. P. O'Neill, R. A. DiStasio Jr., R. C. Lochan, T. Wang,
 G. J. O. Beran, N. A. Besley, J. M. Herbert, C. Y. Lin,
 T. Van Voorhis, S. H. Chien, A. Sodt, R. P. Steele, 
 V. A. Rassolov, P. E. Maslen, P. P. Korambath, R. D. Adamson,
 B. Austin, J. Baker, E. F. C. Byrd, H. Dachsel, R. J. Doerksen,
 A. Dreuw, B. D. Dunietz, A. D. Dutoi, T. R. Furlani,
 S. R. Gwaltney, A. Heyden, S. Hirata, C.-P. Hsu, G. Kedziora,
 R. Z. Khaliullin, P. Klunzinger, A. M. Lee, M. S. Lee, W. Liang,
 I. Lotan, N. Nair, B. Peters, E. I. Proynov, P. A. Pieniazek, 
 Y. M. Rhee, J. Ritchie, E. Rosta, C. D. Sherrill, 
 A. C. Simmonett, J. E. Subotnik, H. L. Woodcock III,
 W. Zhang, A. T. Bell, A. K. Chakraborty, D. M. Chipman,
 F. J. Keil, A. Warshel, W. J. Hehre, H. F. Schaefer III,
 J. Kong, A. I. Krylov, P. M. W. Gill, M. Head-Gordon,
 Q-Chem, Version 3.1, Q-Chem, Inc., Pittsburgh, PA (2007).

 Additional authors for Version 3.1: 
 Z. Gan, Y. Zhao, N. E. Schultz, D. Truhlar, E. Epifanovsky and M. Oana.

 Additional authors for Version 3.2: 
 R. Baer, B. R. Brooks, D. Casanova, J.-D. Chai, C.-L. Cheng, 
 C. Cramer, D. Crittenden, A. Ghysels, G. Hawkins, E. G. Hohenstein, 
 C. Kelley, W. Kurlancheek, D. Liotard, E. Livshits, P. Manohar, 
 A. Marenich, D. Neuhauser, R. Olson, M. A. Rohrdanz, K. S. Thanthiriwatte, 
 A. J. W. Thom, V. Vanovschi, C. F. Williams, Q. Wu and Z.-Q. You. 


 Intel X86 Linux Version

 Q-chem begins on Mon Jul  8 12:24:21 2013  

 Parallel job on  1  processors
Processing $rem in /usr/local/qchem/config/preferences.

theFileMan(): MAXOPENFILES=974 MAX_SUB_FILE_NUM=16
Maximum size of a physical file is 2.0 GB, maximum size of a tmp-file is 32.0 GB


--------------------------------------------------------------
User input:
--------------------------------------------------------------

$molecule
-1,2
Si         0.00012        0.00000       -0.00018
F          0.00000        0.00000        1.54969
F          1.46108        0.00000       -0.51646
F         -0.73061       -1.26568       -0.51651
F         -0.73061        1.26568       -0.51651
$end

$comment
negative
$end

$xc_functional
C PBE   1.00
X wPBE  1.00
$end

$rem
SYMMETRY_DECOMPOSITION	0
exchange 		general
LRC_DFT                 true
BASIS                   g3large
omega			500
mem_static              760
max_scf_cycles          200
scf_final_print         1
sym_ignore              true
$end

--------------------------------------------------------------
 Writing REM_CC_EA            5
 ----------------------------------------------------
       Standard Nuclear Orientation (Angstroms)
    I     Atom         X            Y            Z
 ----------------------------------------------------
    1      Si      0.000120     0.000000    -0.000180
    2      F       0.000000     0.000000     1.549690
    3      F       1.461080     0.000000    -0.516460
    4      F      -0.730610    -1.265680    -0.516510
    5      F      -0.730610     1.265680    -0.516510
 ----------------------------------------------------
 Nuclear Repulsion Energy =   273.7019883780 hartrees
 There are       26 alpha and       25 beta electrons
 Requested basis set is G3large
 There are 59 shells and 234 basis functions

Total QAlloc Memory Limit   2000 MB
Mega-Array Size       743 MB
MEM_STATIC part       760 MB

                       Distance Matrix (Angstroms)
             Si(  1)   F (  2)   F (  3)   F (  4)
   F (  2)  1.549870
   F (  3)  1.549500  2.530559
   F (  4)  1.550003  2.530794  2.530899
   F (  5)  1.550003  2.530794  2.530899  2.531360
 
 A cutoff of  1.0D-08 yielded   1440 shell pairs
 There are  23327 function pairs ( 31304 Cartesian)
Evaluating contribution to one-electron hamiltonian from nuclear
 Smallest overlap matrix eigenvalue = 1.26E-04
 Multipole matrices computed through 2nd order

  Scale SEOQF with 1.000000e-01/1.000000e-01/1.000000e-01

 Standard Electronic Orientation quadrupole field applied
 Guess from superposition of atomic densities
 Warning:  Energy on first SCF cycle will be non-variational
 Long-range K will be added via erf
 Coulomb attenuation parameter = 0.5 bohr**(-1)
 An unrestricted Kohn-Sham SCF calculation will be
 performed using Pulay DIIS extrapolation
 Exchange:  wPBE + LR-HF      Correlation:  PBE
 Using SG-1 standard quadrature grid
 SCF converges when DIIS error is below 1.0E-05
 Requested basis set is G3large
 There are 59 shells and 234 basis functions
 A cutoff of  1.0D-08 yielded   1440 shell pairs
 There are  23327 function pairs ( 31304 Cartesian)
 Warning!  Inaccurate integrated density:
   Number of electrons =    51
   Numerical integral  =    50.000212189660
   Relative error      =    -1.9603682556 %
 ---------------------------------------
  Cycle       Energy         DIIS Error
 ---------------------------------------
    1    -689.5576384129      2.88E-02
    2    -688.7968005281      5.48E-03
    3    -688.8525727150      5.36E-03
    4    -688.9508788419      3.45E-04
    5    -688.9551463170      1.69E-04
    6    -688.9564045651      1.05E-04
    7    -688.9569112306      4.30E-05
    8    -688.9570589383      9.53E-06 Convergence criterion met
 ---------------------------------------
 One-Electron    Energy = -1512.2619183408
 Total Coulomb   Energy =   612.4769408608
 Alpha Exchange  Energy =    -6.4812984917
 Beta  Exchange  Energy =    -6.4020858052
 DFT   Exchange  Energy =   -48.1943026215
 DFT Correlation Energy =    -1.7963829180
 Nuclear Repu.   Energy =   273.7019883780
 Nuclear Attr.   Energy = -2200.1209181950
 Kinetic         Energy =   687.8589998543
 <S^2> = 0.7505
 SCF time:  CPU 168.52 s  wall 168.74 s
 Final Alpha MO Eigenvalues
            1           2           3           4           5           6
    1 -65.6322266 -24.3850827 -24.3849881 -24.3849075 -24.3848832  -5.2838635
            7           8           9          10          11          12
    1  -3.6803015  -3.6802759  -3.6802716  -1.2742241  -1.2310145  -1.2309434
           13          14          15          16          17          18
    1  -1.2308581  -0.6156835  -0.5440078  -0.5439497  -0.5439198  -0.4888769
           19          20          21          22          23          24
    1  -0.4888711  -0.4763252  -0.4763084  -0.4762924  -0.4347344  -0.4347103
           25          26          27          28          29          30
    1  -0.4346458   0.0393168   0.1631398   0.1631571   0.1631665   0.3401565
           31
    1   0.3413179
 Final Beta MO Eigenvalues
            1           2           3           4           5           6
    1 -65.6320352 -24.3847335 -24.3846404 -24.3845586 -24.3845355  -5.2835993
            7           8           9          10          11          12
    1  -3.6800240  -3.6799990  -3.6799951  -1.2729041  -1.2296797  -1.2296070
           13          14          15          16          17          18
    1  -1.2295231  -0.6143935  -0.5430685  -0.5430147  -0.5429885  -0.4884932
           19          20          21          22          23          24
    1  -0.4884867  -0.4748673  -0.4748479  -0.4748322  -0.4351448  -0.4351245
           25          26          27          28          29          30
    1  -0.4350611   0.1764242   0.1801549   0.1801845   0.1802182   0.3483039
 Analysis of SCF Wavefunction
 
 --------------------------------------------------------------
                    Orbital Energies (a.u.)
 --------------------------------------------------------------
 
 Alpha MOs
 -- Occupied --
-65.632 -24.385 -24.385 -24.385 -24.385  -5.284  -3.680  -3.680
 -3.680  -1.274  -1.231  -1.231  -1.231  -0.616  -0.544  -0.544
 -0.544  -0.489  -0.489  -0.476  -0.476  -0.476  -0.435  -0.435
 -0.435   0.039
 -- Virtual --
  0.163   0.163   0.163   0.340   0.341   0.341   0.341   0.418
  0.418   0.419   0.420   0.420   0.466   0.466   0.466   0.467
  0.523   0.523   0.523   0.587   0.611   0.611   0.611   0.617
  0.617   0.617   0.641   0.641   0.819   0.819   0.819   0.903
  0.937   0.937   0.937   0.983   0.983   0.983   1.083   1.083
  1.122   1.277   1.277   1.277   1.603   1.603   1.640   1.640
  1.641   1.659   1.659   1.659   1.685   1.703   1.703   1.703
  1.827   1.828   1.828   1.994   1.994   1.994   2.202   2.202
  2.202   2.285   2.285   2.352   2.352   2.352   2.364   2.364
  2.364   2.416   2.518   2.518   2.518   2.768   2.768   2.795
  2.970   2.970   2.970   3.192   3.192   3.192   3.456   3.456
  3.457   3.600   4.039   4.040   4.457   4.458   4.460   6.210
  6.407   6.407   6.516   6.516   6.516   6.535   6.535   6.535
  6.691   6.691   6.692   6.844   6.847   6.847   6.849   6.849
  6.849   6.877   6.885   6.885   6.885   6.894   6.894   6.894
  6.920   6.942   6.942   6.943   6.994   6.995   6.995   7.089
  7.089   7.212   7.212   7.212   7.417   7.418   7.418   7.835
  9.292   9.292   9.317   9.317   9.318   9.425   9.425   9.425
  9.593   9.593   9.593   9.675   9.676   9.676   9.716   9.716
  9.968   9.968   9.968  10.368  12.555  12.555  12.556  17.796
 17.858  18.001  18.063  18.137  22.355  22.359  22.364  22.368
 22.374  22.374  22.438  50.279  50.286  50.287  50.310  50.317
 50.337  50.354  50.366  50.412  50.420  50.425  50.431  50.433
 50.449  50.458  50.465  50.621  50.637  50.656  50.658  55.781
 55.781  55.843  55.843  55.843  55.882  55.882  55.882  56.070
 56.071  56.071  56.086  66.839  66.839  66.839  66.957 142.028
 
 Beta MOs
 -- Occupied --
-65.632 -24.385 -24.385 -24.385 -24.385  -5.284  -3.680  -3.680
 -3.680  -1.273  -1.230  -1.230  -1.230  -0.614  -0.543  -0.543
 -0.543  -0.488  -0.488  -0.475  -0.475  -0.475  -0.435  -0.435
 -0.435
 -- Virtual --
  0.176   0.180   0.180   0.180   0.348   0.348   0.349   0.362
  0.421   0.421   0.423   0.423   0.423   0.468   0.469   0.469
  0.469   0.522   0.522   0.522   0.590   0.611   0.612   0.612
  0.615   0.615   0.615   0.644   0.644   0.818   0.818   0.818
  0.904   0.938   0.938   0.938   0.983   0.984   0.984   1.084
  1.084   1.122   1.278   1.278   1.279   1.603   1.603   1.641
  1.641   1.641   1.659   1.659   1.659   1.685   1.704   1.704
  1.704   1.827   1.827   1.827   1.994   1.994   1.994   2.203
  2.203   2.203   2.285   2.285   2.352   2.352   2.353   2.363
  2.363   2.364   2.418   2.518   2.519   2.519   2.768   2.768
  2.798   2.971   2.971   2.971   3.193   3.194   3.194   3.456
  3.457   3.457   3.601   4.040   4.041   4.458   4.458   4.460
  6.211   6.407   6.407   6.516   6.516   6.516   6.535   6.535
  6.535   6.692   6.692   6.692   6.845   6.847   6.847   6.849
  6.849   6.849   6.877   6.885   6.885   6.885   6.893   6.894
  6.894   6.920   6.942   6.943   6.943   6.995   6.995   6.995
  7.089   7.089   7.212   7.212   7.213   7.418   7.419   7.419
  7.836   9.292   9.292   9.318   9.318   9.318   9.425   9.426
  9.426   9.594   9.594   9.594   9.676   9.676   9.677   9.717
  9.717   9.969   9.969   9.969  10.369  12.555  12.556  12.557
 17.797  17.858  18.002  18.063  18.137  22.355  22.360  22.364
 22.368  22.374  22.375  22.438  50.279  50.285  50.287  50.309
 50.316  50.336  50.354  50.365  50.411  50.420  50.425  50.430
 50.433  50.448  50.457  50.465  50.621  50.637  50.656  50.658
 55.781  55.781  55.843  55.843  55.843  55.882  55.882  55.882
 56.071  56.071  56.072  56.087  66.839  66.839  66.839  66.957
142.028
 --------------------------------------------------------------
 
          Ground-State Mulliken Net Atomic Charges

     Atom                 Charge (a.u.)    Spin (a.u.)
  --------------------------------------------------------
      1 Si                   -1.011976       3.129275
      2 F                     0.002765      -0.532316
      3 F                     0.002700      -0.531517
      4 F                     0.004493      -0.534143
      5 F                     0.002018      -0.531299
  --------------------------------------------------------
  Sum of atomic charges =    -1.000000
  Sum of spin   charges =     1.000000

 -----------------------------------------------------------------
                    Cartesian Multipole Moments
 -----------------------------------------------------------------
    Charge (ESU x 10^10)
                -4.8032
    Dipole Moment (Debye)
         X      -0.0583      Y      -0.0538      Z       0.0257
       Tot       0.0834
    Quadrupole Moments (Debye-Ang)
        XX     -50.3023     XY      -0.0078     YY     -50.3254
        XZ      -0.0069     YZ      -0.0058     ZZ     -50.3233
    Octapole Moments (Debye-Ang^2)
       XXX      -2.0089    XXY      -0.1817    XYY       1.2121
       YYY      -0.5450    XXZ       1.0841    XYZ       0.0020
       YYZ       1.0926    XZZ      -0.2001    YZZ      -0.1831
       ZZZ      -1.7305
    Hexadecapole Moments (Debye-Ang^3)
      XXXX    -280.3905   XXXY      -0.0253   XXYY     -93.5384
      XYYY      -0.0588   YYYY    -280.6451   XXXZ       1.4336
      XXYZ      -0.0139   XYYZ      -1.5042   YYYZ      -0.0418
      XXZZ     -92.4378   XYZZ      -0.0115   YYZZ     -92.4722
      XZZZ      -0.0077   YZZZ      -0.0128   ZZZZ    -281.6737
 -----------------------------------------------------------------
 Total job time:  169.15s(wall), 168.91s(cpu) 
 Mon Jul  8 12:27:10 2013

        *************************************************************
        *                                                           *
        *  Thank you very much for using Q-Chem.  Have a nice day.  *
        *                                                           *
        *************************************************************


0 sent ACK to 0 
now end server 0 ... 
 
**********************************************************************
Job 2 of 3 
**********************************************************************
 
Process 0 of 1 is on cl011.stfx.acenet.ca - thread support 1
initial socket setup ...start
initial socket setup ...done 
now start server 0 ... 

cmd = /usr/bin/ssh clhead /usr/local/qchem/bin/get_hostid 493317147 > /scratch/tmp/6064725.1.short.q/qchem23457/lic.dat
                  Welcome to Q-Chem
     A Quantum Leap Into The Future Of Chemistry

 Y. Shao, L. Fusti-Molnar, Y. Jung, J. Kussmann, C. Ochsenfeld,
 S. T. Brown, A. T. B. Gilbert, L. V. Slipchenko,S. V. Levchenko,
 D. P. O'Neill, R. A. DiStasio Jr., R. C. Lochan, T. Wang,
 G. J. O. Beran, N. A. Besley, J. M. Herbert, C. Y. Lin,
 T. Van Voorhis, S. H. Chien, A. Sodt, R. P. Steele, 
 V. A. Rassolov, P. E. Maslen, P. P. Korambath, R. D. Adamson,
 B. Austin, J. Baker, E. F. C. Byrd, H. Dachsel, R. J. Doerksen,
 A. Dreuw, B. D. Dunietz, A. D. Dutoi, T. R. Furlani,
 S. R. Gwaltney, A. Heyden, S. Hirata, C.-P. Hsu, G. Kedziora,
 R. Z. Khaliullin, P. Klunzinger, A. M. Lee, M. S. Lee, W. Liang,
 I. Lotan, N. Nair, B. Peters, E. I. Proynov, P. A. Pieniazek, 
 Y. M. Rhee, J. Ritchie, E. Rosta, C. D. Sherrill, 
 A. C. Simmonett, J. E. Subotnik, H. L. Woodcock III,
 W. Zhang, A. T. Bell, A. K. Chakraborty, D. M. Chipman,
 F. J. Keil, A. Warshel, W. J. Hehre, H. F. Schaefer III,
 J. Kong, A. I. Krylov, P. M. W. Gill, M. Head-Gordon,
 Q-Chem, Version 3.1, Q-Chem, Inc., Pittsburgh, PA (2007).

 Additional authors for Version 3.1: 
 Z. Gan, Y. Zhao, N. E. Schultz, D. Truhlar, E. Epifanovsky and M. Oana.

 Additional authors for Version 3.2: 
 R. Baer, B. R. Brooks, D. Casanova, J.-D. Chai, C.-L. Cheng, 
 C. Cramer, D. Crittenden, A. Ghysels, G. Hawkins, E. G. Hohenstein, 
 C. Kelley, W. Kurlancheek, D. Liotard, E. Livshits, P. Manohar, 
 A. Marenich, D. Neuhauser, R. Olson, M. A. Rohrdanz, K. S. Thanthiriwatte, 
 A. J. W. Thom, V. Vanovschi, C. F. Williams, Q. Wu and Z.-Q. You. 


 Intel X86 Linux Version

 Q-chem begins on Mon Jul  8 12:27:13 2013  

 Parallel job on  1  processors
Processing $rem in /usr/local/qchem/config/preferences.

theFileMan(): MAXOPENFILES=974 MAX_SUB_FILE_NUM=16
Maximum size of a physical file is 2.0 GB, maximum size of a tmp-file is 32.0 GB


--------------------------------------------------------------
User input:
--------------------------------------------------------------

$molecule
0,1
Si         0.00012        0.00000       -0.00018
F          0.00000        0.00000        1.54969
F          1.46108        0.00000       -0.51646
F         -0.73061       -1.26568       -0.51651
F         -0.73061        1.26568       -0.51651
$end

$comment
neutral
$end

$xc_functional
C PBE   1.00
X wPBE  1.00
$end


$rem
SYMMETRY_DECOMPOSITION	0
LRC_DFT                 true
exchange 		general
BASIS                   g3large
omega			500
mem_static              760
max_scf_cycles          200
scf_final_print         1
sym_ignore              true
$end

--------------------------------------------------------------
 Writing REM_CC_EA            5
 ----------------------------------------------------
       Standard Nuclear Orientation (Angstroms)
    I     Atom         X            Y            Z
 ----------------------------------------------------
    1      Si      0.000120     0.000000    -0.000180
    2      F       0.000000     0.000000     1.549690
    3      F       1.461080     0.000000    -0.516460
    4      F      -0.730610    -1.265680    -0.516510
    5      F      -0.730610     1.265680    -0.516510
 ----------------------------------------------------
 Nuclear Repulsion Energy =   273.7019883780 hartrees
 There are       25 alpha and       25 beta electrons
 Requested basis set is G3large
 There are 59 shells and 234 basis functions

Total QAlloc Memory Limit   2000 MB
Mega-Array Size       743 MB
MEM_STATIC part       760 MB

                       Distance Matrix (Angstroms)
             Si(  1)   F (  2)   F (  3)   F (  4)
   F (  2)  1.549870
   F (  3)  1.549500  2.530559
   F (  4)  1.550003  2.530794  2.530899
   F (  5)  1.550003  2.530794  2.530899  2.531360
 
 A cutoff of  1.0D-08 yielded   1440 shell pairs
 There are  23327 function pairs ( 31304 Cartesian)
Evaluating contribution to one-electron hamiltonian from nuclear
 Smallest overlap matrix eigenvalue = 1.26E-04
 Multipole matrices computed through 2nd order

  Scale SEOQF with 1.000000e-01/1.000000e-01/1.000000e-01

 Standard Electronic Orientation quadrupole field applied
 Guess from superposition of atomic densities
 Warning:  Energy on first SCF cycle will be non-variational
 Long-range K will be added via erf
 Coulomb attenuation parameter = 0.5 bohr**(-1)
 A restricted Kohn-Sham SCF calculation will be
 performed using Pulay DIIS extrapolation
 Exchange:  wPBE + LR-HF      Correlation:  PBE
 Using SG-1 standard quadrature grid
 SCF converges when DIIS error is below 1.0E-05
 Requested basis set is G3large
 There are 59 shells and 234 basis functions
 A cutoff of  1.0D-08 yielded   1440 shell pairs
 There are  23327 function pairs ( 31304 Cartesian)
 ---------------------------------------
  Cycle       Energy         DIIS Error
 ---------------------------------------
    1    -689.5576384129      2.88E-02
    2    -688.8840314540      5.17E-03
    3    -688.9284954082      4.64E-03
    4    -689.0001567564      3.15E-04
    5    -689.0006294319      8.76E-05
    6    -689.0006771277      4.37E-05
    7    -689.0006848894      1.13E-05
    8    -689.0006853658      1.77E-06 Convergence criterion met
 ---------------------------------------
 One-Electron    Energy = -1503.5184888084
 Total Coulomb   Energy =   603.5901234316
 Alpha Exchange  Energy =    -6.4036685051
 Beta  Exchange  Energy =    -6.4036685051
 DFT   Exchange  Energy =   -48.1803406604
 DFT Correlation Energy =    -1.7866306964
 Nuclear Repu.   Energy =   273.7019883780
 Nuclear Attr.   Energy = -2191.1773888879
 Kinetic         Energy =   687.6589000796
 SCF time:  CPU 132.62 s  wall 133.81 s
 Final Alpha MO Eigenvalues
            1           2           3           4           5           6
    1 -65.8127153 -24.5603224 -24.5601701 -24.5601594 -24.5601523  -5.4642261
            7           8           9          10          11          12
    1  -3.8606602  -3.8606310  -3.8606284  -1.4492655  -1.4052971  -1.4051246
           13          14          15          16          17          18
    1  -1.4051202  -0.7882721  -0.7172315  -0.7171806  -0.7171691  -0.6632195
           19          20          21          22          23          24
    1  -0.6632129  -0.6488129  -0.6487962  -0.6487810  -0.6092902  -0.6092733
           25          26          27          28          29          30
    1  -0.6092011   0.0483098   0.0664295   0.0664345   0.0664369   0.2009310
 Analysis of SCF Wavefunction
 
 --------------------------------------------------------------
                    Orbital Energies (a.u.)
 --------------------------------------------------------------
 
 Alpha MOs
 -- Occupied --
-65.813 -24.560 -24.560 -24.560 -24.560  -5.464  -3.861  -3.861
 -3.861  -1.449  -1.405  -1.405  -1.405  -0.788  -0.717  -0.717
 -0.717  -0.663  -0.663  -0.649  -0.649  -0.649  -0.609  -0.609
 -0.609
 -- Virtual --
  0.048   0.066   0.066   0.066   0.201   0.206   0.206   0.206
  0.279   0.279   0.281   0.281   0.281   0.314   0.314   0.314
  0.327   0.380   0.380   0.380   0.430   0.452   0.452   0.452
  0.474   0.474   0.474   0.476   0.476   0.665   0.665   0.665
  0.744   0.771   0.771   0.771   0.822   0.822   0.822   0.913
  0.913   0.958   1.102   1.102   1.102   1.437   1.437   1.477
  1.477   1.478   1.492   1.492   1.492   1.526   1.535   1.535
  1.535   1.660   1.660   1.660   1.818   1.818   1.818   2.030
  2.030   2.030   2.112   2.112   2.179   2.179   2.179   2.190
  2.190   2.190   2.244   2.345   2.345   2.345   2.593   2.594
  2.619   2.795   2.795   2.795   3.016   3.017   3.017   3.282
  3.283   3.283   3.428   3.860   3.862   4.281   4.282   4.284
  6.036   6.234   6.234   6.343   6.343   6.343   6.362   6.362
  6.362   6.518   6.518   6.518   6.670   6.673   6.673   6.674
  6.675   6.675   6.702   6.711   6.711   6.711   6.719   6.719
  6.719   6.745   6.768   6.768   6.768   6.820   6.821   6.821
  6.914   6.915   7.037   7.038   7.038   7.242   7.243   7.243
  7.659   9.118   9.118   9.143   9.143   9.143   9.251   9.251
  9.252   9.419   9.420   9.420   9.502   9.502   9.502   9.542
  9.542   9.794   9.794   9.794  10.195  12.376  12.377  12.378
 17.616  17.678  17.821  17.883  17.957  22.175  22.179  22.183
 22.188  22.193  22.194  22.258  50.104  50.111  50.112  50.135
 50.142  50.162  50.179  50.191  50.237  50.245  50.250  50.256
 50.258  50.274  50.283  50.290  50.446  50.462  50.481  50.483
 55.606  55.606  55.668  55.668  55.668  55.707  55.707  55.707
 55.896  55.896  55.896  55.911  66.663  66.664  66.664  66.781
141.848
 --------------------------------------------------------------
 
          Ground-State Mulliken Net Atomic Charges

     Atom                 Charge (a.u.)
  ----------------------------------------
      1 Si                    2.028930
      2 F                    -0.507290
      3 F                    -0.507140
      4 F                    -0.507258
      5 F                    -0.507241
  ----------------------------------------
  Sum of atomic charges =     0.000000

 -----------------------------------------------------------------
                    Cartesian Multipole Moments
 -----------------------------------------------------------------
    Charge (ESU x 10^10)
                 0.0000
    Dipole Moment (Debye)
         X       0.0029      Y       0.0000      Z      -0.0022
       Tot       0.0036
    Quadrupole Moments (Debye-Ang)
        XX     -32.4705     XY       0.0001     YY     -32.4762
        XZ      -0.0013     YZ      -0.0001     ZZ     -32.4723
    Octapole Moments (Debye-Ang^2)
       XXX      -3.4307    XXY       0.0001    XYY       3.4408
       YYY       0.0002    XXZ       2.4296    XYZ       0.0000
       YYZ       2.4321    XZZ       0.0015    YZZ       0.0001
       ZZZ      -4.8619
    Hexadecapole Moments (Debye-Ang^3)
      XXXX    -124.2406   XXXY       0.0001   XXYY     -41.4263
      XYYY       0.0001   YYYY    -124.3100   XXXZ       1.2719
      XXYZ      -0.0001   XYYZ      -1.2802   YYYZ      -0.0003
      XXZZ     -40.5103   XYZZ       0.0000   YYZZ     -40.5214
      XZZZ      -0.0048   YZZZ      -0.0003   ZZZZ    -125.1414
 -----------------------------------------------------------------
 Total job time:  134.18s(wall), 132.97s(cpu) 
 Mon Jul  8 12:29:27 2013

        *************************************************************
        *                                                           *
        *  Thank you very much for using Q-Chem.  Have a nice day.  *
        *                                                           *
        *************************************************************


0 sent ACK to 0 
now end server 0 ... 
 
**********************************************************************
Job 3 of 3 
**********************************************************************
 
Process 0 of 1 is on cl011.stfx.acenet.ca - thread support 1
initial socket setup ...start
initial socket setup ...done 
now start server 0 ... 

cmd = /usr/bin/ssh clhead /usr/local/qchem/bin/get_hostid 1767625068 > /scratch/tmp/6064725.1.short.q/qchem23457/lic.dat
                  Welcome to Q-Chem
     A Quantum Leap Into The Future Of Chemistry

 Y. Shao, L. Fusti-Molnar, Y. Jung, J. Kussmann, C. Ochsenfeld,
 S. T. Brown, A. T. B. Gilbert, L. V. Slipchenko,S. V. Levchenko,
 D. P. O'Neill, R. A. DiStasio Jr., R. C. Lochan, T. Wang,
 G. J. O. Beran, N. A. Besley, J. M. Herbert, C. Y. Lin,
 T. Van Voorhis, S. H. Chien, A. Sodt, R. P. Steele, 
 V. A. Rassolov, P. E. Maslen, P. P. Korambath, R. D. Adamson,
 B. Austin, J. Baker, E. F. C. Byrd, H. Dachsel, R. J. Doerksen,
 A. Dreuw, B. D. Dunietz, A. D. Dutoi, T. R. Furlani,
 S. R. Gwaltney, A. Heyden, S. Hirata, C.-P. Hsu, G. Kedziora,
 R. Z. Khaliullin, P. Klunzinger, A. M. Lee, M. S. Lee, W. Liang,
 I. Lotan, N. Nair, B. Peters, E. I. Proynov, P. A. Pieniazek, 
 Y. M. Rhee, J. Ritchie, E. Rosta, C. D. Sherrill, 
 A. C. Simmonett, J. E. Subotnik, H. L. Woodcock III,
 W. Zhang, A. T. Bell, A. K. Chakraborty, D. M. Chipman,
 F. J. Keil, A. Warshel, W. J. Hehre, H. F. Schaefer III,
 J. Kong, A. I. Krylov, P. M. W. Gill, M. Head-Gordon,
 Q-Chem, Version 3.1, Q-Chem, Inc., Pittsburgh, PA (2007).

 Additional authors for Version 3.1: 
 Z. Gan, Y. Zhao, N. E. Schultz, D. Truhlar, E. Epifanovsky and M. Oana.

 Additional authors for Version 3.2: 
 R. Baer, B. R. Brooks, D. Casanova, J.-D. Chai, C.-L. Cheng, 
 C. Cramer, D. Crittenden, A. Ghysels, G. Hawkins, E. G. Hohenstein, 
 C. Kelley, W. Kurlancheek, D. Liotard, E. Livshits, P. Manohar, 
 A. Marenich, D. Neuhauser, R. Olson, M. A. Rohrdanz, K. S. Thanthiriwatte, 
 A. J. W. Thom, V. Vanovschi, C. F. Williams, Q. Wu and Z.-Q. You. 


 Intel X86 Linux Version

 Q-chem begins on Mon Jul  8 12:29:30 2013  

 Parallel job on  1  processors
Processing $rem in /usr/local/qchem/config/preferences.

theFileMan(): MAXOPENFILES=974 MAX_SUB_FILE_NUM=16
Maximum size of a physical file is 2.0 GB, maximum size of a tmp-file is 32.0 GB


--------------------------------------------------------------
User input:
--------------------------------------------------------------

$molecule
1,2
Si         0.00012        0.00000       -0.00018
F          0.00000        0.00000        1.54969
F          1.46108        0.00000       -0.51646
F         -0.73061       -1.26568       -0.51651
F         -0.73061        1.26568       -0.51651
$end

$comment
positive
$end

$xc_functional
C PBE   1.00
X wPBE  1.00
$end

$rem
SYMMETRY_DECOMPOSITION	0
LRC_DFT                 true
exchange 		general
BASIS                   g3large
omega			500
mem_static              760
max_scf_cycles          200
scf_final_print         1
sym_ignore              true
$end

--------------------------------------------------------------
 Writing REM_CC_EA            5
 ----------------------------------------------------
       Standard Nuclear Orientation (Angstroms)
    I     Atom         X            Y            Z
 ----------------------------------------------------
    1      Si      0.000120     0.000000    -0.000180
    2      F       0.000000     0.000000     1.549690
    3      F       1.461080     0.000000    -0.516460
    4      F      -0.730610    -1.265680    -0.516510
    5      F      -0.730610     1.265680    -0.516510
 ----------------------------------------------------
 Nuclear Repulsion Energy =   273.7019883780 hartrees
 There are       25 alpha and       24 beta electrons
 Requested basis set is G3large
 There are 59 shells and 234 basis functions

Total QAlloc Memory Limit   2000 MB
Mega-Array Size       743 MB
MEM_STATIC part       760 MB

                       Distance Matrix (Angstroms)
             Si(  1)   F (  2)   F (  3)   F (  4)
   F (  2)  1.549870
   F (  3)  1.549500  2.530559
   F (  4)  1.550003  2.530794  2.530899
   F (  5)  1.550003  2.530794  2.530899  2.531360
 
 A cutoff of  1.0D-08 yielded   1440 shell pairs
 There are  23327 function pairs ( 31304 Cartesian)
Evaluating contribution to one-electron hamiltonian from nuclear
 Smallest overlap matrix eigenvalue = 1.26E-04
 Multipole matrices computed through 2nd order

  Scale SEOQF with 1.000000e-01/1.000000e-01/1.000000e-01

 Standard Electronic Orientation quadrupole field applied
 Guess from superposition of atomic densities
 Warning:  Energy on first SCF cycle will be non-variational
 Long-range K will be added via erf
 Coulomb attenuation parameter = 0.5 bohr**(-1)
 An unrestricted Kohn-Sham SCF calculation will be
 performed using Pulay DIIS extrapolation
 Exchange:  wPBE + LR-HF      Correlation:  PBE
 Using SG-1 standard quadrature grid
 SCF converges when DIIS error is below 1.0E-05
 Requested basis set is G3large
 There are 59 shells and 234 basis functions
 A cutoff of  1.0D-08 yielded   1440 shell pairs
 There are  23327 function pairs ( 31304 Cartesian)
 Warning!  Inaccurate integrated density:
   Number of electrons =    49
   Numerical integral  =    50.000212189660
   Relative error      =     2.0412493667 %
 ---------------------------------------
  Cycle       Energy         DIIS Error
 ---------------------------------------
    1    -689.5576384129      2.88E-02
    2    -688.1527717132      6.26E-03
    3    -687.9551743686      1.03E-02
    4    -688.3731727069      1.07E-03
    5    -688.3790656294      6.76E-04
    6    -688.3814538098      3.24E-04
    7    -688.3825083982      2.46E-04
    8    -688.3835210939      2.09E-04
    9    -688.3847557088      1.46E-04
   10    -688.3858503321      5.44E-05
   11    -688.3860127295      3.27E-05
   12    -688.3860941589      1.93E-05
   13    -688.3861283151      1.44E-05
   14    -688.3861559803      6.05E-06 Convergence criterion met
 ---------------------------------------
 One-Electron    Energy = -1488.5259092527
 Total Coulomb   Energy =   588.6685911910
 Alpha Exchange  Energy =    -6.4336472862
 Beta  Exchange  Energy =    -6.0844344014
 DFT   Exchange  Energy =   -47.9677132624
 DFT Correlation Energy =    -1.7450313466
 Nuclear Repu.   Energy =   273.7019883780
 Nuclear Attr.   Energy = -2175.7242127017
 Kinetic         Energy =   687.1983034490
 <S^2> = 0.7599
 SCF time:  CPU 294.30 s  wall 294.79 s
 Final Alpha MO Eigenvalues
            1           2           3           4           5           6
    1 -66.1057480 -24.9194898 -24.9163983 -24.8547151 -24.8484126  -5.7568129
            7           8           9          10          11          12
    1  -4.1539538  -4.1531879  -4.1524333  -1.7706112  -1.7432398  -1.7006676
           13          14          15          16          17          18
    1  -1.6849884  -1.0875643  -1.0320012  -1.0289946  -1.0082229  -0.9830115
           19          20          21          22          23          24
    1  -0.9781311  -0.9694996  -0.9421397  -0.9350076  -0.9240953  -0.9034236
           25          26          27          28          29          30
    1  -0.8917053  -0.1503845  -0.0855184  -0.0852857  -0.0840780  -0.0276318
 Final Beta MO Eigenvalues
            1           2           3           4           5           6
    1 -66.1059685 -24.9089276 -24.9060928 -24.8493903 -24.8435713  -5.7571841
            7           8           9          10          11          12
    1  -4.1544753  -4.1536904  -4.1527839  -1.7478858  -1.7138591  -1.6844405
           13          14          15          16          17          18
    1  -1.6715213  -1.0790119  -1.0149329  -0.9964122  -0.9902441  -0.9582035
           19          20          21          22          23          24
    1  -0.9345742  -0.9148585  -0.9055842  -0.8886715  -0.8633948  -0.8570019
           25          26          27          28          29
    1  -0.6205489  -0.1501599  -0.0838472  -0.0818057  -0.0813674
 Analysis of SCF Wavefunction
 
 --------------------------------------------------------------
                    Orbital Energies (a.u.)
 --------------------------------------------------------------
 
 Alpha MOs
 -- Occupied --
-66.106 -24.919 -24.916 -24.855 -24.848  -5.757  -4.154  -4.153
 -4.152  -1.771  -1.743  -1.701  -1.685  -1.088  -1.032  -1.029
 -1.008  -0.983  -0.978  -0.969  -0.942  -0.935  -0.924  -0.903
 -0.892
 -- Virtual --
 -0.150  -0.086  -0.085  -0.084  -0.028  -0.017  -0.013  -0.013
  0.081   0.086   0.091   0.095   0.096   0.116   0.118   0.123
  0.140   0.187   0.194   0.198   0.216   0.219   0.225   0.226
  0.227   0.233   0.291   0.291   0.292   0.450   0.452   0.455
  0.522   0.535   0.537   0.537   0.593   0.595   0.598   0.656
  0.658   0.722   0.809   0.818   0.828   1.171   1.181   1.209
  1.215   1.228   1.236   1.240   1.249   1.280   1.280   1.284
  1.295   1.403   1.406   1.413   1.522   1.536   1.544   1.747
  1.752   1.763   1.817   1.821   1.887   1.899   1.900   1.909
  1.909   1.913   1.970   2.050   2.060   2.070   2.299   2.309
  2.329   2.505   2.507   2.511   2.721   2.733   2.740   2.978
  2.995   3.016   3.148   3.572   3.575   3.998   3.998   4.002
  5.748   5.905   5.927   5.991   6.033   6.040   6.061   6.065
  6.078   6.203   6.211   6.228   6.342   6.350   6.355   6.365
  6.369   6.371   6.373   6.381   6.385   6.397   6.431   6.431
  6.440   6.453   6.457   6.472   6.478   6.506   6.520   6.539
  6.606   6.618   6.714   6.743   6.753   6.937   6.939   6.951
  7.359   8.773   8.783   8.795   8.828   8.838   8.917   8.935
  8.947   9.076   9.106   9.120   9.160   9.185   9.204   9.233
  9.248   9.461   9.486   9.513   9.891  12.081  12.086  12.090
 17.324  17.386  17.529  17.591  17.665  21.881  21.887  21.891
 21.895  21.901  21.902  21.965  49.747  49.768  49.774  49.785
 49.829  49.836  49.844  49.858  49.883  49.901  49.911  49.924
 49.956  49.976  49.984  49.992  50.125  50.129  50.153  50.175
 55.260  55.273  55.305  55.340  55.356  55.389  55.393  55.407
 55.545  55.551  55.606  55.617  66.307  66.332  66.373  66.467
141.555
 
 Beta MOs
 -- Occupied --
-66.106 -24.909 -24.906 -24.849 -24.844  -5.757  -4.154  -4.154
 -4.153  -1.748  -1.714  -1.684  -1.672  -1.079  -1.015  -0.996
 -0.990  -0.958  -0.935  -0.915  -0.906  -0.889  -0.863  -0.857
 -- Virtual --
 -0.621  -0.150  -0.084  -0.082  -0.081  -0.025  -0.016  -0.009
 -0.009   0.084   0.087   0.092   0.095   0.096   0.116   0.119
  0.123   0.140   0.191   0.195   0.199   0.218   0.221   0.225
  0.227   0.228   0.235   0.292   0.292   0.292   0.451   0.452
  0.455   0.522   0.536   0.538   0.539   0.595   0.595   0.599
  0.655   0.657   0.720   0.812   0.820   0.829   1.185   1.189
  1.220   1.232   1.232   1.244   1.246   1.251   1.283   1.284
  1.286   1.299   1.406   1.412   1.417   1.533   1.538   1.546
  1.753   1.758   1.765   1.835   1.838   1.904   1.908   1.910
  1.913   1.923   1.927   1.975   2.065   2.074   2.083   2.312
  2.314   2.332   2.510   2.514   2.518   2.730   2.736   2.742
  2.987   3.001   3.020   3.153   3.573   3.575   3.999   3.999
  4.002   5.751   5.938   5.944   6.037   6.046   6.057   6.078
  6.084   6.086   6.219   6.226   6.236   6.364   6.371   6.377
  6.379   6.389   6.395   6.399   6.407   6.410   6.410   6.445
  6.446   6.454   6.468   6.472   6.484   6.492   6.516   6.532
  6.545   6.622   6.625   6.735   6.751   6.758   6.947   6.949
  6.955   7.364   8.814   8.821   8.836   8.858   8.859   8.948
  8.963   8.971   9.113   9.121   9.132   9.197   9.200   9.221
  9.250   9.259   9.479   9.499   9.521   9.902  12.082  12.086
 12.090  17.323  17.385  17.529  17.591  17.664  21.881  21.887
 21.891  21.895  21.900  21.901  21.965  49.777  49.794  49.803
 49.809  49.848  49.850  49.863  49.885  49.910  49.917  49.919
 49.932  49.965  49.987  49.995  49.997  50.138  50.142  50.160
 50.181  55.280  55.286  55.333  55.348  55.366  55.399  55.404
 55.416  55.552  55.558  55.609  55.620  66.318  66.341  66.379
 66.474 141.555
 --------------------------------------------------------------
 
          Ground-State Mulliken Net Atomic Charges

     Atom                 Charge (a.u.)    Spin (a.u.)
  --------------------------------------------------------
      1 Si                    1.953473      -0.143123
      2 F                    -0.286453       0.200180
      3 F                    -0.297804       0.180398
      4 F                    -0.181901       0.385838
      5 F                    -0.187315       0.376706
  --------------------------------------------------------
  Sum of atomic charges =     1.000000
  Sum of spin   charges =     1.000000

 -----------------------------------------------------------------
                    Cartesian Multipole Moments
 -----------------------------------------------------------------
    Charge (ESU x 10^10)
                 4.8032
    Dipole Moment (Debye)
         X      -0.8549      Y      -0.0360      Z      -0.5141
       Tot       0.9982
    Quadrupole Moments (Debye-Ang)
        XX     -26.6146     XY       0.0819     YY     -25.1486
        XZ       0.5969     YZ      -0.0511     ZZ     -26.8601
    Octapole Moments (Debye-Ang^2)
       XXX      -2.2017    XXY      -0.0277    XYY      -0.3122
       YYY      -0.0804    XXZ       0.0763    XYZ      -0.0022
       YYZ      -0.1572    XZZ      -0.5458    YZZ      -0.0234
       ZZZ      -1.7506
    Hexadecapole Moments (Debye-Ang^3)
      XXXX    -106.6211   XXXY      -0.3065   XXYY     -34.7853
      XYYY       0.2610   YYYY    -101.0369   XXXZ       0.9472
      XXYZ      -0.0781   XYYZ       0.6558   YYYZ      -0.2374
      XXZZ     -35.5099   XYZZ       0.3421   YYZZ     -35.1604
      XZZZ       0.7600   YZZZ       0.1458   ZZZZ    -107.2153
 -----------------------------------------------------------------
 Total job time:  295.17s(wall), 294.67s(cpu) 
 Mon Jul  8 12:34:25 2013

        *************************************************************
        *                                                           *
        *  Thank you very much for using Q-Chem.  Have a nice day.  *
        *                                                           *
        *************************************************************


0 sent ACK to 0 
now end server 0 ... 
