Process 0 of 1 is on cl247.stfx.acenet.ca - thread support 1
initial socket setup ...start
initial socket setup ...done 
now start server 0 ... 

cmd = /usr/bin/ssh clhead /usr/local/qchem/bin/get_hostid 766207649 > /scratch/tmp/4506554.1.long.q/qchem4912/lic.dat
                  Welcome to Q-Chem
     A Quantum Leap Into The Future Of Chemistry

 Y. Shao, L. Fusti-Molnar, Y. Jung, J. Kussmann, C. Ochsenfeld,
 S. T. Brown, A. T. B. Gilbert, L. V. Slipchenko,S. V. Levchenko,
 D. P. O'Neill, R. A. DiStasio Jr., R. C. Lochan, T. Wang,
 G. J. O. Beran, N. A. Besley, J. M. Herbert, C. Y. Lin,
 T. Van Voorhis, S. H. Chien, A. Sodt, R. P. Steele, 
 V. A. Rassolov, P. E. Maslen, P. P. Korambath, R. D. Adamson,
 B. Austin, J. Baker, E. F. C. Byrd, H. Dachsel, R. J. Doerksen,
 A. Dreuw, B. D. Dunietz, A. D. Dutoi, T. R. Furlani,
 S. R. Gwaltney, A. Heyden, S. Hirata, C.-P. Hsu, G. Kedziora,
 R. Z. Khaliullin, P. Klunzinger, A. M. Lee, M. S. Lee, W. Liang,
 I. Lotan, N. Nair, B. Peters, E. I. Proynov, P. A. Pieniazek, 
 Y. M. Rhee, J. Ritchie, E. Rosta, C. D. Sherrill, 
 A. C. Simmonett, J. E. Subotnik, H. L. Woodcock III,
 W. Zhang, A. T. Bell, A. K. Chakraborty, D. M. Chipman,
 F. J. Keil, A. Warshel, W. J. Hehre, H. F. Schaefer III,
 J. Kong, A. I. Krylov, P. M. W. Gill, M. Head-Gordon,
 Q-Chem, Version 3.1, Q-Chem, Inc., Pittsburgh, PA (2007).

 Additional authors for Version 3.1: 
 Z. Gan, Y. Zhao, N. E. Schultz, D. Truhlar, E. Epifanovsky and M. Oana.

 Additional authors for Version 3.2: 
 R. Baer, B. R. Brooks, D. Casanova, J.-D. Chai, C.-L. Cheng, 
 C. Cramer, D. Crittenden, A. Ghysels, G. Hawkins, E. G. Hohenstein, 
 C. Kelley, W. Kurlancheek, D. Liotard, E. Livshits, P. Manohar, 
 A. Marenich, D. Neuhauser, R. Olson, M. A. Rohrdanz, K. S. Thanthiriwatte, 
 A. J. W. Thom, V. Vanovschi, C. F. Williams, Q. Wu and Z.-Q. You. 


 Intel X86 Linux Version

 Q-chem begins on Thu Apr 21 16:01:50 2011  

 Parallel job on  1  processors
Processing $rem in /usr/local/qchem/config/preferences.

theFileMan(): MAXOPENFILES=974 MAX_SUB_FILE_NUM=16
Maximum size of a physical file is 2.0 GB, maximum size of a tmp-file is 32.0 GB


--------------------------------------------------------------
User input:
--------------------------------------------------------------

$molecule
0,2
C
H,1,RCH

RCH=1.13309913

$end

$comment
neutral
$end

$xc_functional
   X HF 1.0
   X BNL 1.0
   C LYP 1.0
$end

$rem
SYMMETRY_DECOMPOSITION	0
exchange 		general
BASIS                   g3large
omega			360 
JOBTYPE                 opt
separate_jk		true
mem_static              760
max_scf_cycles          200
scf_final_print         1
sym_ignore              true
$end


--------------------------------------------------------------
 Writing REM_CC_EA            2
 ----------------------------------------------------
       Standard Nuclear Orientation (Angstroms)
    I     Atom         X            Y            Z
 ----------------------------------------------------
    1      C       0.000000     0.000000     0.000000
    2      H       0.000000     0.000000     1.133099
 ----------------------------------------------------
 Nuclear Repulsion Energy =     2.8021054652 hartrees
 There are        4 alpha and        3 beta electrons
 Requested basis set is G3large
 There are 16 shells and 52 basis functions

Total QAlloc Memory Limit   2000 MB
Mega-Array Size       743 MB
MEM_STATIC part       760 MB
 A cutoff of  1.0D-11 yielded    136 shell pairs
 There are   1462 function pairs (  1834 Cartesian)
Evaluating contribution to one-electron hamiltonian from nuclear
 Smallest overlap matrix eigenvalue = 4.17E-03
 Multipole matrices computed through 2nd order

  Scale SEOQF with 1.000000e-01/1.000000e-01/1.000000e-01

 Standard Electronic Orientation quadrupole field applied
 Nucleus-field energy     =    -0.0000000001 hartrees
 Guess from superposition of atomic densities
 Warning:  Energy on first SCF cycle will be non-variational
 An unrestricted hybrid HF-DFT SCF calculation will be
 performed using Pulay DIIS extrapolation
 Exchange:     1.0000 Hartree-Fock + 1.0000 BNL
 Correlation:  1.0000 LYP
 Using SG-1 standard quadrature grid
 SCF converges when DIIS error is below 1.0E-08
 ---------------------------------------
  Cycle       Energy         DIIS Error
 ---------------------------------------
    1     -37.8086608377      2.56E-02
    2     -37.9861537360      3.19E-03
    3     -37.9916437317      9.07E-04
    4     -37.9919840577      1.91E-04
    5     -37.9920455620      8.06E-05
    6     -37.9920574479      2.66E-05
    7     -37.9920606394      1.04E-05
    8     -37.9920611583      3.43E-06
    9     -37.9920612088      5.60E-07
   10     -37.9920612116      2.97E-07
   11     -37.9920612126      1.57E-07
   12     -37.9920612129      4.43E-08
   13     -37.9920612129      8.90E-09 Convergence criterion met
 ---------------------------------------
 One-Electron    Energy =   -56.5073075304
 Total Coulomb   Energy =    20.7973374813
 Alpha Exchange  Energy =    -0.7165198655
 Beta  Exchange  Energy =    -0.5397185894
 DFT   Exchange  Energy =    -3.6311408160
 DFT Correlation Energy =    -0.1968173580
 Nuclear Repu.   Energy =     2.8021054651
 Nuclear Attr.   Energy =   -94.3145939572
 Kinetic         Energy =    37.8072864268
 <S^2> = 0.7525
 SCF time:  CPU 7.31 s  wall 8.25 s
 Final Alpha MO Eigenvalues
            1           2           3           4           5           6
    1 -10.0731279  -0.7654387  -0.4314016  -0.3679516  -0.0634432   0.0368410
            7           8           9
    1   0.1165498   0.1167065   0.1188912
 Final Beta MO Eigenvalues
            1           2           3           4           5           6
    1 -10.0567288  -0.7216201  -0.4059352  -0.0455218  -0.0083410   0.0366233
            7           8
    1   0.1177220   0.1207919
 Analysis of SCF Wavefunction
 
 --------------------------------------------------------------
                    Orbital Energies (a.u.)
 --------------------------------------------------------------
 
 Alpha MOs
 -- Occupied --
-10.073  -0.765  -0.431  -0.368
 -- Virtual --
 -0.063   0.037   0.117   0.117   0.119   0.162   0.210   0.525
  0.605   0.610   0.611   0.658   0.659   0.749   0.750   0.788
  1.084   1.119   1.124   1.481   2.427   2.661   2.663   2.883
  2.883   2.884   2.885   2.941   2.945   3.075   3.184   3.274
  3.278   3.393   3.395   3.746   4.138   4.141   5.195  23.558
 27.136  27.140  27.636  40.703  40.794  41.046  41.065  41.067
 
 Beta MOs
 -- Occupied --
-10.057  -0.722  -0.406
 -- Virtual --
 -0.046  -0.008   0.037   0.118   0.121   0.133   0.160   0.216
  0.531   0.615   0.621   0.651   0.665   0.686   0.784   0.787
  0.810   1.096   1.122   1.141   1.491   2.436   2.683   2.726
  2.922   2.924   2.934   2.937   2.960   2.990   3.100   3.205
  3.343   3.345   3.414   3.453   3.765   4.139   4.154   5.206
 23.581  27.147  27.171  27.647  40.732  40.810  41.074  41.075
 41.096
 --------------------------------------------------------------
 
          Ground-State Mulliken Net Atomic Charges

     Atom                 Charge (a.u.)    Spin (a.u.)
  --------------------------------------------------------
      1 C                    -0.111007       1.022133
      2 H                     0.111007      -0.022133
  --------------------------------------------------------
  Sum of atomic charges =     0.000000
  Sum of spin   charges =     1.000000

 -----------------------------------------------------------------
                    Cartesian Multipole Moments
 -----------------------------------------------------------------
    Charge (ESU x 10^10)
                 0.0000
    Dipole Moment (Debye)
         X       0.0000      Y       0.0000      Z       1.6202
       Tot       1.6202
    Quadrupole Moments (Debye-Ang)
        XX      -7.0307     XY      -1.0581     YY      -7.0299
        XZ       0.0000     YZ       0.0000     ZZ      -7.4321
    Octapole Moments (Debye-Ang^2)
       XXX       0.0000    XXY       0.0000    XYY       0.0000
       YYY       0.0000    XXZ      -0.3682    XYZ      -0.0567
       YYZ      -0.3681    XZZ       0.0000    YZZ       0.0000
       ZZZ      -0.4880
    Hexadecapole Moments (Debye-Ang^3)
      XXXX      -9.0598   XXXY      -1.2926   XXYY      -3.0195
      XYYY      -1.2926   YYYY      -9.0578   XXXZ       0.0000
      XXYZ       0.0000   XYYZ       0.0000   YYYZ       0.0000
      XXZZ      -4.5335   XYZZ      -0.4428   YYZZ      -4.5331
      XZZZ       0.0000   YZZZ       0.0000   ZZZZ     -16.5347
 -----------------------------------------------------------------
 Calculating analytic gradient of the SCF energy
 Gradient of AOints
            1           2
    1  -0.0000038   0.0000038
    2   0.0000037  -0.0000037
    3   1.3049887  -1.3049887
 Gradient of XC Energy
            1           2
    1  -0.0000001   0.0000001
    2   0.0000001  -0.0000001
    3  -0.1279428   0.1279428
 Gradient of SCF Energy
            1           2
    1  -0.0000000   0.0000000
    2   0.0000000  -0.0000000
    3   0.0003918  -0.0003918
 Max gradient component =       3.918E-04
 RMS gradient           =       2.262E-04
 Gradient time:  CPU 1.41 s  wall 1.50 s
 Geometry Optimization Parameters
   NAtoms,    NIC,     NZ,  NCons,   NDum,   NFix, NCnnct, MaxDiis
        2       5       2       0       0       0       0       0


** GEOMETRY OPTIMIZATION IN DELOCALIZED INTERNAL COORDINATES **
   Searching for a Minimum

   Optimization Cycle:   1

                       Coordinates (Angstroms)
     ATOM              X           Y           Z
    1  C           0.000000    0.000000    0.000000
    2  H           0.000000    0.000000    1.133099
   Point Group: c1    Number of degrees of freedom:   0


   Energy is    -37.992061213


 Attempting to Generate Delocalized Internal Coordinates

  ***ERROR*** Wrong Number of Internal Coordinates
              Should be:   0  Found:   1
**WARNING** Problems with Internal Coordinates
  Switching to Cartesian Coordinates

 Translations and Rotations Projected Out of Hessian

  1 Hessian modes will be used to form the next step
  Hessian Eigenvalues:
     1.000000

 Minimum Search - Taking Simple RFO Step
 Searching for Lamda that Minimizes Along All modes
 Value Taken    Lamda =   0.00000000
 Step Taken.  Stepsize is  0.000554

                             Maximum     Tolerance    Cnvgd?
         Gradient           0.000392      0.000300      NO
         Displacement       0.000392      0.001200     YES
         Energy change     *********      0.000001      NO

 Writing REM_CC_EA            2
 ----------------------------------------------------
       Standard Nuclear Orientation (Angstroms)
    I     Atom         X            Y            Z
 ----------------------------------------------------
    1      C       0.000000     0.000000    -0.000207
    2      H       0.000000     0.000000     1.133306
 ----------------------------------------------------
 Nuclear Repulsion Energy =     2.8010803840 hartrees
 There are        4 alpha and        3 beta electrons
 Applying Cartesian multipole field
    Component          Value
    ---------          -----
     (2,0,0)        1.00000E-11
     (0,2,0)        2.00000E-11
     (0,0,2)       -3.00000E-11
 Nucleus-field energy     =    -0.0000000001 hartrees
 Requested basis set is G3large
 There are 16 shells and 52 basis functions
 A cutoff of  1.0D-11 yielded    136 shell pairs
 There are   1462 function pairs (  1834 Cartesian)
Evaluating contribution to one-electron hamiltonian from nuclear
 Smallest overlap matrix eigenvalue = 4.17E-03
 Multipole matrices computed through 2nd order
 Guess MOs from SCF MO coefficient file
Reading MOs from coefficient file
Reading MOs from coefficient file
 An unrestricted hybrid HF-DFT SCF calculation will be
 performed using Pulay DIIS extrapolation
 Exchange:     1.0000 Hartree-Fock + 1.0000 BNL
 Correlation:  1.0000 LYP
 Using SG-1 standard quadrature grid
 SCF converges when DIIS error is below 1.0E-08
 ---------------------------------------
  Cycle       Energy         DIIS Error
 ---------------------------------------
    1     -37.9920324894      2.27E-05
    2     -37.9920614289      3.35E-06
    3     -37.9920614335      9.18E-07
    4     -37.9920614337      1.94E-07
    5     -37.9920614338      7.13E-08
    6     -37.9920614338      1.10E-08
    7     -37.9920614338      2.78E-09 Convergence criterion met
 ---------------------------------------
 One-Electron    Energy =   -56.5054396541
 Total Coulomb   Energy =    20.7963601847
 Alpha Exchange  Energy =    -0.7165105634
 Beta  Exchange  Energy =    -0.5397080579
 DFT   Exchange  Energy =    -3.6310321030
 DFT Correlation Energy =    -0.1968116239
 Nuclear Repu.   Energy =     2.8010803839
 Nuclear Attr.   Energy =   -94.3122998057
 Kinetic         Energy =    37.8068601517
 <S^2> = 0.7525
 SCF time:  CPU 3.91 s  wall 4.24 s
 Final Alpha MO Eigenvalues
            1           2           3           4           5           6
    1 -10.0731679  -0.7653526  -0.4313916  -0.3679516  -0.0634423   0.0368407
            7           8           9
    1   0.1165491   0.1167024   0.1188907
 Final Beta MO Eigenvalues
            1           2           3           4           5           6
    1 -10.0567677  -0.7215267  -0.4059326  -0.0455200  -0.0083391   0.0366257
            7           8
    1   0.1177178   0.1207920
 Analysis of SCF Wavefunction
 
 --------------------------------------------------------------
                    Orbital Energies (a.u.)
 --------------------------------------------------------------
 
 Alpha MOs
 -- Occupied --
-10.073  -0.765  -0.431  -0.368
 -- Virtual --
 -0.063   0.037   0.117   0.117   0.119   0.162   0.210   0.525
  0.605   0.610   0.611   0.658   0.659   0.749   0.750   0.788
  1.084   1.119   1.124   1.481   2.427   2.661   2.663   2.883
  2.883   2.884   2.885   2.941   2.945   3.075   3.183   3.274
  3.278   3.393   3.395   3.746   4.137   4.141   5.194  23.557
 27.136  27.140  27.635  40.703  40.793  41.046  41.065  41.067
 
 Beta MOs
 -- Occupied --
-10.057  -0.722  -0.406
 -- Virtual --
 -0.046  -0.008   0.037   0.118   0.121   0.133   0.160   0.216
  0.531   0.615   0.621   0.651   0.665   0.686   0.784   0.787
  0.811   1.096   1.122   1.140   1.491   2.436   2.682   2.726
  2.922   2.924   2.934   2.937   2.960   2.990   3.100   3.205
  3.343   3.345   3.414   3.453   3.765   4.139   4.153   5.205
 23.580  27.147  27.171  27.647  40.732  40.810  41.074  41.075
 41.096
 --------------------------------------------------------------
 
          Ground-State Mulliken Net Atomic Charges

     Atom                 Charge (a.u.)    Spin (a.u.)
  --------------------------------------------------------
      1 C                    -0.110867       1.022168
      2 H                     0.110867      -0.022168
  --------------------------------------------------------
  Sum of atomic charges =     0.000000
  Sum of spin   charges =     1.000000

 -----------------------------------------------------------------
                    Cartesian Multipole Moments
 -----------------------------------------------------------------
    Charge (ESU x 10^10)
                 0.0000
    Dipole Moment (Debye)
         X       0.0000      Y       0.0000      Z       1.6195
       Tot       1.6195
    Quadrupole Moments (Debye-Ang)
        XX      -7.0311     XY      -1.0581     YY      -7.0303
        XZ       0.0000     YZ       0.0000     ZZ      -7.4329
    Octapole Moments (Debye-Ang^2)
       XXX       0.0000    XXY       0.0000    XYY       0.0000
       YYY       0.0000    XXZ      -0.3679    XYZ      -0.0565
       YYZ      -0.3679    XZZ       0.0000    YZZ       0.0000
       ZZZ      -0.4858
    Hexadecapole Moments (Debye-Ang^3)
      XXXX      -9.0601   XXXY      -1.2926   XXYY      -3.0196
      XYYY      -1.2926   YYYY      -9.0582   XXXZ       0.0000
      XXYZ       0.0000   XYYZ       0.0000   YYYZ       0.0000
      XXZZ      -4.5349   XYZZ      -0.4428   YYZZ      -4.5346
      XZZZ       0.0000   YZZZ       0.0000   ZZZZ     -16.5411
 -----------------------------------------------------------------
 Calculating analytic gradient of the SCF energy
 Gradient of AOints
            1           2
    1  -0.0000036   0.0000036
    2   0.0000036  -0.0000036
    3   1.3050744  -1.3050744
 Gradient of XC Energy
            1           2
    1  -0.0000001   0.0000001
    2   0.0000001  -0.0000001
    3  -0.1279283   0.1279283
 Gradient of SCF Energy
            1           2
    1   0.0000000  -0.0000000
    2  -0.0000000   0.0000000
    3   0.0001719  -0.0001719
 Max gradient component =       1.719E-04
 RMS gradient           =       9.926E-05
 Gradient time:  CPU 1.39 s  wall 1.43 s
 Geometry Optimization Parameters
   NAtoms,    NIC,     NZ,  NCons,   NDum,   NFix, NCnnct, MaxDiis
        2       5       2       0       0       0       0       0

 Cartesian Hessian Update
 Hessian Updated using BFGS Update


** GEOMETRY OPTIMIZATION IN CARTESIAN COORDINATES **
   Searching for a Minimum

   Optimization Cycle:   2

                       Coordinates (Angstroms)
     ATOM              X           Y           Z
    1  C           0.000000    0.000000   -0.000207
    2  H           0.000000    0.000000    1.133306
   Point Group: c1    Number of degrees of freedom:   0


   Energy is    -37.992061434


 Translations and Rotations Projected Out of Hessian

  1 Hessian modes will be used to form the next step
  Hessian Eigenvalues:
     0.561209

 Minimum Search - Taking Simple RFO Step
 Searching for Lamda that Minimizes Along All modes
 Value Taken    Lamda =   0.00000000
 Step Taken.  Stepsize is  0.000433

                             Maximum     Tolerance    Cnvgd?
         Gradient           0.000172      0.000300     YES
         Displacement       0.000306      0.001200     YES
         Energy change      0.000000      0.000001     YES


                       Distance Matrix (Angstroms)
             C (  1)
   H (  2)  1.133514
 


 ******************************
 **  OPTIMIZATION CONVERGED  **
 ******************************
 Analysis of SCF Wavefunction
 
 --------------------------------------------------------------
                    Orbital Energies (a.u.)
 --------------------------------------------------------------
 
 Alpha MOs
 -- Occupied --
-10.073  -0.765  -0.431  -0.368
 -- Virtual --
 -0.063   0.037   0.117   0.117   0.119   0.162   0.210   0.525
  0.605   0.610   0.611   0.658   0.659   0.749   0.750   0.788
  1.084   1.119   1.124   1.481   2.427   2.661   2.663   2.883
  2.883   2.884   2.885   2.941   2.945   3.075   3.183   3.274
  3.278   3.393   3.395   3.746   4.137   4.141   5.194  23.557
 27.136  27.140  27.635  40.703  40.793  41.046  41.065  41.067
 
 Beta MOs
 -- Occupied --
-10.057  -0.722  -0.406
 -- Virtual --
 -0.046  -0.008   0.037   0.118   0.121   0.133   0.160   0.216
  0.531   0.615   0.621   0.651   0.665   0.686   0.784   0.787
  0.811   1.096   1.122   1.140   1.491   2.436   2.682   2.726
  2.922   2.924   2.934   2.937   2.960   2.990   3.100   3.205
  3.343   3.345   3.414   3.453   3.765   4.139   4.153   5.205
 23.580  27.147  27.171  27.647  40.732  40.810  41.074  41.075
 41.096
 --------------------------------------------------------------
 
          Ground-State Mulliken Net Atomic Charges

     Atom                 Charge (a.u.)    Spin (a.u.)
  --------------------------------------------------------
      1 C                    -0.110867       1.022168
      2 H                     0.110867      -0.022168
  --------------------------------------------------------
  Sum of atomic charges =     0.000000
  Sum of spin   charges =     1.000000

 -----------------------------------------------------------------
                    Cartesian Multipole Moments
 -----------------------------------------------------------------
    Charge (ESU x 10^10)
                 0.0000
    Dipole Moment (Debye)
         X       0.0000      Y       0.0000      Z       1.6195
       Tot       1.6195
    Quadrupole Moments (Debye-Ang)
        XX      -7.0311     XY      -1.0581     YY      -7.0303
        XZ       0.0000     YZ       0.0000     ZZ      -7.4329
    Octapole Moments (Debye-Ang^2)
       XXX       0.0000    XXY       0.0000    XYY       0.0000
       YYY       0.0000    XXZ      -0.3679    XYZ      -0.0565
       YYZ      -0.3679    XZZ       0.0000    YZZ       0.0000
       ZZZ      -0.4858
    Hexadecapole Moments (Debye-Ang^3)
      XXXX      -9.0601   XXXY      -1.2926   XXYY      -3.0196
      XYYY      -1.2926   YYYY      -9.0582   XXXZ       0.0000
      XXYZ       0.0000   XYYZ       0.0000   YYYZ       0.0000
      XXZZ      -4.5349   XYZZ      -0.4428   YYZZ      -4.5346
      XZZZ       0.0000   YZZZ       0.0000   ZZZZ     -16.5411
 -----------------------------------------------------------------
 Total job time:  15.57s(wall), 14.16s(cpu) 
 Thu Apr 21 16:02:06 2011

        *************************************************************
        *                                                           *
        *  Thank you very much for using Q-Chem.  Have a nice day.  *
        *                                                           *
        *************************************************************


0 sent ACK to 0 
now end server 0 ... 
 
**********************************************************************
Job 2 of 2 
**********************************************************************
 
Process 0 of 1 is on cl247.stfx.acenet.ca - thread support 1
initial socket setup ...start
initial socket setup ...done 
now start server 0 ... 

cmd = /usr/bin/ssh clhead /usr/local/qchem/bin/get_hostid 362171522 > /scratch/tmp/4506554.1.long.q/qchem4912/lic.dat
                  Welcome to Q-Chem
     A Quantum Leap Into The Future Of Chemistry

 Y. Shao, L. Fusti-Molnar, Y. Jung, J. Kussmann, C. Ochsenfeld,
 S. T. Brown, A. T. B. Gilbert, L. V. Slipchenko,S. V. Levchenko,
 D. P. O'Neill, R. A. DiStasio Jr., R. C. Lochan, T. Wang,
 G. J. O. Beran, N. A. Besley, J. M. Herbert, C. Y. Lin,
 T. Van Voorhis, S. H. Chien, A. Sodt, R. P. Steele, 
 V. A. Rassolov, P. E. Maslen, P. P. Korambath, R. D. Adamson,
 B. Austin, J. Baker, E. F. C. Byrd, H. Dachsel, R. J. Doerksen,
 A. Dreuw, B. D. Dunietz, A. D. Dutoi, T. R. Furlani,
 S. R. Gwaltney, A. Heyden, S. Hirata, C.-P. Hsu, G. Kedziora,
 R. Z. Khaliullin, P. Klunzinger, A. M. Lee, M. S. Lee, W. Liang,
 I. Lotan, N. Nair, B. Peters, E. I. Proynov, P. A. Pieniazek, 
 Y. M. Rhee, J. Ritchie, E. Rosta, C. D. Sherrill, 
 A. C. Simmonett, J. E. Subotnik, H. L. Woodcock III,
 W. Zhang, A. T. Bell, A. K. Chakraborty, D. M. Chipman,
 F. J. Keil, A. Warshel, W. J. Hehre, H. F. Schaefer III,
 J. Kong, A. I. Krylov, P. M. W. Gill, M. Head-Gordon,
 Q-Chem, Version 3.1, Q-Chem, Inc., Pittsburgh, PA (2007).

 Additional authors for Version 3.1: 
 Z. Gan, Y. Zhao, N. E. Schultz, D. Truhlar, E. Epifanovsky and M. Oana.

 Additional authors for Version 3.2: 
 R. Baer, B. R. Brooks, D. Casanova, J.-D. Chai, C.-L. Cheng, 
 C. Cramer, D. Crittenden, A. Ghysels, G. Hawkins, E. G. Hohenstein, 
 C. Kelley, W. Kurlancheek, D. Liotard, E. Livshits, P. Manohar, 
 A. Marenich, D. Neuhauser, R. Olson, M. A. Rohrdanz, K. S. Thanthiriwatte, 
 A. J. W. Thom, V. Vanovschi, C. F. Williams, Q. Wu and Z.-Q. You. 


 Intel X86 Linux Version

 Q-chem begins on Thu Apr 21 16:02:09 2011  

 Parallel job on  1  processors
Processing $rem in /usr/local/qchem/config/preferences.

theFileMan(): MAXOPENFILES=974 MAX_SUB_FILE_NUM=16
Maximum size of a physical file is 2.0 GB, maximum size of a tmp-file is 32.0 GB


--------------------------------------------------------------
User input:
--------------------------------------------------------------

$molecule 
READ 
$end 

$xc_functional
   X HF 1.0
   X BNL 1.0
   C LYP 1.0
$end

$rem
SYMMETRY_DECOMPOSITION	0
exchange 		general
BASIS                   g3large
omega			360 
JOBTYPE                 freq
IDERIV 1
SCF_GUESS READ
separate_jk		true
mem_static              760
max_scf_cycles          200
scf_final_print         1
sym_ignore              true
$end

--------------------------------------------------------------
 Writing REM_CC_EA            2
 ----------------------------------------------------
       Standard Nuclear Orientation (Angstroms)
    I     Atom         X            Y            Z
 ----------------------------------------------------
    1      C       0.000000     0.000000    -0.000207
    2      H       0.000000     0.000000     1.133306
 ----------------------------------------------------
 Nuclear Repulsion Energy =     2.8010803840 hartrees
 There are        4 alpha and        3 beta electrons
 Requested basis set is G3large
 There are 16 shells and 52 basis functions

Total QAlloc Memory Limit   2000 MB
Mega-Array Size       759 MB
MEM_STATIC part       760 MB

                       Distance Matrix (Angstroms)
             C (  1)
   H (  2)  1.133514
 
 A cutoff of  1.0D-11 yielded    136 shell pairs
 There are   1462 function pairs (  1834 Cartesian)
Evaluating contribution to one-electron hamiltonian from nuclear
 Smallest overlap matrix eigenvalue = 4.17E-03
 Multipole matrices computed through 2nd order
 Guess MOs from SCF MO coefficient file
Reading MOs from coefficient file
Reading MOs from coefficient file
 An unrestricted hybrid HF-DFT SCF calculation will be
 performed using Pulay DIIS extrapolation
 Exchange:     1.0000 Hartree-Fock + 1.0000 BNL
 Correlation:  1.0000 LYP
 Using SG-1 standard quadrature grid
 SCF converges when DIIS error is below 1.0E-08
 ---------------------------------------
  Cycle       Energy         DIIS Error
 ---------------------------------------
    1     -37.9920614338      2.82E-09
    2     -37.9920614338      2.31E-09 Convergence criterion met
 ---------------------------------------
 One-Electron    Energy =   -56.5054396661
 Total Coulomb   Energy =    20.7963602044
 Alpha Exchange  Energy =    -0.7165105712
 Beta  Exchange  Energy =    -0.5397080509
 DFT   Exchange  Energy =    -3.6310321105
 DFT Correlation Energy =    -0.1968116234
 Nuclear Repu.   Energy =     2.8010803840
 Nuclear Attr.   Energy =   -94.3122998344
 Kinetic         Energy =    37.8068601682
 <S^2> = 0.7525
 SCF time:  CPU 1.08 s  wall 1.18 s
 Final Alpha MO Eigenvalues
            1           2           3           4           5           6
    1 -10.0731680  -0.7653526  -0.4313917  -0.3679516  -0.0634423   0.0368407
            7           8           9
    1   0.1165491   0.1167024   0.1188907
 Final Beta MO Eigenvalues
            1           2           3           4           5           6
    1 -10.0567677  -0.7215267  -0.4059326  -0.0455200  -0.0083390   0.0366258
            7           8
    1   0.1177178   0.1207920
 Analysis of SCF Wavefunction
 
 --------------------------------------------------------------
                    Orbital Energies (a.u.)
 --------------------------------------------------------------
 
 Alpha MOs
 -- Occupied --
-10.073  -0.765  -0.431  -0.368
 -- Virtual --
 -0.063   0.037   0.117   0.117   0.119   0.162   0.210   0.525
  0.605   0.610   0.611   0.658   0.659   0.749   0.750   0.788
  1.084   1.119   1.124   1.481   2.427   2.661   2.663   2.883
  2.883   2.884   2.885   2.941   2.945   3.075   3.183   3.274
  3.278   3.393   3.395   3.746   4.137   4.141   5.194  23.557
 27.136  27.140  27.635  40.703  40.793  41.046  41.065  41.067
 
 Beta MOs
 -- Occupied --
-10.057  -0.722  -0.406
 -- Virtual --
 -0.046  -0.008   0.037   0.118   0.121   0.133   0.160   0.216
  0.531   0.615   0.621   0.651   0.665   0.686   0.784   0.787
  0.811   1.096   1.122   1.140   1.491   2.436   2.682   2.726
  2.922   2.924   2.934   2.937   2.960   2.990   3.100   3.205
  3.343   3.345   3.414   3.453   3.765   4.139   4.153   5.205
 23.580  27.147  27.171  27.647  40.732  40.810  41.074  41.075
 41.096
 --------------------------------------------------------------
 
          Ground-State Mulliken Net Atomic Charges

     Atom                 Charge (a.u.)    Spin (a.u.)
  --------------------------------------------------------
      1 C                    -0.110867       1.022168
      2 H                     0.110867      -0.022168
  --------------------------------------------------------
  Sum of atomic charges =     0.000000
  Sum of spin   charges =     1.000000

 -----------------------------------------------------------------
                    Cartesian Multipole Moments
 -----------------------------------------------------------------
    Charge (ESU x 10^10)
                 0.0000
    Dipole Moment (Debye)
         X       0.0000      Y       0.0000      Z       1.6195
       Tot       1.6195
    Quadrupole Moments (Debye-Ang)
        XX      -7.0311     XY      -1.0581     YY      -7.0303
        XZ       0.0000     YZ       0.0000     ZZ      -7.4329
    Octapole Moments (Debye-Ang^2)
       XXX       0.0000    XXY       0.0000    XYY       0.0000
       YYY       0.0000    XXZ      -0.3679    XYZ      -0.0565
       YYZ      -0.3679    XZZ       0.0000    YZZ       0.0000
       ZZZ      -0.4858
    Hexadecapole Moments (Debye-Ang^3)
      XXXX      -9.0601   XXXY      -1.2926   XXYY      -3.0196
      XYYY      -1.2926   YYYY      -9.0582   XXXZ       0.0000
      XXYZ       0.0000   XYYZ       0.0000   YYYZ       0.0000
      XXZZ      -4.5349   XYZZ      -0.4428   YYZZ      -4.5346
      XZZZ       0.0000   YZZZ       0.0000   ZZZZ     -16.5411
 -----------------------------------------------------------------
 Calculating analytic gradient of the SCF energy
 Gradient of AOints
            1           2
    1  -0.0000035   0.0000035
    2   0.0000034  -0.0000034
    3   1.3050743  -1.3050743
 Gradient of XC Energy
            1           2
    1  -0.0000001   0.0000001
    2   0.0000001  -0.0000001
    3  -0.1279283   0.1279283
 Gradient of SCF Energy
            1           2
    1   0.0000000  -0.0000000
    2  -0.0000000   0.0000000
    3   0.0001719  -0.0001719
 Max gradient component =       1.719E-04
 RMS gradient           =       9.926E-05
 Gradient time:  CPU 1.38 s  wall 1.42 s
 ######################################################
 ######################################################
 # Starting finite difference calculation for IDERIV  #
 Finite diff step size: 1.89e-03 a.u.
 Writing REM_CC_EA            2
 ----------------------------------------------------
       Standard Nuclear Orientation (Angstroms)
    I     Atom         X            Y            Z
 ----------------------------------------------------
    1      C       0.001000     0.000000    -0.000207
    2      H       0.000000     0.000000     1.133306
 ----------------------------------------------------
 Nuclear Repulsion Energy =     2.8010792940 hartrees
 There are        4 alpha and        3 beta electrons

                       Distance Matrix (Angstroms)
             C (  1)
   H (  2)  1.133514
 
 Requested basis set is G3large
 There are 16 shells and 52 basis functions
 A cutoff of  1.0D-11 yielded    136 shell pairs
 There are   1462 function pairs (  1834 Cartesian)
Evaluating contribution to one-electron hamiltonian from nuclear
 Smallest overlap matrix eigenvalue = 4.17E-03
 Multipole matrices computed through 2nd order
 Guess MOs from SCF MO coefficient file
Reading MOs from coefficient file
Reading MOs from coefficient file
 An unrestricted hybrid HF-DFT SCF calculation will be
 performed using Pulay DIIS extrapolation
 Exchange:     1.0000 Hartree-Fock + 1.0000 BNL
 Correlation:  1.0000 LYP
 Using SG-1 standard quadrature grid
 SCF converges when DIIS error is below 1.0E-08
 ---------------------------------------
  Cycle       Energy         DIIS Error
 ---------------------------------------
    1     -37.9920611826      1.39E-05
    2     -37.9920613997      2.88E-06
    3     -37.9920614206      1.65E-06
    4     -37.9920614312      6.65E-07
    5     -37.9920614336      2.50E-07
    6     -37.9920614340      7.82E-08
    7     -37.9920614340      3.76E-08
    8     -37.9920614340      1.25E-08
    9     -37.9920614340      5.65E-09 Convergence criterion met
 ---------------------------------------
 One-Electron    Energy =   -56.5054376412
 Total Coulomb   Energy =    20.7963591220
 Alpha Exchange  Energy =    -0.7165105632
 Beta  Exchange  Energy =    -0.5397080372
 DFT   Exchange  Energy =    -3.6310319914
 DFT Correlation Energy =    -0.1968116169
 Nuclear Repu.   Energy =     2.8010792940
 Nuclear Attr.   Energy =   -94.3122973119
 Kinetic         Energy =    37.8068596706
 <S^2> = 0.7525
 SCF time:  CPU 5.02 s  wall 5.40 s
 Final Alpha MO Eigenvalues
            1           2           3           4           5           6
    1 -10.0731680  -0.7653525  -0.4313916  -0.3679517  -0.0634423   0.0368407
            7           8           9
    1   0.1165491   0.1167024   0.1188907
 Final Beta MO Eigenvalues
            1           2           3           4           5           6
    1 -10.0567678  -0.7215266  -0.4059326  -0.0455200  -0.0083390   0.0366258
            7           8
    1   0.1177178   0.1207920
 Analysis of SCF Wavefunction
 
 --------------------------------------------------------------
                    Orbital Energies (a.u.)
 --------------------------------------------------------------
 
 Alpha MOs
 -- Occupied --
-10.073  -0.765  -0.431  -0.368
 -- Virtual --
 -0.063   0.037   0.117   0.117   0.119   0.162   0.210   0.525
  0.605   0.610   0.611   0.658   0.659   0.749   0.750   0.788
  1.084   1.119   1.124   1.481   2.427   2.661   2.663   2.883
  2.883   2.884   2.885   2.941   2.945   3.075   3.183   3.274
  3.278   3.393   3.395   3.746   4.137   4.141   5.194  23.557
 27.136  27.140  27.635  40.703  40.793  41.046  41.065  41.067
 
 Beta MOs
 -- Occupied --
-10.057  -0.722  -0.406
 -- Virtual --
 -0.046  -0.008   0.037   0.118   0.121   0.133   0.160   0.216
  0.531   0.615   0.621   0.651   0.665   0.686   0.784   0.787
  0.811   1.096   1.122   1.140   1.491   2.436   2.682   2.726
  2.922   2.924   2.934   2.937   2.960   2.990   3.100   3.205
  3.343   3.345   3.414   3.453   3.765   4.139   4.153   5.205
 23.580  27.147  27.171  27.647  40.732  40.810  41.074  41.075
 41.096
 --------------------------------------------------------------
 
          Ground-State Mulliken Net Atomic Charges

     Atom                 Charge (a.u.)    Spin (a.u.)
  --------------------------------------------------------
      1 C                    -0.110867       1.022168
      2 H                     0.110867      -0.022168
  --------------------------------------------------------
  Sum of atomic charges =     0.000000
  Sum of spin   charges =     1.000000

 -----------------------------------------------------------------
                    Cartesian Multipole Moments
 -----------------------------------------------------------------
    Charge (ESU x 10^10)
                 0.0000
    Dipole Moment (Debye)
         X      -0.0014      Y       0.0000      Z       1.6195
       Tot       1.6195
    Quadrupole Moments (Debye-Ang)
        XX      -7.0311     XY      -1.0581     YY      -7.0303
        XZ       0.0020     YZ      -0.0009     ZZ      -7.4329
    Octapole Moments (Debye-Ang^2)
       XXX      -0.0201    XXY      -0.0020    XYY      -0.0067
       YYY       0.0000    XXZ      -0.3679    XYZ      -0.0565
       YYZ      -0.3679    XZZ      -0.0076    YZZ      -0.0001
       ZZZ      -0.4858
    Hexadecapole Moments (Debye-Ang^3)
      XXXX      -9.0602   XXXY      -1.2926   XXYY      -3.0197
      XYYY      -1.2926   YYYY      -9.0582   XXXZ       0.0029
      XXYZ      -0.0005   XYYZ       0.0010   YYYZ      -0.0011
      XXZZ      -4.5349   XYZZ      -0.4428   YYZZ      -4.5346
      XZZZ       0.0021   YZZZ      -0.0011   ZZZZ     -16.5411
 -----------------------------------------------------------------
 Calculating analytic gradient of the SCF energy
 Gradient of AOints
            1           2
    1  -0.0011547   0.0011547
    2   0.0000029  -0.0000029
    3   1.3050739  -1.3050739
 Gradient of XC Energy
            1           2
    1   0.0001127  -0.0001127
    2   0.0000001  -0.0000001
    3  -0.1279282   0.1279282
 Gradient of SCF Energy
            1           2
    1  -0.0000002   0.0000002
    2   0.0000000  -0.0000000
    3   0.0001717  -0.0001717
 Max gradient component =       1.717E-04
 RMS gradient           =       9.912E-05
 Gradient time:  CPU 1.41 s  wall 1.45 s
 Writing REM_CC_EA            2
 ----------------------------------------------------
       Standard Nuclear Orientation (Angstroms)
    I     Atom         X            Y            Z
 ----------------------------------------------------
    1      C      -0.001000     0.000000    -0.000207
    2      H       0.000000     0.000000     1.133306
 ----------------------------------------------------
 Nuclear Repulsion Energy =     2.8010792940 hartrees
 There are        4 alpha and        3 beta electrons

                       Distance Matrix (Angstroms)
             C (  1)
   H (  2)  1.133514
 
 Requested basis set is G3large
 There are 16 shells and 52 basis functions
 A cutoff of  1.0D-11 yielded    136 shell pairs
 There are   1462 function pairs (  1834 Cartesian)
Evaluating contribution to one-electron hamiltonian from nuclear
 Smallest overlap matrix eigenvalue = 4.17E-03
 Multipole matrices computed through 2nd order
 Guess MOs from SCF MO coefficient file
Reading MOs from coefficient file
Reading MOs from coefficient file
 An unrestricted hybrid HF-DFT SCF calculation will be
 performed using Pulay DIIS extrapolation
 Exchange:     1.0000 Hartree-Fock + 1.0000 BNL
 Correlation:  1.0000 LYP
 Using SG-1 standard quadrature grid
 SCF converges when DIIS error is below 1.0E-08
 ---------------------------------------
  Cycle       Energy         DIIS Error
 ---------------------------------------
    1     -37.9920605533      2.77E-05
    2     -37.9920612967      5.76E-06
    3     -37.9920613806      3.29E-06
    4     -37.9920614229      1.33E-06
    5     -37.9920614325      4.98E-07
    6     -37.9920614339      1.56E-07
    7     -37.9920614340      7.61E-08
    8     -37.9920614341      2.62E-08
    9     -37.9920614341      1.18E-08
   10     -37.9920614341      3.77E-09 Convergence criterion met
 ---------------------------------------
 One-Electron    Energy =   -56.5054377979
 Total Coulomb   Energy =    20.7963593046
 Alpha Exchange  Energy =    -0.7165105649
 Beta  Exchange  Energy =    -0.5397080381
 DFT   Exchange  Energy =    -3.6310320135
 DFT Correlation Energy =    -0.1968116182
 Nuclear Repu.   Energy =     2.8010792940
 Nuclear Attr.   Energy =   -94.3122976639
 Kinetic         Energy =    37.8068598660
 <S^2> = 0.7525
 SCF time:  CPU 5.58 s  wall 5.98 s
 Final Alpha MO Eigenvalues
            1           2           3           4           5           6
    1 -10.0731680  -0.7653525  -0.4313916  -0.3679516  -0.0634423   0.0368407
            7           8           9
    1   0.1165491   0.1167024   0.1188907
 Final Beta MO Eigenvalues
            1           2           3           4           5           6
    1 -10.0567677  -0.7215266  -0.4059326  -0.0455200  -0.0083390   0.0366258
            7           8
    1   0.1177178   0.1207920
 Analysis of SCF Wavefunction
 
 --------------------------------------------------------------
                    Orbital Energies (a.u.)
 --------------------------------------------------------------
 
 Alpha MOs
 -- Occupied --
-10.073  -0.765  -0.431  -0.368
 -- Virtual --
 -0.063   0.037   0.117   0.117   0.119   0.162   0.210   0.525
  0.605   0.610   0.611   0.658   0.659   0.749   0.750   0.788
  1.084   1.119   1.124   1.481   2.427   2.661   2.663   2.883
  2.883   2.884   2.885   2.941   2.945   3.075   3.183   3.274
  3.278   3.393   3.395   3.746   4.137   4.141   5.194  23.557
 27.136  27.140  27.635  40.703  40.793  41.046  41.065  41.067
 
 Beta MOs
 -- Occupied --
-10.057  -0.722  -0.406
 -- Virtual --
 -0.046  -0.008   0.037   0.118   0.121   0.133   0.160   0.216
  0.531   0.615   0.621   0.651   0.665   0.686   0.784   0.787
  0.811   1.096   1.122   1.140   1.491   2.436   2.682   2.726
  2.922   2.924   2.934   2.937   2.960   2.990   3.100   3.205
  3.343   3.345   3.414   3.453   3.765   4.139   4.153   5.205
 23.580  27.147  27.171  27.647  40.732  40.810  41.074  41.075
 41.096
 --------------------------------------------------------------
 
          Ground-State Mulliken Net Atomic Charges

     Atom                 Charge (a.u.)    Spin (a.u.)
  --------------------------------------------------------
      1 C                    -0.110867       1.022168
      2 H                     0.110867      -0.022168
  --------------------------------------------------------
  Sum of atomic charges =     0.000000
  Sum of spin   charges =     1.000000

 -----------------------------------------------------------------
                    Cartesian Multipole Moments
 -----------------------------------------------------------------
    Charge (ESU x 10^10)
                 0.0000
    Dipole Moment (Debye)
         X       0.0014      Y       0.0000      Z       1.6195
       Tot       1.6195
    Quadrupole Moments (Debye-Ang)
        XX      -7.0311     XY      -1.0581     YY      -7.0303
        XZ      -0.0020     YZ       0.0009     ZZ      -7.4329
    Octapole Moments (Debye-Ang^2)
       XXX       0.0201    XXY       0.0020    XYY       0.0067
       YYY       0.0000    XXZ      -0.3679    XYZ      -0.0565
       YYZ      -0.3679    XZZ       0.0077    YZZ       0.0001
       ZZZ      -0.4858
    Hexadecapole Moments (Debye-Ang^3)
      XXXX      -9.0602   XXXY      -1.2926   XXYY      -3.0197
      XYYY      -1.2926   YYYY      -9.0582   XXXZ      -0.0029
      XXYZ       0.0005   XYYZ      -0.0010   YYYZ       0.0012
      XXZZ      -4.5349   XYZZ      -0.4428   YYZZ      -4.5346
      XZZZ      -0.0021   YZZZ       0.0012   ZZZZ     -16.5411
 -----------------------------------------------------------------
 Calculating analytic gradient of the SCF energy
 Gradient of AOints
            1           2
    1   0.0011488  -0.0011488
    2   0.0000026  -0.0000026
    3   1.3050739  -1.3050739
 Gradient of XC Energy
            1           2
    1  -0.0001128   0.0001128
    2   0.0000001  -0.0000001
    3  -0.1279282   0.1279282
 Gradient of SCF Energy
            1           2
    1   0.0000002  -0.0000002
    2  -0.0000000   0.0000000
    3   0.0001717  -0.0001717
 Max gradient component =       1.717E-04
 RMS gradient           =       9.913E-05
 Gradient time:  CPU 1.41 s  wall 1.45 s
 Writing REM_CC_EA            2
 ----------------------------------------------------
       Standard Nuclear Orientation (Angstroms)
    I     Atom         X            Y            Z
 ----------------------------------------------------
    1      C       0.000000     0.001000    -0.000207
    2      H       0.000000     0.000000     1.133306
 ----------------------------------------------------
 Nuclear Repulsion Energy =     2.8010792940 hartrees
 There are        4 alpha and        3 beta electrons

                       Distance Matrix (Angstroms)
             C (  1)
   H (  2)  1.133514
 
 Requested basis set is G3large
 There are 16 shells and 52 basis functions
 A cutoff of  1.0D-11 yielded    136 shell pairs
 There are   1462 function pairs (  1834 Cartesian)
Evaluating contribution to one-electron hamiltonian from nuclear
 Smallest overlap matrix eigenvalue = 4.17E-03
 Multipole matrices computed through 2nd order
 Guess MOs from SCF MO coefficient file
Reading MOs from coefficient file
Reading MOs from coefficient file
 An unrestricted hybrid HF-DFT SCF calculation will be
 performed using Pulay DIIS extrapolation
 Exchange:     1.0000 Hartree-Fock + 1.0000 BNL
 Correlation:  1.0000 LYP
 Using SG-1 standard quadrature grid
 SCF converges when DIIS error is below 1.0E-08
 ---------------------------------------
  Cycle       Energy         DIIS Error
 ---------------------------------------
    1     -37.9920610683      2.04E-05
    2     -37.9920613769      3.43E-06
    3     -37.9920614113      1.68E-06
    4     -37.9920614273      8.41E-07
    5     -37.9920614329      3.42E-07
    6     -37.9920614340      1.18E-07
    7     -37.9920614341      2.78E-08
    8     -37.9920614341      6.41E-09 Convergence criterion met
 ---------------------------------------
 One-Electron    Energy =   -56.5054379584
 Total Coulomb   Energy =    20.7963594928
 Alpha Exchange  Energy =    -0.7165105668
 Beta  Exchange  Energy =    -0.5397080391
 DFT   Exchange  Energy =    -3.6310320372
 DFT Correlation Energy =    -0.1968116193
 Nuclear Repu.   Energy =     2.8010792940
 Nuclear Attr.   Energy =   -94.3122980332
 Kinetic         Energy =    37.8068600748
 <S^2> = 0.7525
 SCF time:  CPU 4.57 s  wall 5.11 s
 Final Alpha MO Eigenvalues
            1           2           3           4           5           6
    1 -10.0731679  -0.7653525  -0.4313916  -0.3679516  -0.0634423   0.0368407
            7           8           9
    1   0.1165491   0.1167024   0.1188907
 Final Beta MO Eigenvalues
            1           2           3           4           5           6
    1 -10.0567677  -0.7215266  -0.4059326  -0.0455200  -0.0083390   0.0366258
            7           8
    1   0.1177178   0.1207920
 Analysis of SCF Wavefunction
 
 --------------------------------------------------------------
                    Orbital Energies (a.u.)
 --------------------------------------------------------------
 
 Alpha MOs
 -- Occupied --
-10.073  -0.765  -0.431  -0.368
 -- Virtual --
 -0.063   0.037   0.117   0.117   0.119   0.162   0.210   0.525
  0.605   0.610   0.611   0.658   0.659   0.749   0.750   0.788
  1.084   1.119   1.124   1.481   2.427   2.661   2.663   2.883
  2.883   2.884   2.885   2.941   2.945   3.075   3.183   3.274
  3.278   3.393   3.395   3.746   4.137   4.141   5.194  23.557
 27.136  27.140  27.635  40.703  40.793  41.046  41.065  41.067
 
 Beta MOs
 -- Occupied --
-10.057  -0.722  -0.406
 -- Virtual --
 -0.046  -0.008   0.037   0.118   0.121   0.133   0.160   0.216
  0.531   0.615   0.621   0.651   0.665   0.686   0.784   0.787
  0.811   1.096   1.122   1.140   1.491   2.436   2.682   2.726
  2.922   2.924   2.934   2.937   2.960   2.990   3.100   3.205
  3.343   3.345   3.414   3.453   3.765   4.139   4.153   5.205
 23.580  27.147  27.171  27.647  40.732  40.810  41.074  41.075
 41.096
 --------------------------------------------------------------
 
          Ground-State Mulliken Net Atomic Charges

     Atom                 Charge (a.u.)    Spin (a.u.)
  --------------------------------------------------------
      1 C                    -0.110867       1.022168
      2 H                     0.110867      -0.022168
  --------------------------------------------------------
  Sum of atomic charges =     0.000000
  Sum of spin   charges =     1.000000

 -----------------------------------------------------------------
                    Cartesian Multipole Moments
 -----------------------------------------------------------------
    Charge (ESU x 10^10)
                 0.0000
    Dipole Moment (Debye)
         X       0.0000      Y      -0.0014      Z       1.6195
       Tot       1.6195
    Quadrupole Moments (Debye-Ang)
        XX      -7.0311     XY      -1.0581     YY      -7.0303
        XZ      -0.0009     YZ       0.0020     ZZ      -7.4329
    Octapole Moments (Debye-Ang^2)
       XXX       0.0000    XXY      -0.0067    XYY      -0.0020
       YYY      -0.0201    XXZ      -0.3679    XYZ      -0.0565
       YYZ      -0.3679    XZZ      -0.0001    YZZ      -0.0077
       ZZZ      -0.4858
    Hexadecapole Moments (Debye-Ang^3)
      XXXX      -9.0601   XXXY      -1.2926   XXYY      -3.0197
      XYYY      -1.2926   YYYY      -9.0582   XXXZ      -0.0012
      XXYZ       0.0010   XYYZ      -0.0005   YYYZ       0.0029
      XXZZ      -4.5349   XYZZ      -0.4428   YYZZ      -4.5346
      XZZZ      -0.0012   YZZZ       0.0021   ZZZZ     -16.5411
 -----------------------------------------------------------------
 Calculating analytic gradient of the SCF energy
 Gradient of AOints
            1           2
    1  -0.0000023   0.0000023
    2  -0.0011491   0.0011491
    3   1.3050739  -1.3050739
 Gradient of XC Energy
            1           2
    1  -0.0000001   0.0000001
    2   0.0001128  -0.0001128
    3  -0.1279282   0.1279282
 Gradient of SCF Energy
            1           2
    1   0.0000000  -0.0000000
    2  -0.0000002   0.0000002
    3   0.0001717  -0.0001717
 Max gradient component =       1.717E-04
 RMS gradient           =       9.913E-05
 Gradient time:  CPU 1.39 s  wall 1.44 s
 Writing REM_CC_EA            2
 ----------------------------------------------------
       Standard Nuclear Orientation (Angstroms)
    I     Atom         X            Y            Z
 ----------------------------------------------------
    1      C       0.000000    -0.001000    -0.000207
    2      H       0.000000     0.000000     1.133306
 ----------------------------------------------------
 Nuclear Repulsion Energy =     2.8010792940 hartrees
 There are        4 alpha and        3 beta electrons

                       Distance Matrix (Angstroms)
             C (  1)
   H (  2)  1.133514
 
 Requested basis set is G3large
 There are 16 shells and 52 basis functions
 A cutoff of  1.0D-11 yielded    136 shell pairs
 There are   1462 function pairs (  1834 Cartesian)
Evaluating contribution to one-electron hamiltonian from nuclear
 Smallest overlap matrix eigenvalue = 4.17E-03
 Multipole matrices computed through 2nd order
 Guess MOs from SCF MO coefficient file
Reading MOs from coefficient file
Reading MOs from coefficient file
 An unrestricted hybrid HF-DFT SCF calculation will be
 performed using Pulay DIIS extrapolation
 Exchange:     1.0000 Hartree-Fock + 1.0000 BNL
 Correlation:  1.0000 LYP
 Using SG-1 standard quadrature grid
 SCF converges when DIIS error is below 1.0E-08
 ---------------------------------------
  Cycle       Energy         DIIS Error
 ---------------------------------------
    1     -37.9920605529      2.77E-05
    2     -37.9920612968      5.76E-06
    3     -37.9920613806      3.29E-06
    4     -37.9920614229      1.33E-06
    5     -37.9920614326      4.99E-07
    6     -37.9920614339      1.56E-07
    7     -37.9920614341      7.56E-08
    8     -37.9920614341      2.56E-08
    9     -37.9920614341      1.14E-08
   10     -37.9920614341      3.54E-09 Convergence criterion met
 ---------------------------------------
 One-Electron    Energy =   -56.5054377893
 Total Coulomb   Energy =    20.7963592941
 Alpha Exchange  Energy =    -0.7165105646
 Beta  Exchange  Energy =    -0.5397080381
 DFT   Exchange  Energy =    -3.6310320117
 DFT Correlation Energy =    -0.1968116184
 Nuclear Repu.   Energy =     2.8010792940
 Nuclear Attr.   Energy =   -94.3122976464
 Kinetic         Energy =    37.8068598571
 <S^2> = 0.7525
 SCF time:  CPU 5.57 s  wall 5.99 s
 Final Alpha MO Eigenvalues
            1           2           3           4           5           6
    1 -10.0731680  -0.7653525  -0.4313916  -0.3679516  -0.0634423   0.0368407
            7           8           9
    1   0.1165491   0.1167024   0.1188907
 Final Beta MO Eigenvalues
            1           2           3           4           5           6
    1 -10.0567677  -0.7215266  -0.4059326  -0.0455200  -0.0083390   0.0366258
            7           8
    1   0.1177178   0.1207920
 Analysis of SCF Wavefunction
 
 --------------------------------------------------------------
                    Orbital Energies (a.u.)
 --------------------------------------------------------------
 
 Alpha MOs
 -- Occupied --
-10.073  -0.765  -0.431  -0.368
 -- Virtual --
 -0.063   0.037   0.117   0.117   0.119   0.162   0.210   0.525
  0.605   0.610   0.611   0.658   0.659   0.749   0.750   0.788
  1.084   1.119   1.124   1.481   2.427   2.661   2.663   2.883
  2.883   2.884   2.885   2.941   2.945   3.075   3.183   3.274
  3.278   3.393   3.395   3.746   4.137   4.141   5.194  23.557
 27.136  27.140  27.635  40.703  40.793  41.046  41.065  41.067
 
 Beta MOs
 -- Occupied --
-10.057  -0.722  -0.406
 -- Virtual --
 -0.046  -0.008   0.037   0.118   0.121   0.133   0.160   0.216
  0.531   0.615   0.621   0.651   0.665   0.686   0.784   0.787
  0.811   1.096   1.122   1.140   1.491   2.436   2.682   2.726
  2.922   2.924   2.934   2.937   2.960   2.990   3.100   3.205
  3.343   3.345   3.414   3.453   3.765   4.139   4.153   5.205
 23.580  27.147  27.171  27.647  40.732  40.810  41.074  41.075
 41.096
 --------------------------------------------------------------
 
          Ground-State Mulliken Net Atomic Charges

     Atom                 Charge (a.u.)    Spin (a.u.)
  --------------------------------------------------------
      1 C                    -0.110867       1.022168
      2 H                     0.110867      -0.022168
  --------------------------------------------------------
  Sum of atomic charges =     0.000000
  Sum of spin   charges =     1.000000

 -----------------------------------------------------------------
                    Cartesian Multipole Moments
 -----------------------------------------------------------------
    Charge (ESU x 10^10)
                 0.0000
    Dipole Moment (Debye)
         X       0.0000      Y       0.0014      Z       1.6195
       Tot       1.6195
    Quadrupole Moments (Debye-Ang)
        XX      -7.0311     XY      -1.0581     YY      -7.0303
        XZ       0.0009     YZ      -0.0020     ZZ      -7.4329
    Octapole Moments (Debye-Ang^2)
       XXX       0.0000    XXY       0.0067    XYY       0.0020
       YYY       0.0201    XXZ      -0.3679    XYZ      -0.0565
       YYZ      -0.3679    XZZ       0.0001    YZZ       0.0076
       ZZZ      -0.4858
    Hexadecapole Moments (Debye-Ang^3)
      XXXX      -9.0601   XXXY      -1.2926   XXYY      -3.0197
      XYYY      -1.2926   YYYY      -9.0582   XXXZ       0.0011
      XXYZ      -0.0010   XYYZ       0.0005   YYYZ      -0.0029
      XXZZ      -4.5349   XYZZ      -0.4428   YYZZ      -4.5346
      XZZZ       0.0011   YZZZ      -0.0021   ZZZZ     -16.5411
 -----------------------------------------------------------------
 Calculating analytic gradient of the SCF energy
 Gradient of AOints
            1           2
    1  -0.0000022   0.0000022
    2   0.0011536  -0.0011536
    3   1.3050739  -1.3050739
 Gradient of XC Energy
            1           2
    1  -0.0000000   0.0000000
    2  -0.0001127   0.0001127
    3  -0.1279282   0.1279282
 Gradient of SCF Energy
            1           2
    1  -0.0000000   0.0000000
    2   0.0000002  -0.0000002
    3   0.0001717  -0.0001717
 Max gradient component =       1.717E-04
 RMS gradient           =       9.913E-05
 Gradient time:  CPU 1.41 s  wall 2.41 s
 Writing REM_CC_EA            2
 ----------------------------------------------------
       Standard Nuclear Orientation (Angstroms)
    I     Atom         X            Y            Z
 ----------------------------------------------------
    1      C       0.000000     0.000000     0.000793
    2      H       0.000000     0.000000     1.133306
 ----------------------------------------------------
 Nuclear Repulsion Energy =     2.8035537140 hartrees
 There are        4 alpha and        3 beta electrons

                       Distance Matrix (Angstroms)
             C (  1)
   H (  2)  1.132514
 
 Requested basis set is G3large
 There are 16 shells and 52 basis functions
 A cutoff of  1.0D-11 yielded    136 shell pairs
 There are   1462 function pairs (  1834 Cartesian)
Evaluating contribution to one-electron hamiltonian from nuclear
 Smallest overlap matrix eigenvalue = 4.16E-03
 Multipole matrices computed through 2nd order
 Guess MOs from SCF MO coefficient file
Reading MOs from coefficient file
Reading MOs from coefficient file
 An unrestricted hybrid HF-DFT SCF calculation will be
 performed using Pulay DIIS extrapolation
 Exchange:     1.0000 Hartree-Fock + 1.0000 BNL
 Correlation:  1.0000 LYP
 Using SG-1 standard quadrature grid
 SCF converges when DIIS error is below 1.0E-08
 ---------------------------------------
  Cycle       Energy         DIIS Error
 ---------------------------------------
    1     -37.9921308138      5.65E-05
    2     -37.9920605449      8.58E-06
    3     -37.9920605911      2.83E-06
    4     -37.9920605998      1.27E-06
    5     -37.9920606050      7.04E-07
    6     -37.9920606071      2.63E-07
    7     -37.9920606075      7.40E-08
    8     -37.9920606076      3.10E-08
    9     -37.9920606076      1.36E-08
   10     -37.9920606076      4.15E-09 Convergence criterion met
 ---------------------------------------
 One-Electron    Energy =   -56.5099462540
 Total Coulomb   Energy =    20.7987185023
 Alpha Exchange  Energy =    -0.7165332824
 Beta  Exchange  Energy =    -0.5397331642
 DFT   Exchange  Energy =    -3.6312946921
 DFT Correlation Energy =    -0.1968254311
 Nuclear Repu.   Energy =     2.8035537140
 Nuclear Attr.   Energy =   -94.3178360758
 Kinetic         Energy =    37.8078898218
 <S^2> = 0.7525
 SCF time:  CPU 5.60 s  wall 5.99 s
 Final Alpha MO Eigenvalues
            1           2           3           4           5           6
    1 -10.0730712  -0.7655604  -0.4314157  -0.3679516  -0.0634444   0.0368413
            7           8           9
    1   0.1165508   0.1167122   0.1188918
 Final Beta MO Eigenvalues
            1           2           3           4           5           6
    1 -10.0566737  -0.7217519  -0.4059386  -0.0455244  -0.0083437   0.0366199
            7           8
    1   0.1177280   0.1207919
 Analysis of SCF Wavefunction
 
 --------------------------------------------------------------
                    Orbital Energies (a.u.)
 --------------------------------------------------------------
 
 Alpha MOs
 -- Occupied --
-10.073  -0.766  -0.431  -0.368
 -- Virtual --
 -0.063   0.037   0.117   0.117   0.119   0.162   0.210   0.526
  0.605   0.610   0.611   0.658   0.660   0.749   0.750   0.788
  1.085   1.119   1.125   1.481   2.426   2.661   2.663   2.883
  2.883   2.884   2.885   2.941   2.945   3.076   3.184   3.275
  3.278   3.393   3.395   3.747   4.138   4.142   5.197  23.559
 27.136  27.140  27.636  40.703  40.794  41.046  41.065  41.067
 
 Beta MOs
 -- Occupied --
-10.057  -0.722  -0.406
 -- Virtual --
 -0.046  -0.008   0.037   0.118   0.121   0.133   0.160   0.216
  0.531   0.615   0.621   0.651   0.665   0.686   0.784   0.787
  0.810   1.096   1.122   1.141   1.491   2.435   2.683   2.726
  2.922   2.924   2.934   2.937   2.960   2.990   3.100   3.205
  3.343   3.345   3.414   3.453   3.766   4.140   4.154   5.208
 23.582  27.147  27.171  27.647  40.732  40.810  41.074  41.075
 41.096
 --------------------------------------------------------------
 
          Ground-State Mulliken Net Atomic Charges

     Atom                 Charge (a.u.)    Spin (a.u.)
  --------------------------------------------------------
      1 C                    -0.111204       1.022090
      2 H                     0.111204      -0.022090
  --------------------------------------------------------
  Sum of atomic charges =     0.000000
  Sum of spin   charges =     1.000000

 -----------------------------------------------------------------
                    Cartesian Multipole Moments
 -----------------------------------------------------------------
    Charge (ESU x 10^10)
                 0.0000
    Dipole Moment (Debye)
         X       0.0000      Y       0.0000      Z       1.6211
       Tot       1.6211
    Quadrupole Moments (Debye-Ang)
        XX      -7.0302     XY      -1.0581     YY      -7.0294
        XZ       0.0000     YZ       0.0000     ZZ      -7.4293
    Octapole Moments (Debye-Ang^2)
       XXX       0.0000    XXY       0.0000    XYY       0.0000
       YYY       0.0000    XXZ      -0.3721    XYZ      -0.0576
       YYZ      -0.3720    XZZ       0.0000    YZZ       0.0000
       ZZZ      -0.5022
    Hexadecapole Moments (Debye-Ang^3)
      XXXX      -9.0593   XXXY      -1.2926   XXYY      -3.0194
      XYYY      -1.2926   YYYY      -9.0574   XXXZ       0.0000
      XXYZ       0.0000   XYYZ       0.0000   YYYZ       0.0000
      XXZZ      -4.5318   XYZZ      -0.4429   YYZZ      -4.5315
      XZZZ       0.0000   YZZZ       0.0000   ZZZZ     -16.5268
 -----------------------------------------------------------------
 Calculating analytic gradient of the SCF energy
 Gradient of AOints
            1           2
    1  -0.0000022   0.0000022
    2   0.0000017  -0.0000017
    3   1.3048653  -1.3048653
 Gradient of XC Energy
            1           2
    1  -0.0000000   0.0000000
    2   0.0000001  -0.0000001
    3  -0.1279629   0.1279629
 Gradient of SCF Energy
            1           2
    1   0.0000000  -0.0000000
    2   0.0000000  -0.0000000
    3   0.0007031  -0.0007031
 Max gradient component =       7.031E-04
 RMS gradient           =       4.059E-04
 Gradient time:  CPU 1.41 s  wall 1.44 s
 Writing REM_CC_EA            2
 ----------------------------------------------------
       Standard Nuclear Orientation (Angstroms)
    I     Atom         X            Y            Z
 ----------------------------------------------------
    1      C       0.000000     0.000000    -0.001207
    2      H       0.000000     0.000000     1.133306
 ----------------------------------------------------
 Nuclear Repulsion Energy =     2.7986114141 hartrees
 There are        4 alpha and        3 beta electrons

                       Distance Matrix (Angstroms)
             C (  1)
   H (  2)  1.134514
 
 Requested basis set is G3large
 There are 16 shells and 52 basis functions
 A cutoff of  1.0D-11 yielded    136 shell pairs
 There are   1462 function pairs (  1834 Cartesian)
Evaluating contribution to one-electron hamiltonian from nuclear
 Smallest overlap matrix eigenvalue = 4.19E-03
 Multipole matrices computed through 2nd order
 Guess MOs from SCF MO coefficient file
Reading MOs from coefficient file
Reading MOs from coefficient file
 An unrestricted hybrid HF-DFT SCF calculation will be
 performed using Pulay DIIS extrapolation
 Exchange:     1.0000 Hartree-Fock + 1.0000 BNL
 Correlation:  1.0000 LYP
 Using SG-1 standard quadrature grid
 SCF converges when DIIS error is below 1.0E-08
 ---------------------------------------
  Cycle       Energy         DIIS Error
 ---------------------------------------
    1     -37.9919233018      1.09E-04
    2     -37.9920611461      1.62E-05
    3     -37.9920612517      4.43E-06
    4     -37.9920612584      9.37E-07
    5     -37.9920612592      3.44E-07
    6     -37.9920612593      5.15E-08
    7     -37.9920612593      6.56E-09 Convergence criterion met
 ---------------------------------------
 One-Electron    Energy =   -56.5009387314
 Total Coulomb   Energy =    20.7940045969
 Alpha Exchange  Energy =    -0.7164878227
 Beta  Exchange  Energy =    -0.5396829606
 DFT   Exchange  Energy =    -3.6307699268
 DFT Correlation Energy =    -0.1967978289
 Nuclear Repu.   Energy =     2.7986114141
 Nuclear Attr.   Energy =   -94.3067722051
 Kinetic         Energy =    37.8058334737
 <S^2> = 0.7525
 SCF time:  CPU 3.92 s  wall 4.36 s
 Final Alpha MO Eigenvalues
            1           2           3           4           5           6
    1 -10.0732646  -0.7651453  -0.4313675  -0.3679518  -0.0634403   0.0368400
            7           8           9
    1   0.1165473   0.1166925   0.1188896
 Final Beta MO Eigenvalues
            1           2           3           4           5           6
    1 -10.0568617  -0.7213019  -0.4059265  -0.0455157  -0.0083345   0.0366316
            7           8
    1   0.1177076   0.1207921
 Analysis of SCF Wavefunction
 
 --------------------------------------------------------------
                    Orbital Energies (a.u.)
 --------------------------------------------------------------
 
 Alpha MOs
 -- Occupied --
-10.073  -0.765  -0.431  -0.368
 -- Virtual --
 -0.063   0.037   0.117   0.117   0.119   0.162   0.210   0.525
  0.605   0.609   0.611   0.657   0.659   0.749   0.750   0.788
  1.084   1.118   1.124   1.480   2.428   2.661   2.663   2.883
  2.883   2.884   2.885   2.941   2.946   3.075   3.183   3.274
  3.278   3.393   3.395   3.745   4.136   4.139   5.192  23.555
 27.135  27.140  27.635  40.702  40.793  41.045  41.065  41.067
 
 Beta MOs
 -- Occupied --
-10.057  -0.721  -0.406
 -- Virtual --
 -0.046  -0.008   0.037   0.118   0.121   0.133   0.160   0.215
  0.531   0.615   0.621   0.651   0.665   0.686   0.784   0.787
  0.811   1.096   1.122   1.140   1.490   2.437   2.682   2.725
  2.922   2.924   2.934   2.937   2.960   2.990   3.099   3.204
  3.343   3.345   3.414   3.453   3.763   4.137   4.152   5.203
 23.578  27.147  27.170  27.646  40.731  40.809  41.074  41.075
 41.095
 --------------------------------------------------------------
 
          Ground-State Mulliken Net Atomic Charges

     Atom                 Charge (a.u.)    Spin (a.u.)
  --------------------------------------------------------
      1 C                    -0.110532       1.022246
      2 H                     0.110532      -0.022246
  --------------------------------------------------------
  Sum of atomic charges =     0.000000
  Sum of spin   charges =     1.000000

 -----------------------------------------------------------------
                    Cartesian Multipole Moments
 -----------------------------------------------------------------
    Charge (ESU x 10^10)
                 0.0000
    Dipole Moment (Debye)
         X       0.0000      Y       0.0000      Z       1.6180
       Tot       1.6180
    Quadrupole Moments (Debye-Ang)
        XX      -7.0320     XY      -1.0581     YY      -7.0312
        XZ       0.0000     YZ       0.0000     ZZ      -7.4364
    Octapole Moments (Debye-Ang^2)
       XXX       0.0000    XXY       0.0000    XYY       0.0000
       YYY       0.0000    XXZ      -0.3637    XYZ      -0.0554
       YYZ      -0.3637    XZZ       0.0000    YZZ       0.0000
       ZZZ      -0.4693
    Hexadecapole Moments (Debye-Ang^3)
      XXXX      -9.0609   XXXY      -1.2926   XXYY      -3.0199
      XYYY      -1.2926   YYYY      -9.0590   XXXZ       0.0000
      XXYZ       0.0000   XYYZ       0.0000   YYYZ       0.0000
      XXZZ      -4.5380   XYZZ      -0.4427   YYZZ      -4.5377
      XZZZ       0.0000   YZZZ       0.0000   ZZZZ     -16.5554
 -----------------------------------------------------------------
 Calculating analytic gradient of the SCF energy
 Gradient of AOints
            1           2
    1  -0.0000018   0.0000018
    2   0.0000018  -0.0000018
    3   1.3052797  -1.3052797
 Gradient of XC Energy
            1           2
    1  -0.0000000   0.0000000
    2   0.0000000  -0.0000000
    3  -0.1278932   0.1278932
 Gradient of SCF Energy
            1           2
    1   0.0000000  -0.0000000
    2  -0.0000000   0.0000000
    3  -0.0003562   0.0003562
 Max gradient component =       3.562E-04
 RMS gradient           =       2.057E-04
 Gradient time:  CPU 1.41 s  wall 1.46 s
 Writing REM_CC_EA            2
 ----------------------------------------------------
       Standard Nuclear Orientation (Angstroms)
    I     Atom         X            Y            Z
 ----------------------------------------------------
    1      C       0.000000     0.000000    -0.000207
    2      H       0.001000     0.000000     1.133306
 ----------------------------------------------------
 Nuclear Repulsion Energy =     2.8010792940 hartrees
 There are        4 alpha and        3 beta electrons

                       Distance Matrix (Angstroms)
             C (  1)
   H (  2)  1.133514
 
 Requested basis set is G3large
 There are 16 shells and 52 basis functions
 A cutoff of  1.0D-11 yielded    136 shell pairs
 There are   1462 function pairs (  1834 Cartesian)
Evaluating contribution to one-electron hamiltonian from nuclear
 Smallest overlap matrix eigenvalue = 4.17E-03
 Multipole matrices computed through 2nd order
 Guess MOs from SCF MO coefficient file
Reading MOs from coefficient file
Reading MOs from coefficient file
 An unrestricted hybrid HF-DFT SCF calculation will be
 performed using Pulay DIIS extrapolation
 Exchange:     1.0000 Hartree-Fock + 1.0000 BNL
 Correlation:  1.0000 LYP
 Using SG-1 standard quadrature grid
 SCF converges when DIIS error is below 1.0E-08
 ---------------------------------------
  Cycle       Energy         DIIS Error
 ---------------------------------------
    1     -37.9921328693      5.63E-05
    2     -37.9920613716      8.57E-06
    3     -37.9920614177      2.82E-06
    4     -37.9920614264      1.27E-06
    5     -37.9920614315      7.04E-07
    6     -37.9920614337      2.63E-07
    7     -37.9920614341      7.40E-08
    8     -37.9920614341      3.09E-08
    9     -37.9920614341      1.34E-08
   10     -37.9920614341      4.01E-09 Convergence criterion met
 ---------------------------------------
 One-Electron    Energy =   -56.5054377075
 Total Coulomb   Energy =    20.7963591991
 Alpha Exchange  Energy =    -0.7165105659
 Beta  Exchange  Energy =    -0.5397080356
 DFT   Exchange  Energy =    -3.6310320001
 DFT Correlation Energy =    -0.1968116181
 Nuclear Repu.   Energy =     2.8010792940
 Nuclear Attr.   Energy =   -94.3122974534
 Kinetic         Energy =    37.8068597459
 <S^2> = 0.7525
 SCF time:  CPU 5.56 s  wall 6.41 s
 Final Alpha MO Eigenvalues
            1           2           3           4           5           6
    1 -10.0731680  -0.7653525  -0.4313916  -0.3679516  -0.0634423   0.0368407
            7           8           9
    1   0.1165491   0.1167024   0.1188907
 Final Beta MO Eigenvalues
            1           2           3           4           5           6
    1 -10.0567677  -0.7215266  -0.4059326  -0.0455200  -0.0083390   0.0366258
            7           8
    1   0.1177178   0.1207920
 Analysis of SCF Wavefunction
 
 --------------------------------------------------------------
                    Orbital Energies (a.u.)
 --------------------------------------------------------------
 
 Alpha MOs
 -- Occupied --
-10.073  -0.765  -0.431  -0.368
 -- Virtual --
 -0.063   0.037   0.117   0.117   0.119   0.162   0.210   0.525
  0.605   0.610   0.611   0.658   0.659   0.749   0.750   0.788
  1.084   1.119   1.124   1.481   2.427   2.661   2.663   2.883
  2.883   2.884   2.885   2.941   2.945   3.075   3.183   3.274
  3.278   3.393   3.395   3.746   4.137   4.141   5.194  23.557
 27.136  27.140  27.635  40.703  40.793  41.046  41.065  41.067
 
 Beta MOs
 -- Occupied --
-10.057  -0.722  -0.406
 -- Virtual --
 -0.046  -0.008   0.037   0.118   0.121   0.133   0.160   0.216
  0.531   0.615   0.621   0.651   0.665   0.686   0.784   0.787
  0.811   1.096   1.122   1.140   1.491   2.436   2.682   2.726
  2.922   2.924   2.934   2.937   2.960   2.990   3.100   3.205
  3.343   3.345   3.414   3.453   3.765   4.139   4.153   5.205
 23.580  27.147  27.171  27.647  40.732  40.810  41.074  41.075
 41.096
 --------------------------------------------------------------
 
          Ground-State Mulliken Net Atomic Charges

     Atom                 Charge (a.u.)    Spin (a.u.)
  --------------------------------------------------------
      1 C                    -0.110867       1.022168
      2 H                     0.110867      -0.022168
  --------------------------------------------------------
  Sum of atomic charges =     0.000000
  Sum of spin   charges =     1.000000

 -----------------------------------------------------------------
                    Cartesian Multipole Moments
 -----------------------------------------------------------------
    Charge (ESU x 10^10)
                 0.0000
    Dipole Moment (Debye)
         X       0.0014      Y       0.0000      Z       1.6195
       Tot       1.6195
    Quadrupole Moments (Debye-Ang)
        XX      -7.0311     XY      -1.0581     YY      -7.0303
        XZ      -0.0004     YZ       0.0009     ZZ      -7.4329
    Octapole Moments (Debye-Ang^2)
       XXX      -0.0010    XXY      -0.0001    XYY      -0.0003
       YYY       0.0000    XXZ      -0.3679    XYZ      -0.0565
       YYZ      -0.3679    XZZ       0.0002    YZZ       0.0001
       ZZZ      -0.4858
    Hexadecapole Moments (Debye-Ang^3)
      XXXX      -9.0601   XXXY      -1.2926   XXYY      -3.0196
      XYYY      -1.2926   YYYY      -9.0582   XXXZ      -0.0040
      XXYZ       0.0004   XYYZ      -0.0013   YYYZ       0.0012
      XXZZ      -4.5349   XYZZ      -0.4428   YYZZ      -4.5346
      XZZZ      -0.0026   YZZZ       0.0012   ZZZZ     -16.5411
 -----------------------------------------------------------------
 Calculating analytic gradient of the SCF energy
 Gradient of AOints
            1           2
    1   0.0011501  -0.0011501
    2   0.0000017  -0.0000017
    3   1.3050739  -1.3050739
 Gradient of XC Energy
            1           2
    1  -0.0001128   0.0001128
    2   0.0000000  -0.0000000
    3  -0.1279282   0.1279282
 Gradient of SCF Energy
            1           2
    1   0.0000002  -0.0000002
    2  -0.0000000   0.0000000
    3   0.0001717  -0.0001717
 Max gradient component =       1.717E-04
 RMS gradient           =       9.912E-05
 Gradient time:  CPU 1.41 s  wall 1.50 s
 Writing REM_CC_EA            2
 ----------------------------------------------------
       Standard Nuclear Orientation (Angstroms)
    I     Atom         X            Y            Z
 ----------------------------------------------------
    1      C       0.000000     0.000000    -0.000207
    2      H      -0.001000     0.000000     1.133306
 ----------------------------------------------------
 Nuclear Repulsion Energy =     2.8010792940 hartrees
 There are        4 alpha and        3 beta electrons

                       Distance Matrix (Angstroms)
             C (  1)
   H (  2)  1.133514
 
 Requested basis set is G3large
 There are 16 shells and 52 basis functions
 A cutoff of  1.0D-11 yielded    136 shell pairs
 There are   1462 function pairs (  1834 Cartesian)
Evaluating contribution to one-electron hamiltonian from nuclear
 Smallest overlap matrix eigenvalue = 4.17E-03
 Multipole matrices computed through 2nd order
 Guess MOs from SCF MO coefficient file
Reading MOs from coefficient file
Reading MOs from coefficient file
 An unrestricted hybrid HF-DFT SCF calculation will be
 performed using Pulay DIIS extrapolation
 Exchange:     1.0000 Hartree-Fock + 1.0000 BNL
 Correlation:  1.0000 LYP
 Using SG-1 standard quadrature grid
 SCF converges when DIIS error is below 1.0E-08
 ---------------------------------------
  Cycle       Energy         DIIS Error
 ---------------------------------------
    1     -37.9920605532      2.77E-05
    2     -37.9920612968      5.76E-06
    3     -37.9920613807      3.29E-06
    4     -37.9920614230      1.33E-06
    5     -37.9920614326      4.98E-07
    6     -37.9920614339      1.56E-07
    7     -37.9920614341      7.57E-08
    8     -37.9920614341      2.58E-08
    9     -37.9920614341      1.15E-08
   10     -37.9920614341      3.40E-09 Convergence criterion met
 ---------------------------------------
 One-Electron    Energy =   -56.5054377892
 Total Coulomb   Energy =    20.7963592941
 Alpha Exchange  Energy =    -0.7165105648
 Beta  Exchange  Energy =    -0.5397080378
 DFT   Exchange  Energy =    -3.6310320117
 DFT Correlation Energy =    -0.1968116186
 Nuclear Repu.   Energy =     2.8010792940
 Nuclear Attr.   Energy =   -94.3122976497
 Kinetic         Energy =    37.8068598605
 <S^2> = 0.7525
 SCF time:  CPU 5.58 s  wall 6.14 s
 Final Alpha MO Eigenvalues
            1           2           3           4           5           6
    1 -10.0731680  -0.7653525  -0.4313916  -0.3679516  -0.0634423   0.0368407
            7           8           9
    1   0.1165491   0.1167024   0.1188907
 Final Beta MO Eigenvalues
            1           2           3           4           5           6
    1 -10.0567677  -0.7215266  -0.4059326  -0.0455200  -0.0083390   0.0366258
            7           8
    1   0.1177178   0.1207920
 Analysis of SCF Wavefunction
 
 --------------------------------------------------------------
                    Orbital Energies (a.u.)
 --------------------------------------------------------------
 
 Alpha MOs
 -- Occupied --
-10.073  -0.765  -0.431  -0.368
 -- Virtual --
 -0.063   0.037   0.117   0.117   0.119   0.162   0.210   0.525
  0.605   0.610   0.611   0.658   0.659   0.749   0.750   0.788
  1.084   1.119   1.124   1.481   2.427   2.661   2.663   2.883
  2.883   2.884   2.885   2.941   2.945   3.075   3.183   3.274
  3.278   3.393   3.395   3.746   4.137   4.141   5.194  23.557
 27.136  27.140  27.635  40.703  40.793  41.046  41.065  41.067
 
 Beta MOs
 -- Occupied --
-10.057  -0.722  -0.406
 -- Virtual --
 -0.046  -0.008   0.037   0.118   0.121   0.133   0.160   0.216
  0.531   0.615   0.621   0.651   0.665   0.686   0.784   0.787
  0.811   1.096   1.122   1.140   1.491   2.436   2.682   2.726
  2.922   2.924   2.934   2.937   2.960   2.990   3.100   3.205
  3.343   3.345   3.414   3.453   3.765   4.139   4.153   5.205
 23.580  27.147  27.171  27.647  40.732  40.810  41.074  41.075
 41.096
 --------------------------------------------------------------
 
          Ground-State Mulliken Net Atomic Charges

     Atom                 Charge (a.u.)    Spin (a.u.)
  --------------------------------------------------------
      1 C                    -0.110867       1.022168
      2 H                     0.110867      -0.022168
  --------------------------------------------------------
  Sum of atomic charges =     0.000000
  Sum of spin   charges =     1.000000

 -----------------------------------------------------------------
                    Cartesian Multipole Moments
 -----------------------------------------------------------------
    Charge (ESU x 10^10)
                 0.0000
    Dipole Moment (Debye)
         X      -0.0014      Y       0.0000      Z       1.6195
       Tot       1.6195
    Quadrupole Moments (Debye-Ang)
        XX      -7.0311     XY      -1.0581     YY      -7.0303
        XZ       0.0003     YZ      -0.0009     ZZ      -7.4329
    Octapole Moments (Debye-Ang^2)
       XXX       0.0010    XXY       0.0001    XYY       0.0003
       YYY       0.0000    XXZ      -0.3679    XYZ      -0.0565
       YYZ      -0.3679    XZZ      -0.0002    YZZ      -0.0001
       ZZZ      -0.4858
    Hexadecapole Moments (Debye-Ang^3)
      XXXX      -9.0601   XXXY      -1.2926   XXYY      -3.0196
      XYYY      -1.2926   YYYY      -9.0582   XXXZ       0.0040
      XXYZ      -0.0004   XYYZ       0.0013   YYYZ      -0.0011
      XXZZ      -4.5349   XYZZ      -0.4428   YYZZ      -4.5346
      XZZZ       0.0026   YZZZ      -0.0012   ZZZZ     -16.5411
 -----------------------------------------------------------------
 Calculating analytic gradient of the SCF energy
 Gradient of AOints
            1           2
    1  -0.0011529   0.0011529
    2   0.0000014  -0.0000014
    3   1.3050739  -1.3050739
 Gradient of XC Energy
            1           2
    1   0.0001128  -0.0001128
    2   0.0000000  -0.0000000
    3  -0.1279282   0.1279282
 Gradient of SCF Energy
            1           2
    1  -0.0000002   0.0000002
    2   0.0000000  -0.0000000
    3   0.0001717  -0.0001717
 Max gradient component =       1.717E-04
 RMS gradient           =       9.913E-05
 Gradient time:  CPU 1.40 s  wall 1.44 s
 Writing REM_CC_EA            2
 ----------------------------------------------------
       Standard Nuclear Orientation (Angstroms)
    I     Atom         X            Y            Z
[...]
  2.922   2.924   2.934   2.937   2.960   2.990   3.100   3.205
  3.343   3.345   3.414   3.453   3.765   4.139   4.153   5.205
 23.580  27.147  27.171  27.647  40.732  40.810  41.074  41.075
 41.096
 --------------------------------------------------------------
 
          Ground-State Mulliken Net Atomic Charges

     Atom                 Charge (a.u.)    Spin (a.u.)
  --------------------------------------------------------
      1 C                    -0.110867       1.022168
      2 H                     0.110867      -0.022168
  --------------------------------------------------------
  Sum of atomic charges =     0.000000
  Sum of spin   charges =     1.000000

 -----------------------------------------------------------------
                    Cartesian Multipole Moments
 -----------------------------------------------------------------
    Charge (ESU x 10^10)
                 0.0000
    Dipole Moment (Debye)
         X       0.0000      Y      -0.0014      Z       1.6195
       Tot       1.6195
    Quadrupole Moments (Debye-Ang)
        XX      -7.0311     XY      -1.0581     YY      -7.0303
        XZ      -0.0009     YZ       0.0004     ZZ      -7.4329
    Octapole Moments (Debye-Ang^2)
       XXX       0.0000    XXY       0.0003    XYY       0.0001
       YYY       0.0010    XXZ      -0.3679    XYZ      -0.0565
       YYZ      -0.3679    XZZ      -0.0001    YZZ      -0.0002
       ZZZ      -0.4858
    Hexadecapole Moments (Debye-Ang^3)
      XXXX      -9.0601   XXXY      -1.2926   XXYY      -3.0196
      XYYY      -1.2926   YYYY      -9.0582   XXXZ      -0.0012
      XXYZ       0.0013   XYYZ      -0.0004   YYYZ       0.0040
      XXZZ      -4.5349   XYZZ      -0.4428   YYZZ      -4.5346
      XZZZ      -0.0012   YZZZ       0.0026   ZZZZ     -16.5411
 -----------------------------------------------------------------
 Calculating analytic gradient of the SCF energy
 Gradient of AOints
            1           2
    1  -0.0000010   0.0000010
    2  -0.0011504   0.0011504
    3   1.3050739  -1.3050739
 Gradient of XC Energy
            1           2
    1  -0.0000000   0.0000000
    2   0.0001128  -0.0001128
    3  -0.1279282   0.1279282
 Gradient of SCF Energy
            1           2
    1   0.0000000  -0.0000000
    2  -0.0000002   0.0000002
    3   0.0001717  -0.0001717
 Max gradient component =       1.717E-04
 RMS gradient           =       9.913E-05
 Gradient time:  CPU 1.39 s  wall 1.44 s
 Writing REM_CC_EA            2
 ----------------------------------------------------
       Standard Nuclear Orientation (Angstroms)
    I     Atom         X            Y            Z
 ----------------------------------------------------
    1      C       0.000000     0.000000    -0.000207
    2      H       0.000000     0.000000     1.134306
 ----------------------------------------------------
 Nuclear Repulsion Energy =     2.7986114141 hartrees
 There are        4 alpha and        3 beta electrons

                       Distance Matrix (Angstroms)
             C (  1)
   H (  2)  1.134514
 
 Requested basis set is G3large
 There are 16 shells and 52 basis functions
 A cutoff of  1.0D-11 yielded    136 shell pairs
 There are   1462 function pairs (  1834 Cartesian)
Evaluating contribution to one-electron hamiltonian from nuclear
 Smallest overlap matrix eigenvalue = 4.19E-03
 Multipole matrices computed through 2nd order
 Guess MOs from SCF MO coefficient file
Reading MOs from coefficient file
Reading MOs from coefficient file
 An unrestricted hybrid HF-DFT SCF calculation will be
 performed using Pulay DIIS extrapolation
 Exchange:     1.0000 Hartree-Fock + 1.0000 BNL
 Correlation:  1.0000 LYP
 Using SG-1 standard quadrature grid
 SCF converges when DIIS error is below 1.0E-08
 ---------------------------------------
  Cycle       Energy         DIIS Error
 ---------------------------------------
    1     -37.9919907541      5.64E-05
    2     -37.9920611968      8.57E-06
    3     -37.9920612429      2.82E-06
    4     -37.9920612516      1.27E-06
    5     -37.9920612568      7.05E-07
    6     -37.9920612589      2.64E-07
    7     -37.9920612593      7.40E-08
    8     -37.9920612594      3.08E-08
    9     -37.9920612594      1.33E-08
   10     -37.9920612594      4.01E-09 Convergence criterion met
 ---------------------------------------
 One-Electron    Energy =   -56.5009387987
 Total Coulomb   Energy =    20.7940047068
 Alpha Exchange  Energy =    -0.7164878660
 Beta  Exchange  Energy =    -0.5396829209
 DFT   Exchange  Energy =    -3.6307699692
 DFT Correlation Energy =    -0.1967978256
 Nuclear Repu.   Energy =     2.7986114141
 Nuclear Attr.   Energy =   -94.3067723647
 Kinetic         Energy =    37.8058335660
 <S^2> = 0.7525
 SCF time:  CPU 5.56 s  wall 5.98 s
 Final Alpha MO Eigenvalues
            1           2           3           4           5           6
    1 -10.0732646  -0.7651453  -0.4313675  -0.3679518  -0.0634403   0.0368400
            7           8           9
    1   0.1165473   0.1166925   0.1188896
 Final Beta MO Eigenvalues
            1           2           3           4           5           6
    1 -10.0568616  -0.7213019  -0.4059265  -0.0455157  -0.0083344   0.0366316
            7           8
    1   0.1177076   0.1207921
 Analysis of SCF Wavefunction
 
 --------------------------------------------------------------
                    Orbital Energies (a.u.)
 --------------------------------------------------------------
 
 Alpha MOs
 -- Occupied --
-10.073  -0.765  -0.431  -0.368
 -- Virtual --
 -0.063   0.037   0.117   0.117   0.119   0.162   0.210   0.525
  0.605   0.609   0.611   0.657   0.659   0.749   0.750   0.788
  1.084   1.118   1.124   1.480   2.428   2.661   2.663   2.883
  2.883   2.884   2.885   2.941   2.946   3.075   3.183   3.274
  3.278   3.393   3.395   3.745   4.136   4.139   5.192  23.555
 27.135  27.140  27.635  40.702  40.793  41.045  41.065  41.067
 
 Beta MOs
 -- Occupied --
-10.057  -0.721  -0.406
 -- Virtual --
 -0.046  -0.008   0.037   0.118   0.121   0.133   0.160   0.215
  0.531   0.615   0.621   0.651   0.665   0.686   0.784   0.787
  0.811   1.096   1.122   1.140   1.490   2.437   2.682   2.725
  2.922   2.924   2.934   2.937   2.960   2.990   3.099   3.204
  3.343   3.345   3.414   3.453   3.763   4.137   4.152   5.203
 23.578  27.147  27.170  27.646  40.731  40.809  41.074  41.075
 41.095
 --------------------------------------------------------------
 
          Ground-State Mulliken Net Atomic Charges

     Atom                 Charge (a.u.)    Spin (a.u.)
  --------------------------------------------------------
      1 C                    -0.110532       1.022247
      2 H                     0.110532      -0.022247
  --------------------------------------------------------
  Sum of atomic charges =     0.000000
  Sum of spin   charges =     1.000000

 -----------------------------------------------------------------
                    Cartesian Multipole Moments
 -----------------------------------------------------------------
    Charge (ESU x 10^10)
                 0.0000
    Dipole Moment (Debye)
         X       0.0000      Y       0.0000      Z       1.6180
       Tot       1.6180
    Quadrupole Moments (Debye-Ang)
        XX      -7.0320     XY      -1.0581     YY      -7.0312
        XZ       0.0000     YZ       0.0000     ZZ      -7.4331
    Octapole Moments (Debye-Ang^2)
       XXX       0.0000    XXY       0.0000    XYY       0.0000
       YYY       0.0000    XXZ      -0.3708    XYZ      -0.0565
       YYZ      -0.3707    XZZ       0.0000    YZZ       0.0000
       ZZZ      -0.4916
    Hexadecapole Moments (Debye-Ang^3)
      XXXX      -9.0609   XXXY      -1.2926   XXYY      -3.0199
      XYYY      -1.2926   YYYY      -9.0590   XXXZ       0.0000
      XXYZ       0.0000   XYYZ       0.0000   YYYZ       0.0000
      XXZZ      -4.5388   XYZZ      -0.4428   YYZZ      -4.5384
      XZZZ       0.0000   YZZZ       0.0000   ZZZZ     -16.5573
 -----------------------------------------------------------------
 Calculating analytic gradient of the SCF energy
 Gradient of AOints
            1           2
    1  -0.0000006   0.0000006
    2   0.0000012  -0.0000012
    3   1.3052794  -1.3052794
 Gradient of XC Energy
            1           2
    1  -0.0000000   0.0000000
    2   0.0000000  -0.0000000
    3  -0.1278932   0.1278932
 Gradient of SCF Energy
            1           2
    1  -0.0000000   0.0000000
    2  -0.0000000   0.0000000
    3  -0.0003562   0.0003562
 Max gradient component =       3.562E-04
 RMS gradient           =       2.057E-04
 Gradient time:  CPU 1.39 s  wall 1.45 s
 Writing REM_CC_EA            2
 ----------------------------------------------------
       Standard Nuclear Orientation (Angstroms)
    I     Atom         X            Y            Z
 ----------------------------------------------------
    1      C       0.000000     0.000000    -0.000207
    2      H       0.000000     0.000000     1.132306
 ----------------------------------------------------
 Nuclear Repulsion Energy =     2.8035537140 hartrees
 There are        4 alpha and        3 beta electrons

                       Distance Matrix (Angstroms)
             C (  1)
   H (  2)  1.132514
 
 Requested basis set is G3large
 There are 16 shells and 52 basis functions
 A cutoff of  1.0D-11 yielded    136 shell pairs
 There are   1462 function pairs (  1834 Cartesian)
Evaluating contribution to one-electron hamiltonian from nuclear
 Smallest overlap matrix eigenvalue = 4.16E-03
 Multipole matrices computed through 2nd order
 Guess MOs from SCF MO coefficient file
Reading MOs from coefficient file
Reading MOs from coefficient file
 An unrestricted hybrid HF-DFT SCF calculation will be
 performed using Pulay DIIS extrapolation
 Exchange:     1.0000 Hartree-Fock + 1.0000 BNL
 Correlation:  1.0000 LYP
 Using SG-1 standard quadrature grid
 SCF converges when DIIS error is below 1.0E-08
 ---------------------------------------
  Cycle       Energy         DIIS Error
 ---------------------------------------
    1     -37.9922040626      1.09E-04
    2     -37.9920604947      1.61E-05
    3     -37.9920606001      4.42E-06
    4     -37.9920606067      9.34E-07
    5     -37.9920606075      3.43E-07
    6     -37.9920606076      5.15E-08
    7     -37.9920606076      6.44E-09 Convergence criterion met
 ---------------------------------------
 One-Electron    Energy =   -56.5099463243
 Total Coulomb   Energy =    20.7987186155
 Alpha Exchange  Energy =    -0.7165333252
 Beta  Exchange  Energy =    -0.5397331250
 DFT   Exchange  Energy =    -3.6312947347
 DFT Correlation Energy =    -0.1968254279
 Nuclear Repu.   Energy =     2.8035537140
 Nuclear Attr.   Energy =   -94.3178362448
 Kinetic         Energy =    37.8078899204
 <S^2> = 0.7525
 SCF time:  CPU 3.90 s  wall 4.19 s
 Final Alpha MO Eigenvalues
            1           2           3           4           5           6
    1 -10.0730712  -0.7655604  -0.4314157  -0.3679516  -0.0634444   0.0368413
            7           8           9
    1   0.1165508   0.1167122   0.1188918
 Final Beta MO Eigenvalues
            1           2           3           4           5           6
    1 -10.0566737  -0.7217519  -0.4059386  -0.0455244  -0.0083437   0.0366199
            7           8
    1   0.1177280   0.1207919
 Analysis of SCF Wavefunction
 
 --------------------------------------------------------------
                    Orbital Energies (a.u.)
 --------------------------------------------------------------
 
 Alpha MOs
 -- Occupied --
-10.073  -0.766  -0.431  -0.368
 -- Virtual --
 -0.063   0.037   0.117   0.117   0.119   0.162   0.210   0.526
  0.605   0.610   0.611   0.658   0.660   0.749   0.750   0.788
  1.085   1.119   1.125   1.481   2.426   2.661   2.663   2.883
  2.883   2.884   2.885   2.941   2.945   3.076   3.184   3.275
  3.278   3.393   3.395   3.747   4.138   4.142   5.197  23.559
 27.136  27.140  27.636  40.703  40.794  41.046  41.065  41.067
 
 Beta MOs
 -- Occupied --
-10.057  -0.722  -0.406
 -- Virtual --
 -0.046  -0.008   0.037   0.118   0.121   0.133   0.160   0.216
  0.531   0.615   0.621   0.651   0.665   0.686   0.784   0.787
  0.810   1.096   1.122   1.141   1.491   2.435   2.683   2.726
  2.922   2.924   2.934   2.937   2.960   2.990   3.100   3.205
  3.343   3.345   3.414   3.453   3.766   4.140   4.154   5.208
 23.582  27.147  27.171  27.647  40.732  40.810  41.074  41.075
 41.096
 --------------------------------------------------------------
 
          Ground-State Mulliken Net Atomic Charges

     Atom                 Charge (a.u.)    Spin (a.u.)
  --------------------------------------------------------
      1 C                    -0.111204       1.022091
      2 H                     0.111204      -0.022091
  --------------------------------------------------------
  Sum of atomic charges =     0.000000
  Sum of spin   charges =     1.000000

 -----------------------------------------------------------------
                    Cartesian Multipole Moments
 -----------------------------------------------------------------
    Charge (ESU x 10^10)
                 0.0000
    Dipole Moment (Debye)
         X       0.0000      Y       0.0000      Z       1.6211
       Tot       1.6211
    Quadrupole Moments (Debye-Ang)
        XX      -7.0302     XY      -1.0581     YY      -7.0294
        XZ       0.0000     YZ       0.0000     ZZ      -7.4326
    Octapole Moments (Debye-Ang^2)
       XXX       0.0000    XXY       0.0000    XYY       0.0000
       YYY       0.0000    XXZ      -0.3651    XYZ      -0.0566
       YYZ      -0.3650    XZZ       0.0000    YZZ       0.0000
       ZZZ      -0.4799
    Hexadecapole Moments (Debye-Ang^3)
      XXXX      -9.0593   XXXY      -1.2926   XXYY      -3.0194
      XYYY      -1.2926   YYYY      -9.0574   XXXZ       0.0000
      XXYZ       0.0000   XYYZ       0.0000   YYYZ       0.0000
      XXZZ      -4.5310   XYZZ      -0.4428   YYZZ      -4.5307
      XZZZ       0.0000   YZZZ       0.0000   ZZZZ     -16.5248
 -----------------------------------------------------------------
 Calculating analytic gradient of the SCF energy
 Gradient of AOints
            1           2
    1  -0.0000009   0.0000009
    2   0.0000009  -0.0000009
    3   1.3048650  -1.3048650
 Gradient of XC Energy
            1           2
    1  -0.0000000   0.0000000
    2   0.0000000  -0.0000000
    3  -0.1279629   0.1279629
 Gradient of SCF Energy
            1           2
    1  -0.0000000   0.0000000
    2  -0.0000000   0.0000000
    3   0.0007031  -0.0007031
 Max gradient component =       7.031E-04
 RMS gradient           =       4.060E-04
 Gradient time:  CPU 1.41 s  wall 1.45 s
Dipole drv :
gprntSymmMtrx error report: 
 Final Hessian.
            1           2           3           4           5           6
    1  -0.0001174   0.0000028   0.0000023   0.0001174  -0.0000020  -0.0000029
    2   0.0000028  -0.0001185   0.0000012  -0.0000032   0.0001182  -0.0000011
    3   0.0000023   0.0000012   0.2802895  -0.0000028  -0.0000005  -0.2802896
    4   0.0001174  -0.0000032  -0.0000028  -0.0001174   0.0000024   0.0000034
    5  -0.0000020   0.0001182  -0.0000005   0.0000024  -0.0001179   0.0000004
    6  -0.0000029  -0.0000011  -0.2802896   0.0000034   0.0000004   0.2802896
 Writing REM_CC_EA            2
 ----------------------------------------------------
       Standard Nuclear Orientation (Angstroms)
    I     Atom         X            Y            Z
 ----------------------------------------------------
    1      C       0.000000     0.000000    -0.000207
    2      H       0.000000     0.000000     1.133306
 ----------------------------------------------------
 Nuclear Repulsion Energy =     2.8010803840 hartrees
 There are        4 alpha and        3 beta electrons
 old dipole drv.
            1           2           3           4           5           6
    1  -0.2971396   0.0001629   0.0000816   0.2975152   0.0001442   0.0000260
    2  -0.0003523  -0.2975187  -0.0000818  -0.0000292   0.2972151  -0.0000355
    3   0.0000044  -0.0000088   0.3181555   0.0000067  -0.0000061  -0.3181544
 New transposed dipole drv.
            1           2           3
    1  -0.2971396  -0.0003523   0.0000044
    2   0.0001629  -0.2975187  -0.0000088
    3   0.0000816  -0.0000818   0.3181555
    4   0.2975152  -0.0000292   0.0000067
    5   0.0001442   0.2972151  -0.0000061
    6   0.0000260  -0.0000355  -0.3181544
FINAL TENSOR RESULT:
Order 2, Length 6
Order 1, Length 6
  -0.0001174   0.0000028   0.0000023   0.0001174  -0.0000020  -0.0000029
Order 1, Length 6
   0.0000028  -0.0001185   0.0000012  -0.0000032   0.0001182  -0.0000011
Order 1, Length 6
   0.0000023   0.0000012   0.2802895  -0.0000028  -0.0000005  -0.2802896
Order 1, Length 6
   0.0001174  -0.0000032  -0.0000028  -0.0001174   0.0000024   0.0000034
Order 1, Length 6
  -0.0000020   0.0001182  -0.0000005   0.0000024  -0.0001179   0.0000004
Order 1, Length 6
  -0.0000029  -0.0000011  -0.2802896   0.0000034   0.0000004   0.2802896


 # Finishing finite difference calculation for IDERIV #
 ######################################################
 ######################################################
 Requested basis set is G3large
 There are 16 shells and 52 basis functions
 **********************************************************************
 **                                                                  **
 **                       VIBRATIONAL ANALYSIS                       **
 **                       --------------------                       **
 **                                                                  **
 **        VIBRATIONAL FREQUENCIES (CM**-1) AND NORMAL MODES         **
 **     FORCE CONSTANTS (mDYN/ANGSTROM) AND REDUCED MASSES (AMU)     **
 **                  INFRARED INTENSITIES (KM/MOL)                   **
 **                                                                  **
 **********************************************************************
 

 Mode:                 1
 Frequency:      2822.46
 Force Cnst:      5.0917
 Red. Mass:       1.0848
 IR Active:          YES
 IR Intens:      106.162
 Raman Active:       YES
               X      Y      Z
 C          0.000  0.000 -0.084
 H          0.000  0.000  0.996
 TransDip   0.000  0.000 -0.330

 STANDARD THERMODYNAMIC QUANTITIES AT   298.18 K  AND     1.00 ATM

   This Molecule has  0 Imaginary Frequencies
   Zero point vibrational energy:        4.035 kcal/mol

   Atom    1 Element C  Has Mass   12.00000
   Atom    2 Element H  Has Mass    1.00783
   Molecular Mass:    13.007830 amu
   Principal axes and moments of inertia in atomic units:
                             1           2           3
    Eigenvalues --        0.00000     4.26594     4.26594
          X               0.00000     0.00000     1.00000
          Y               0.00000     1.00000     0.00000
          Z               1.00000     0.00000     0.00000
   Rotational Symmetry Number is   1
   The Molecule is a Symmetric Top
   Translational Enthalpy:        0.889 kcal/mol
   Rotational Enthalpy:           0.889 kcal/mol
   Vibrational Enthalpy:          4.035 kcal/mol
   gas constant (RT):             0.593 kcal/mol
   Translational Entropy:        33.639  cal/mol.K
   Rotational Entropy:          -42.776  cal/mol.K
   Vibrational Entropy:           0.000  cal/mol.K

   Total Enthalpy:                6.405 kcal/mol
   Total Entropy:                -9.137  cal/mol.K
 Total job time:  88.00s(wall), 80.69s(cpu) 
 Thu Apr 21 16:03:37 2011

        *************************************************************
        *                                                           *
        *  Thank you very much for using Q-Chem.  Have a nice day.  *
        *                                                           *
        *************************************************************


0 sent ACK to 0 
now end server 0 ... 
