Process 0 of 1 is on cl093.stfx.acenet.ca - thread support 1
initial socket setup ...start
initial socket setup ...done 
now start server 0 ... 

cmd = /usr/bin/ssh clhead /usr/local/qchem/bin/get_hostid 299508800 > /scratch/tmp/6022467.1.short.q/qchem19364/lic.dat
                  Welcome to Q-Chem
     A Quantum Leap Into The Future Of Chemistry

 Y. Shao, L. Fusti-Molnar, Y. Jung, J. Kussmann, C. Ochsenfeld,
 S. T. Brown, A. T. B. Gilbert, L. V. Slipchenko,S. V. Levchenko,
 D. P. O'Neill, R. A. DiStasio Jr., R. C. Lochan, T. Wang,
 G. J. O. Beran, N. A. Besley, J. M. Herbert, C. Y. Lin,
 T. Van Voorhis, S. H. Chien, A. Sodt, R. P. Steele, 
 V. A. Rassolov, P. E. Maslen, P. P. Korambath, R. D. Adamson,
 B. Austin, J. Baker, E. F. C. Byrd, H. Dachsel, R. J. Doerksen,
 A. Dreuw, B. D. Dunietz, A. D. Dutoi, T. R. Furlani,
 S. R. Gwaltney, A. Heyden, S. Hirata, C.-P. Hsu, G. Kedziora,
 R. Z. Khaliullin, P. Klunzinger, A. M. Lee, M. S. Lee, W. Liang,
 I. Lotan, N. Nair, B. Peters, E. I. Proynov, P. A. Pieniazek, 
 Y. M. Rhee, J. Ritchie, E. Rosta, C. D. Sherrill, 
 A. C. Simmonett, J. E. Subotnik, H. L. Woodcock III,
 W. Zhang, A. T. Bell, A. K. Chakraborty, D. M. Chipman,
 F. J. Keil, A. Warshel, W. J. Hehre, H. F. Schaefer III,
 J. Kong, A. I. Krylov, P. M. W. Gill, M. Head-Gordon,
 Q-Chem, Version 3.1, Q-Chem, Inc., Pittsburgh, PA (2007).

 Additional authors for Version 3.1: 
 Z. Gan, Y. Zhao, N. E. Schultz, D. Truhlar, E. Epifanovsky and M. Oana.

 Additional authors for Version 3.2: 
 R. Baer, B. R. Brooks, D. Casanova, J.-D. Chai, C.-L. Cheng, 
 C. Cramer, D. Crittenden, A. Ghysels, G. Hawkins, E. G. Hohenstein, 
 C. Kelley, W. Kurlancheek, D. Liotard, E. Livshits, P. Manohar, 
 A. Marenich, D. Neuhauser, R. Olson, M. A. Rohrdanz, K. S. Thanthiriwatte, 
 A. J. W. Thom, V. Vanovschi, C. F. Williams, Q. Wu and Z.-Q. You. 


 Intel X86 Linux Version

 Q-chem begins on Wed May 29 17:11:50 2013  

 Parallel job on  1  processors
Processing $rem in /usr/local/qchem/config/preferences.

theFileMan(): MAXOPENFILES=974 MAX_SUB_FILE_NUM=16
Maximum size of a physical file is 2.0 GB, maximum size of a tmp-file is 32.0 GB


--------------------------------------------------------------
User input:
--------------------------------------------------------------

$molecule
-1,2
C          0.66632        0.00000        0.00649
C         -0.66632        0.00000        0.00649
C          0.77917        0.00000        1.51294
C         -0.77917        0.00000        1.51294
H          1.41416        0.00000       -0.78079
H         -1.41416        0.00000       -0.78079
H          1.23769        0.88958        1.95527
H          1.23769       -0.88958        1.95527
H         -1.23769       -0.88958        1.95527
H         -1.23769        0.88958        1.95527
$end

$comment
negative
$end

$xc_functional
C PBE   1.00
X wPBE  1.00
$end

$rem
SYMMETRY_DECOMPOSITION	0
exchange 		general
LRC_DFT                 true
BASIS                   g3large
omega			290
mem_static              760
max_scf_cycles          200
scf_final_print         1
sym_ignore              true
$end

--------------------------------------------------------------
 Writing REM_CC_EA           10
 ----------------------------------------------------
       Standard Nuclear Orientation (Angstroms)
    I     Atom         X            Y            Z
 ----------------------------------------------------
    1      C       0.666320     0.000000     0.006490
    2      C      -0.666320     0.000000     0.006490
    3      C       0.779170     0.000000     1.512940
    4      C      -0.779170     0.000000     1.512940
    5      H       1.414160     0.000000    -0.780790
    6      H      -1.414160     0.000000    -0.780790
    7      H       1.237690     0.889580     1.955270
    8      H       1.237690    -0.889580     1.955270
    9      H      -1.237690    -0.889580     1.955270
   10      H      -1.237690     0.889580     1.955270
 ----------------------------------------------------
 Nuclear Repulsion Energy =   113.6097165949 hartrees
 There are       16 alpha and       15 beta electrons
 Requested basis set is G3large
 There are 76 shells and 228 basis functions

Total QAlloc Memory Limit   2000 MB
Mega-Array Size       743 MB
MEM_STATIC part       760 MB

                       Distance Matrix (Angstroms)
             C (  1)   C (  2)   C (  3)   C (  4)   H (  5)   H (  6)
   C (  2)  1.332640
   C (  3)  1.510671  2.087782
   C (  4)  2.087782  1.510671  1.558340
   H (  5)  1.085852  2.224457  2.380002  3.173625
   H (  6)  2.224457  1.085852  3.173625  2.380002  2.828320
   H (  7)  2.217106  2.866069  1.094189  2.248273  2.882450  3.912759
   H (  8)  2.217106  2.866069  1.094189  2.248273  2.882450  3.912759
   H (  9)  2.866069  2.217106  2.248273  1.094189  3.912759  2.882450
   H ( 10)  2.866069  2.217106  2.248273  1.094189  3.912759  2.882450
             H (  7)   H (  8)   H (  9)
   H (  8)  1.779160
   H (  9)  3.048429  2.475380
   H ( 10)  2.475380  3.048429  1.779160
 
 A cutoff of  1.0D-08 yielded   2785 shell pairs
 There are  25317 function pairs ( 31089 Cartesian)
Evaluating contribution to one-electron hamiltonian from nuclear
 Smallest overlap matrix eigenvalue = 4.75E-06

 Q-Chem warning in module mkSTV.C, line 194:

 Overlap eigenvalue is smaller than square root of threshold

 Multipole matrices computed through 2nd order

  Scale SEOQF with 1.000000e-01/1.000000e-01/1.000000e-01

 Standard Electronic Orientation quadrupole field applied
 Nucleus-field energy     =    -0.0000000037 hartrees
 Guess from superposition of atomic densities
 Warning:  Energy on first SCF cycle will be non-variational
 Long-range K will be added via erf
 Coulomb attenuation parameter = 0.29 bohr**(-1)
 An unrestricted Kohn-Sham SCF calculation will be
 performed using Pulay DIIS extrapolation
 Exchange:  wPBE + LR-HF      Correlation:  PBE
 Using SG-1 standard quadrature grid
 SCF converges when DIIS error is below 1.0E-05
 Requested basis set is G3large
 There are 76 shells and 228 basis functions
 A cutoff of  1.0D-08 yielded   2785 shell pairs
 There are  25317 function pairs ( 31089 Cartesian)
 Warning!  Inaccurate integrated density:
   Number of electrons =    31
   Numerical integral  =    30.000215559237
   Relative error      =    -3.2251110992 %
 ---------------------------------------
  Cycle       Energy         DIIS Error
 ---------------------------------------
    1    -157.0961998324      3.10E-02
    2    -155.5951848400      4.94E-03
    3    -155.4942626845      6.76E-03
    4    -155.8199779678      1.31E-03
    5    -155.8375566665      2.43E-04
    6    -155.8390267510      9.39E-05
    7    -155.8397201720      5.69E-05
    8    -155.8403432936      3.97E-05
    9    -155.8410838425      3.96E-05
   10    -155.8413590546      3.96E-05
   11    -155.8412555857      3.92E-05
   12    -155.8418839079      3.89E-05
   13    -155.8424317027      3.58E-05
   14    -155.8437148604      2.37E-05
   15    -155.8436794983      2.19E-05
   16    -155.8442606532      6.16E-05
   17    -155.8443428718      3.08E-05
   18    -155.8444270405      1.30E-05
   19    -155.8444752440      1.14E-05
   20    -155.8444892767      9.58E-06 Convergence criterion met
 ---------------------------------------
 One-Electron    Energy =  -437.1754539494
 Total Coulomb   Energy =   191.6038339390
 Alpha Exchange  Energy =    -2.3228807878
 Beta  Exchange  Energy =    -2.2626151893
 DFT   Exchange  Energy =   -18.3159347039
 DFT Correlation Energy =    -0.9811551764
 Nuclear Repu.   Energy =   113.6097165912
 Nuclear Attr.   Energy =  -592.4082834367
 Kinetic         Energy =   155.2328294873
 <S^2> = 0.7501
 SCF time:  CPU 464.32 s  wall 466.12 s
 Final Alpha MO Eigenvalues
            1           2           3           4           5           6
    1  -9.9202585  -9.9119378  -9.9114930  -9.9093410  -0.8265814  -0.6261854
            7           8           9          10          11          12
    1  -0.6133328  -0.4788861  -0.4674169  -0.4328153  -0.3472560  -0.3235904
           13          14          15          16          17          18
    1  -0.2921627  -0.2786469  -0.2168697   0.0307251   0.1277718   0.1309485
           19          20          21
    1   0.1402310   0.1562375   0.1691967
 Final Beta MO Eigenvalues
            1           2           3           4           5           6
    1  -9.9201964  -9.9119231  -9.9112129  -9.9090426  -0.8263791  -0.6256819
            7           8           9          10          11          12
    1  -0.6127424  -0.4782185  -0.4662276  -0.4324355  -0.3468930  -0.3232452
           13          14          15          16          17          18
    1  -0.2917325  -0.2781509  -0.2166064   0.1292036   0.1412107   0.1477276
           19          20
    1   0.1493662   0.1673238
 Analysis of SCF Wavefunction
 
 --------------------------------------------------------------
                    Orbital Energies (a.u.)
 --------------------------------------------------------------
 
 Alpha MOs
 -- Occupied --
 -9.920  -9.912  -9.911  -9.909  -0.827  -0.626  -0.613  -0.479
 -0.467  -0.433  -0.347  -0.324  -0.292  -0.279  -0.217   0.031
 -- Virtual --
  0.128   0.131   0.140   0.156   0.169   0.206   0.222   0.231
  0.239   0.249   0.258   0.266   0.281   0.290   0.296   0.298
  0.306   0.313   0.314   0.316   0.331   0.365   0.369   0.388
  0.413   0.425   0.477   0.482   0.483   0.503   0.536   0.623
  0.635   0.635   0.659   0.665   0.690   0.729   0.735   0.753
  0.775   0.776   0.782   0.789   0.794   0.808   0.809   0.849
  0.872   0.898   0.899   0.928   0.937   0.970   1.020   1.024
  1.101   1.102   1.137   1.175   1.186   1.223   1.286   1.315
  1.330   1.331   1.380   1.424   1.435   1.443   1.452   1.476
  1.505   1.521   1.523   1.535   1.554   1.594   1.611   1.625
  1.641   1.651   1.669   1.722   1.740   1.752   1.780   1.817
  1.855   1.871   1.952   2.019   2.522   2.593   2.719   2.811
  2.827   2.857   2.881   2.885   2.906   2.925   2.935   3.004
  3.015   3.015   3.028   3.039   3.047   3.084   3.210   3.230
  3.231   3.256   3.335   3.345   3.348   3.387   3.437   3.460
  3.493   3.496   3.520   3.525   3.591   3.594   3.623   3.629
  3.664   3.716   3.724   3.754   3.778   3.785   3.858   3.881
  3.882   3.916   3.931   4.000   4.084   4.087   4.097   4.156
  4.161   4.200   4.289   4.294   4.356   4.402   4.416   4.455
  4.483   4.537   4.550   4.575   4.667   4.668   4.711   4.767
  4.861   4.874   4.924   5.030   5.082   5.113   5.185   5.251
  5.442   5.534   5.687   5.761   5.765   5.881   5.910   6.570
 23.920  24.303  24.355  24.789  27.370  27.574  27.727  27.876
 27.961  28.187  28.238  28.290  28.421  28.484  28.514  28.853
 40.936  40.983  41.052  41.053  41.078  41.119  41.149  41.216
 41.238  41.254  41.270  41.280  41.283  41.292  41.327  41.345
 41.354  41.360  41.384  41.419
 
 Beta MOs
 -- Occupied --
 -9.920  -9.912  -9.911  -9.909  -0.826  -0.626  -0.613  -0.478
 -0.466  -0.432  -0.347  -0.323  -0.292  -0.278  -0.217
 -- Virtual --
  0.129   0.141   0.148   0.149   0.167   0.174   0.205   0.220
  0.230   0.237   0.245   0.254   0.262   0.279   0.292   0.293
  0.298   0.303   0.307   0.312   0.313   0.327   0.359   0.368
  0.387   0.413   0.424   0.475   0.479   0.481   0.500   0.535
  0.622   0.633   0.634   0.656   0.665   0.690   0.727   0.735
  0.752   0.774   0.776   0.781   0.788   0.793   0.807   0.807
  0.848   0.870   0.897   0.899   0.927   0.935   0.969   1.020
  1.025   1.102   1.102   1.137   1.176   1.186   1.224   1.286
  1.315   1.330   1.332   1.380   1.424   1.435   1.442   1.452
  1.475   1.506   1.521   1.523   1.535   1.553   1.594   1.611
  1.625   1.642   1.651   1.669   1.723   1.740   1.752   1.781
  1.817   1.855   1.871   1.953   2.020   2.522   2.593   2.719
  2.811   2.827   2.857   2.881   2.885   2.906   2.925   2.935
  3.005   3.015   3.015   3.028   3.040   3.047   3.084   3.211
  3.230   3.231   3.256   3.336   3.345   3.349   3.388   3.437
  3.461   3.493   3.496   3.520   3.525   3.592   3.594   3.623
  3.630   3.664   3.716   3.724   3.754   3.778   3.785   3.858
  3.881   3.882   3.916   3.932   4.001   4.084   4.088   4.097
  4.156   4.161   4.200   4.290   4.294   4.356   4.402   4.416
  4.455   4.483   4.537   4.551   4.575   4.667   4.669   4.711
  4.767   4.861   4.874   4.924   5.031   5.083   5.114   5.185
  5.251   5.443   5.534   5.688   5.762   5.765   5.882   5.911
  6.571  23.920  24.303  24.355  24.789  27.370  27.574  27.727
 27.877  27.961  28.187  28.238  28.290  28.421  28.484  28.515
 28.853  40.936  40.984  41.052  41.053  41.078  41.119  41.149
 41.216  41.238  41.254  41.271  41.280  41.283  41.292  41.328
 41.346  41.355  41.360  41.384  41.419
 --------------------------------------------------------------
 
          Ground-State Mulliken Net Atomic Charges

     Atom                 Charge (a.u.)    Spin (a.u.)
  --------------------------------------------------------
      1 C                    -2.538819       2.504689
      2 C                     3.082608      -3.236048
      3 C                     4.128331      -4.308323
      4 C                    -1.876643       1.783784
      5 H                    -2.623723       2.763273
      6 H                    -0.026622       0.123712
      7 H                    -0.527399       0.597339
      8 H                    -0.532471       0.602619
      9 H                    -0.042093       0.083923
     10 H                    -0.043169       0.085031
  --------------------------------------------------------
  Sum of atomic charges =    -1.000000
  Sum of spin   charges =     1.000000

 -----------------------------------------------------------------
                    Cartesian Multipole Moments
 -----------------------------------------------------------------
    Charge (ESU x 10^10)
                -4.8032
    Dipole Moment (Debye)
         X      -7.9309      Y       0.0135      Z      -0.2213
       Tot       7.9340
    Quadrupole Moments (Debye-Ang)
        XX     -62.7610     XY       0.0312     YY     -51.2245
        XZ       0.2715     YZ       0.0217     ZZ     -57.5795
    Octapole Moments (Debye-Ang^2)
       XXX    -121.6483    XXY       0.0896    XYY     -34.6540
       YYY       0.1494    XXZ     -21.5717    XYZ       0.0406
       YYZ     -29.5624    XZZ     -48.0155    YZZ       0.0900
       ZZZ     -82.1166
    Hexadecapole Moments (Debye-Ang^3)
      XXXX    -755.4789   XXXY       0.3495   XXYY    -175.3752
      XYYY       0.3051   YYYY    -331.9124   XXXZ      -0.6659
      XXYZ       0.1298   XYYZ      -9.0980   YYYZ       0.2362
      XXZZ    -279.2007   XYZZ       0.1830   YYZZ    -180.0663
      XZZZ     -21.8269   YZZZ       0.2988   ZZZZ    -751.8323
 -----------------------------------------------------------------
 Total job time:  466.42s(wall), 464.62s(cpu) 
 Wed May 29 17:19:36 2013

        *************************************************************
        *                                                           *
        *  Thank you very much for using Q-Chem.  Have a nice day.  *
        *                                                           *
        *************************************************************


0 sent ACK to 0 
now end server 0 ... 
 
**********************************************************************
Job 2 of 3 
**********************************************************************
 
Process 0 of 1 is on cl093.stfx.acenet.ca - thread support 1
initial socket setup ...start
initial socket setup ...done 
now start server 0 ... 

cmd = /usr/bin/ssh clhead /usr/local/qchem/bin/get_hostid 1549909370 > /scratch/tmp/6022467.1.short.q/qchem19364/lic.dat
                  Welcome to Q-Chem
     A Quantum Leap Into The Future Of Chemistry

 Y. Shao, L. Fusti-Molnar, Y. Jung, J. Kussmann, C. Ochsenfeld,
 S. T. Brown, A. T. B. Gilbert, L. V. Slipchenko,S. V. Levchenko,
 D. P. O'Neill, R. A. DiStasio Jr., R. C. Lochan, T. Wang,
 G. J. O. Beran, N. A. Besley, J. M. Herbert, C. Y. Lin,
 T. Van Voorhis, S. H. Chien, A. Sodt, R. P. Steele, 
 V. A. Rassolov, P. E. Maslen, P. P. Korambath, R. D. Adamson,
 B. Austin, J. Baker, E. F. C. Byrd, H. Dachsel, R. J. Doerksen,
 A. Dreuw, B. D. Dunietz, A. D. Dutoi, T. R. Furlani,
 S. R. Gwaltney, A. Heyden, S. Hirata, C.-P. Hsu, G. Kedziora,
 R. Z. Khaliullin, P. Klunzinger, A. M. Lee, M. S. Lee, W. Liang,
 I. Lotan, N. Nair, B. Peters, E. I. Proynov, P. A. Pieniazek, 
 Y. M. Rhee, J. Ritchie, E. Rosta, C. D. Sherrill, 
 A. C. Simmonett, J. E. Subotnik, H. L. Woodcock III,
 W. Zhang, A. T. Bell, A. K. Chakraborty, D. M. Chipman,
 F. J. Keil, A. Warshel, W. J. Hehre, H. F. Schaefer III,
 J. Kong, A. I. Krylov, P. M. W. Gill, M. Head-Gordon,
 Q-Chem, Version 3.1, Q-Chem, Inc., Pittsburgh, PA (2007).

 Additional authors for Version 3.1: 
 Z. Gan, Y. Zhao, N. E. Schultz, D. Truhlar, E. Epifanovsky and M. Oana.

 Additional authors for Version 3.2: 
 R. Baer, B. R. Brooks, D. Casanova, J.-D. Chai, C.-L. Cheng, 
 C. Cramer, D. Crittenden, A. Ghysels, G. Hawkins, E. G. Hohenstein, 
 C. Kelley, W. Kurlancheek, D. Liotard, E. Livshits, P. Manohar, 
 A. Marenich, D. Neuhauser, R. Olson, M. A. Rohrdanz, K. S. Thanthiriwatte, 
 A. J. W. Thom, V. Vanovschi, C. F. Williams, Q. Wu and Z.-Q. You. 


 Intel X86 Linux Version

 Q-chem begins on Wed May 29 17:19:39 2013  

 Parallel job on  1  processors
Processing $rem in /usr/local/qchem/config/preferences.

theFileMan(): MAXOPENFILES=974 MAX_SUB_FILE_NUM=16
Maximum size of a physical file is 2.0 GB, maximum size of a tmp-file is 32.0 GB


--------------------------------------------------------------
User input:
--------------------------------------------------------------

$molecule
0,1
C          0.66632        0.00000        0.00649
C         -0.66632        0.00000        0.00649
C          0.77917        0.00000        1.51294
C         -0.77917        0.00000        1.51294
H          1.41416        0.00000       -0.78079
H         -1.41416        0.00000       -0.78079
H          1.23769        0.88958        1.95527
H          1.23769       -0.88958        1.95527
H         -1.23769       -0.88958        1.95527
H         -1.23769        0.88958        1.95527
$end

$comment
neutral
$end

$xc_functional
C PBE   1.00
X wPBE  1.00
$end


$rem
SYMMETRY_DECOMPOSITION	0
LRC_DFT                 true
exchange 		general
BASIS                   g3large
omega			290
mem_static              760
max_scf_cycles          200
scf_final_print         1
sym_ignore              true
$end

--------------------------------------------------------------
 Writing REM_CC_EA           10
 ----------------------------------------------------
       Standard Nuclear Orientation (Angstroms)
    I     Atom         X            Y            Z
 ----------------------------------------------------
    1      C       0.666320     0.000000     0.006490
    2      C      -0.666320     0.000000     0.006490
    3      C       0.779170     0.000000     1.512940
    4      C      -0.779170     0.000000     1.512940
    5      H       1.414160     0.000000    -0.780790
    6      H      -1.414160     0.000000    -0.780790
    7      H       1.237690     0.889580     1.955270
    8      H       1.237690    -0.889580     1.955270
    9      H      -1.237690    -0.889580     1.955270
   10      H      -1.237690     0.889580     1.955270
 ----------------------------------------------------
 Nuclear Repulsion Energy =   113.6097165949 hartrees
 There are       15 alpha and       15 beta electrons
 Requested basis set is G3large
 There are 76 shells and 228 basis functions

Total QAlloc Memory Limit   2000 MB
Mega-Array Size       743 MB
MEM_STATIC part       760 MB

                       Distance Matrix (Angstroms)
             C (  1)   C (  2)   C (  3)   C (  4)   H (  5)   H (  6)
   C (  2)  1.332640
   C (  3)  1.510671  2.087782
   C (  4)  2.087782  1.510671  1.558340
   H (  5)  1.085852  2.224457  2.380002  3.173625
   H (  6)  2.224457  1.085852  3.173625  2.380002  2.828320
   H (  7)  2.217106  2.866069  1.094189  2.248273  2.882450  3.912759
   H (  8)  2.217106  2.866069  1.094189  2.248273  2.882450  3.912759
   H (  9)  2.866069  2.217106  2.248273  1.094189  3.912759  2.882450
   H ( 10)  2.866069  2.217106  2.248273  1.094189  3.912759  2.882450
             H (  7)   H (  8)   H (  9)
   H (  8)  1.779160
   H (  9)  3.048429  2.475380
   H ( 10)  2.475380  3.048429  1.779160
 
 A cutoff of  1.0D-08 yielded   2785 shell pairs
 There are  25317 function pairs ( 31089 Cartesian)
Evaluating contribution to one-electron hamiltonian from nuclear
 Smallest overlap matrix eigenvalue = 4.75E-06

 Q-Chem warning in module mkSTV.C, line 194:

 Overlap eigenvalue is smaller than square root of threshold

 Multipole matrices computed through 2nd order

  Scale SEOQF with 1.000000e-01/1.000000e-01/1.000000e-01

 Standard Electronic Orientation quadrupole field applied
 Nucleus-field energy     =    -0.0000000037 hartrees
 Guess from superposition of atomic densities
 Warning:  Energy on first SCF cycle will be non-variational
 Long-range K will be added via erf
 Coulomb attenuation parameter = 0.29 bohr**(-1)
 A restricted Kohn-Sham SCF calculation will be
 performed using Pulay DIIS extrapolation
 Exchange:  wPBE + LR-HF      Correlation:  PBE
 Using SG-1 standard quadrature grid
 SCF converges when DIIS error is below 1.0E-05
 Requested basis set is G3large
 There are 76 shells and 228 basis functions
 A cutoff of  1.0D-08 yielded   2785 shell pairs
 There are  25317 function pairs ( 31089 Cartesian)
 ---------------------------------------
  Cycle       Energy         DIIS Error
 ---------------------------------------
    1    -157.0961998324      3.10E-02
    2    -155.8138163888      2.95E-03
    3    -155.8525123974      2.10E-03
    4    -155.8794317575      3.05E-04
    5    -155.8804034650      7.79E-05
    6    -155.8805150660      2.95E-05
    7    -155.8805212300      1.30E-05
    8    -155.8805251152      3.19E-06 Convergence criterion met
 ---------------------------------------
 One-Electron    Energy =  -433.4151630360
 Total Coulomb   Energy =   187.7337743938
 Alpha Exchange  Energy =    -2.2634118425
 Beta  Exchange  Energy =    -2.2634118425
 DFT   Exchange  Energy =   -18.3079354967
 DFT Correlation Energy =    -0.9740938826
 Nuclear Repu.   Energy =   113.6097165912
 Nuclear Attr.   Energy =  -588.5875594668
 Kinetic         Energy =   155.1723964308
 SCF time:  CPU 141.83 s  wall 142.27 s
 Final Alpha MO Eigenvalues
            1           2           3           4           5           6
    1 -10.0419540 -10.0418764 -10.0398631 -10.0392174  -0.9535682  -0.7526312
            7           8           9          10          11          12
    1  -0.7397403  -0.6064654  -0.5948732  -0.5580307  -0.4746110  -0.4487737
           13          14          15          16          17          18
    1  -0.4184707  -0.4057510  -0.3447602   0.0406690   0.0504592   0.0549102
           19          20
    1   0.0610279   0.0734858
 Analysis of SCF Wavefunction
 
 --------------------------------------------------------------
                    Orbital Energies (a.u.)
 --------------------------------------------------------------
 
 Alpha MOs
 -- Occupied --
-10.042 -10.042 -10.040 -10.039  -0.954  -0.753  -0.740  -0.606
 -0.595  -0.558  -0.475  -0.449  -0.418  -0.406  -0.345
 -- Virtual --
  0.041   0.050   0.055   0.061   0.073   0.080   0.089   0.123
  0.132   0.139   0.146   0.156   0.169   0.182   0.183   0.191
  0.193   0.201   0.204   0.207   0.213   0.226   0.254   0.260
  0.272   0.294   0.308   0.361   0.368   0.372   0.386   0.417
  0.507   0.515   0.517   0.538   0.544   0.567   0.606   0.611
  0.633   0.654   0.659   0.660   0.664   0.669   0.687   0.688
  0.726   0.753   0.770   0.777   0.804   0.814   0.844   0.893
  0.901   0.976   0.977   1.011   1.051   1.057   1.096   1.159
  1.189   1.204   1.206   1.256   1.299   1.310   1.317   1.330
  1.352   1.381   1.396   1.397   1.410   1.429   1.470   1.488
  1.498   1.518   1.526   1.546   1.596   1.617   1.626   1.658
  1.690   1.730   1.745   1.824   1.893   2.396   2.466   2.592
  2.686   2.700   2.729   2.755   2.759   2.779   2.797   2.808
  2.878   2.888   2.888   2.901   2.913   2.920   2.957   3.083
  3.103   3.105   3.130   3.209   3.219   3.220   3.260   3.312
  3.334   3.366   3.370   3.393   3.398   3.464   3.468   3.495
  3.502   3.536   3.589   3.597   3.627   3.652   3.657   3.732
  3.753   3.755   3.789   3.805   3.875   3.959   3.962   3.967
  4.029   4.035   4.073   4.164   4.167   4.230   4.273   4.288
  4.328   4.356   4.412   4.423   4.449   4.540   4.542   4.585
  4.641   4.735   4.747   4.795   4.903   4.954   4.986   5.057
  5.125   5.314   5.409   5.562   5.636   5.637   5.756   5.783
  6.441  23.791  24.177  24.228  24.660  27.241  27.448  27.598
 27.750  27.833  28.062  28.111  28.162  28.293  28.357  28.386
 28.725  40.807  40.856  40.925  40.927  40.951  40.992  41.021
 41.087  41.110  41.128  41.142  41.153  41.160  41.163  41.199
 41.221  41.226  41.232  41.255  41.290
 --------------------------------------------------------------
 
          Ground-State Mulliken Net Atomic Charges

     Atom                 Charge (a.u.)
  ----------------------------------------
      1 C                    -0.109222
      2 C                    -0.110707
      3 C                    -0.118310
      4 C                    -0.117758
      5 H                     0.106796
      6 H                     0.106703
      7 H                     0.060628
      8 H                     0.060601
      9 H                     0.060643
     10 H                     0.060625
  ----------------------------------------
  Sum of atomic charges =     0.000000

 -----------------------------------------------------------------
                    Cartesian Multipole Moments
 -----------------------------------------------------------------
    Charge (ESU x 10^10)
                 0.0000
    Dipole Moment (Debye)
         X       0.0012      Y       0.0000      Z       0.1665
       Tot       0.1665
    Quadrupole Moments (Debye-Ang)
        XX     -24.1245     XY      -0.0004     YY     -26.0388
        XZ       0.0003     YZ       0.0000     ZZ     -24.4382
    Octapole Moments (Debye-Ang^2)
       XXX       0.0005    XXY       0.0000    XYY       0.0001
       YYY       0.0000    XXZ     -21.6342    XYZ      -0.0005
       YYZ     -18.1237    XZZ      -0.0004    YZZ       0.0000
       ZZZ     -62.2013
    Hexadecapole Moments (Debye-Ang^3)
      XXXX    -139.9596   XXXY      -0.0016   XXYY     -29.5462
      XYYY      -0.0008   YYYY     -44.0167   XXXZ       0.0007
      XXYZ       0.0001   XYYZ      -0.0003   YYYZ       0.0000
      XXZZ     -61.4321   XYZZ      -0.0021   YYZZ     -44.8738
      XZZZ      -0.0008   YZZZ       0.0001   ZZZZ    -251.2827
 -----------------------------------------------------------------
 Total job time:  142.56s(wall), 142.11s(cpu) 
 Wed May 29 17:22:01 2013

        *************************************************************
        *                                                           *
        *  Thank you very much for using Q-Chem.  Have a nice day.  *
        *                                                           *
        *************************************************************


0 sent ACK to 0 
now end server 0 ... 
 
**********************************************************************
Job 3 of 3 
**********************************************************************
 
Process 0 of 1 is on cl093.stfx.acenet.ca - thread support 1
initial socket setup ...start
initial socket setup ...done 
now start server 0 ... 

cmd = /usr/bin/ssh clhead /usr/local/qchem/bin/get_hostid 94329518 > /scratch/tmp/6022467.1.short.q/qchem19364/lic.dat
                  Welcome to Q-Chem
     A Quantum Leap Into The Future Of Chemistry

 Y. Shao, L. Fusti-Molnar, Y. Jung, J. Kussmann, C. Ochsenfeld,
 S. T. Brown, A. T. B. Gilbert, L. V. Slipchenko,S. V. Levchenko,
 D. P. O'Neill, R. A. DiStasio Jr., R. C. Lochan, T. Wang,
 G. J. O. Beran, N. A. Besley, J. M. Herbert, C. Y. Lin,
 T. Van Voorhis, S. H. Chien, A. Sodt, R. P. Steele, 
 V. A. Rassolov, P. E. Maslen, P. P. Korambath, R. D. Adamson,
 B. Austin, J. Baker, E. F. C. Byrd, H. Dachsel, R. J. Doerksen,
 A. Dreuw, B. D. Dunietz, A. D. Dutoi, T. R. Furlani,
 S. R. Gwaltney, A. Heyden, S. Hirata, C.-P. Hsu, G. Kedziora,
 R. Z. Khaliullin, P. Klunzinger, A. M. Lee, M. S. Lee, W. Liang,
 I. Lotan, N. Nair, B. Peters, E. I. Proynov, P. A. Pieniazek, 
 Y. M. Rhee, J. Ritchie, E. Rosta, C. D. Sherrill, 
 A. C. Simmonett, J. E. Subotnik, H. L. Woodcock III,
 W. Zhang, A. T. Bell, A. K. Chakraborty, D. M. Chipman,
 F. J. Keil, A. Warshel, W. J. Hehre, H. F. Schaefer III,
 J. Kong, A. I. Krylov, P. M. W. Gill, M. Head-Gordon,
 Q-Chem, Version 3.1, Q-Chem, Inc., Pittsburgh, PA (2007).

 Additional authors for Version 3.1: 
 Z. Gan, Y. Zhao, N. E. Schultz, D. Truhlar, E. Epifanovsky and M. Oana.

 Additional authors for Version 3.2: 
 R. Baer, B. R. Brooks, D. Casanova, J.-D. Chai, C.-L. Cheng, 
 C. Cramer, D. Crittenden, A. Ghysels, G. Hawkins, E. G. Hohenstein, 
 C. Kelley, W. Kurlancheek, D. Liotard, E. Livshits, P. Manohar, 
 A. Marenich, D. Neuhauser, R. Olson, M. A. Rohrdanz, K. S. Thanthiriwatte, 
 A. J. W. Thom, V. Vanovschi, C. F. Williams, Q. Wu and Z.-Q. You. 


 Intel X86 Linux Version

 Q-chem begins on Wed May 29 17:22:04 2013  

 Parallel job on  1  processors
Processing $rem in /usr/local/qchem/config/preferences.

theFileMan(): MAXOPENFILES=974 MAX_SUB_FILE_NUM=16
Maximum size of a physical file is 2.0 GB, maximum size of a tmp-file is 32.0 GB


--------------------------------------------------------------
User input:
--------------------------------------------------------------

$molecule
1,2
C          0.66632        0.00000        0.00649
C         -0.66632        0.00000        0.00649
C          0.77917        0.00000        1.51294
C         -0.77917        0.00000        1.51294
H          1.41416        0.00000       -0.78079
H         -1.41416        0.00000       -0.78079
H          1.23769        0.88958        1.95527
H          1.23769       -0.88958        1.95527
H         -1.23769       -0.88958        1.95527
H         -1.23769        0.88958        1.95527
$end

$comment
positive
$end

$xc_functional
C PBE   1.00
X wPBE  1.00
$end

$rem
SYMMETRY_DECOMPOSITION	0
LRC_DFT                 true
exchange 		general
BASIS                   g3large
omega			290
mem_static              760
max_scf_cycles          200
scf_final_print         1
sym_ignore              true
$end

--------------------------------------------------------------
 Writing REM_CC_EA           10
 ----------------------------------------------------
       Standard Nuclear Orientation (Angstroms)
    I     Atom         X            Y            Z
 ----------------------------------------------------
    1      C       0.666320     0.000000     0.006490
    2      C      -0.666320     0.000000     0.006490
    3      C       0.779170     0.000000     1.512940
    4      C      -0.779170     0.000000     1.512940
    5      H       1.414160     0.000000    -0.780790
    6      H      -1.414160     0.000000    -0.780790
    7      H       1.237690     0.889580     1.955270
    8      H       1.237690    -0.889580     1.955270
    9      H      -1.237690    -0.889580     1.955270
   10      H      -1.237690     0.889580     1.955270
 ----------------------------------------------------
 Nuclear Repulsion Energy =   113.6097165949 hartrees
 There are       15 alpha and       14 beta electrons
 Requested basis set is G3large
 There are 76 shells and 228 basis functions

Total QAlloc Memory Limit   2000 MB
Mega-Array Size       743 MB
MEM_STATIC part       760 MB

                       Distance Matrix (Angstroms)
             C (  1)   C (  2)   C (  3)   C (  4)   H (  5)   H (  6)
   C (  2)  1.332640
   C (  3)  1.510671  2.087782
   C (  4)  2.087782  1.510671  1.558340
   H (  5)  1.085852  2.224457  2.380002  3.173625
   H (  6)  2.224457  1.085852  3.173625  2.380002  2.828320
   H (  7)  2.217106  2.866069  1.094189  2.248273  2.882450  3.912759
   H (  8)  2.217106  2.866069  1.094189  2.248273  2.882450  3.912759
   H (  9)  2.866069  2.217106  2.248273  1.094189  3.912759  2.882450
   H ( 10)  2.866069  2.217106  2.248273  1.094189  3.912759  2.882450
             H (  7)   H (  8)   H (  9)
   H (  8)  1.779160
   H (  9)  3.048429  2.475380
   H ( 10)  2.475380  3.048429  1.779160
 
 A cutoff of  1.0D-08 yielded   2785 shell pairs
 There are  25317 function pairs ( 31089 Cartesian)
Evaluating contribution to one-electron hamiltonian from nuclear
 Smallest overlap matrix eigenvalue = 4.75E-06

 Q-Chem warning in module mkSTV.C, line 194:

 Overlap eigenvalue is smaller than square root of threshold

 Multipole matrices computed through 2nd order

  Scale SEOQF with 1.000000e-01/1.000000e-01/1.000000e-01

 Standard Electronic Orientation quadrupole field applied
 Nucleus-field energy     =    -0.0000000037 hartrees
 Guess from superposition of atomic densities
 Warning:  Energy on first SCF cycle will be non-variational
 Long-range K will be added via erf
 Coulomb attenuation parameter = 0.29 bohr**(-1)
 An unrestricted Kohn-Sham SCF calculation will be
 performed using Pulay DIIS extrapolation
 Exchange:  wPBE + LR-HF      Correlation:  PBE
 Using SG-1 standard quadrature grid
 SCF converges when DIIS error is below 1.0E-05
 Requested basis set is G3large
 There are 76 shells and 228 basis functions
 A cutoff of  1.0D-08 yielded   2785 shell pairs
 There are  25317 function pairs ( 31089 Cartesian)
 Warning!  Inaccurate integrated density:
   Number of electrons =    29
   Numerical integral  =    30.000215559237
   Relative error      =     3.4490191698 %
 ---------------------------------------
  Cycle       Energy         DIIS Error
 ---------------------------------------
    1    -157.0961998324      3.10E-02
    2    -155.4810770073      2.20E-03
    3    -155.5179935350      1.23E-03
    4    -155.5280036631      4.21E-04
    5    -155.5296674569      7.34E-05
    6    -155.5298691388      2.60E-05
    7    -155.5299227034      1.07E-05
    8    -155.5299399638      7.93E-06 Convergence criterion met
 ---------------------------------------
 One-Electron    Energy =  -425.6049955945
 Total Coulomb   Energy =   179.9813202948
 Alpha Exchange  Energy =    -2.2716309140
 Beta  Exchange  Energy =    -2.1230616042
 DFT   Exchange  Energy =   -18.1855577999
 DFT Correlation Energy =    -0.9357309373
 Nuclear Repu.   Energy =   113.6097165912
 Nuclear Attr.   Energy =  -580.6191641789
 Kinetic         Energy =   155.0141685844
 <S^2> = 0.7527
 SCF time:  CPU 178.43 s  wall 179.08 s
 Final Alpha MO Eigenvalues
            1           2           3           4           5           6
    1 -10.3531982 -10.3525693 -10.2767463 -10.2766747  -1.2395554  -1.0204315
            7           8           9          10          11          12
    1  -0.9923246  -0.8609860  -0.8557134  -0.8097295  -0.7487599  -0.6818376
           13          14          15          16          17          18
    1  -0.6625641  -0.6608807  -0.6464185  -0.1996915  -0.1018621  -0.0846911
           19          20
    1  -0.0817344  -0.0773634
 Final Beta MO Eigenvalues
            1           2           3           4           5           6
    1 -10.3464858 -10.3459279 -10.2767685 -10.2767001  -1.2205047  -1.0040316
            7           8           9          10          11          12
    1  -0.9845449  -0.8521956  -0.8495839  -0.7823004  -0.7415337  -0.6720781
           13          14          15          16          17          18
    1  -0.6586593  -0.6583885  -0.3553762  -0.1408229  -0.1005256  -0.0828512
           19
    1  -0.0807184
 Analysis of SCF Wavefunction
 
 --------------------------------------------------------------
                    Orbital Energies (a.u.)
 --------------------------------------------------------------
 
 Alpha MOs
 -- Occupied --
-10.353 -10.353 -10.277 -10.277  -1.240  -1.020  -0.992  -0.861
 -0.856  -0.810  -0.749  -0.682  -0.663  -0.661  -0.646
 -- Virtual --
 -0.200  -0.102  -0.085  -0.082  -0.077  -0.048  -0.046  -0.034
 -0.024  -0.019  -0.013  -0.008   0.024   0.032   0.035   0.036
  0.037   0.044   0.045   0.053   0.059   0.070   0.073   0.080
  0.099   0.111   0.113   0.160   0.187   0.188   0.199   0.228
  0.302   0.316   0.318   0.322   0.336   0.345   0.369   0.392
  0.419   0.433   0.434   0.453   0.454   0.456   0.487   0.493
  0.507   0.513   0.553   0.560   0.593   0.600   0.610   0.671
  0.692   0.736   0.755   0.791   0.826   0.830   0.862   0.925
  0.953   0.981   0.995   1.046   1.071   1.083   1.101   1.110
  1.137   1.143   1.157   1.173   1.183   1.209   1.242   1.265
  1.269   1.302   1.307   1.330   1.354   1.384   1.400   1.446
  1.457   1.514   1.516   1.575   1.654   2.146   2.213   2.319
  2.420   2.432   2.445   2.478   2.501   2.504   2.518   2.566
  2.626   2.629   2.644   2.645   2.646   2.652   2.671   2.818
  2.837   2.849   2.881   2.948   2.951   2.973   3.003   3.070
  3.076   3.109   3.119   3.126   3.129   3.197   3.212   3.237
  3.239   3.274   3.324   3.332   3.365   3.367   3.403   3.469
  3.481   3.490   3.544   3.559   3.639   3.707   3.717   3.720
  3.768   3.791   3.814   3.914   3.927   3.994   4.012   4.026
  4.080   4.100   4.176   4.180   4.212   4.264   4.302   4.349
  4.389   4.488   4.501   4.508   4.641   4.688   4.721   4.803
  4.872   5.035   5.170   5.319   5.369   5.405   5.516   5.524
  6.172  23.487  23.935  23.992  24.348  26.919  27.198  27.276
 27.494  27.560  27.826  27.870  27.876  28.009  28.093  28.104
 28.449  40.490  40.571  40.621  40.686  40.715  40.735  40.768
 40.769  40.793  40.824  40.878  40.891  40.909  40.919  40.925
 40.933  40.947  40.984  40.986  40.997
 
 Beta MOs
 -- Occupied --
-10.346 -10.346 -10.277 -10.277  -1.221  -1.004  -0.985  -0.852
 -0.850  -0.782  -0.742  -0.672  -0.659  -0.658
 -- Virtual --
 -0.355  -0.141  -0.101  -0.083  -0.081  -0.076  -0.048  -0.043
 -0.033  -0.024  -0.014  -0.008  -0.006   0.027   0.032   0.038
  0.039   0.041   0.046   0.047   0.054   0.066   0.071   0.076
  0.080   0.101   0.112   0.115   0.162   0.192   0.195   0.202
  0.230   0.309   0.322   0.324   0.326   0.347   0.350   0.391
  0.401   0.424   0.443   0.454   0.455   0.458   0.460   0.492
  0.496   0.516   0.534   0.565   0.566   0.596   0.610   0.615
  0.675   0.696   0.752   0.758   0.794   0.833   0.836   0.870
  0.938   0.960   0.984   1.000   1.051   1.079   1.094   1.103
  1.114   1.139   1.159   1.167   1.177   1.190   1.211   1.251
  1.269   1.272   1.306   1.312   1.335   1.362   1.398   1.406
  1.451   1.463   1.519   1.522   1.584   1.666   2.156   2.221
  2.337   2.444   2.448   2.468   2.514   2.518   2.521   2.534
  2.572   2.629   2.642   2.649   2.654   2.664   2.667   2.708
  2.829   2.852   2.860   2.886   2.959   2.965   2.983   3.015
  3.079   3.090   3.120   3.136   3.147   3.149   3.215   3.225
  3.244   3.247   3.287   3.338   3.349   3.371   3.398   3.411
  3.493   3.499   3.500   3.547   3.564   3.644   3.714   3.718
  3.726   3.781   3.799   3.827   3.920   3.934   3.998   4.023
  4.032   4.089   4.107   4.181   4.185   4.219   4.285   4.308
  4.355   4.400   4.498   4.511   4.532   4.648   4.693   4.728
  4.805   4.884   5.040   5.175   5.324   5.373   5.411   5.521
  5.530   6.176  23.495  23.936  23.993  24.357  26.940  27.198
 27.297  27.495  27.562  27.827  27.873  27.877  28.011  28.096
 28.105  28.451  40.503  40.578  40.636  40.687  40.716  40.736
 40.771  40.783  40.807  40.838  40.891  40.892  40.911  40.919
 40.925  40.933  40.949  40.986  40.988  40.998
 --------------------------------------------------------------
 
          Ground-State Mulliken Net Atomic Charges

     Atom                 Charge (a.u.)    Spin (a.u.)
  --------------------------------------------------------
      1 C                     0.139074       0.447897
      2 C                     0.138883       0.447991
      3 C                    -0.125544      -0.009389
      4 C                    -0.125507      -0.009282
      5 H                     0.194155      -0.009297
      6 H                     0.194135      -0.009316
      7 H                     0.146507       0.036366
      8 H                     0.145904       0.034402
      9 H                     0.146553       0.036465
     10 H                     0.145839       0.034163
  --------------------------------------------------------
  Sum of atomic charges =     1.000000
  Sum of spin   charges =     1.000000

 -----------------------------------------------------------------
                    Cartesian Multipole Moments
 -----------------------------------------------------------------
    Charge (ESU x 10^10)
                 4.8032
    Dipole Moment (Debye)
         X       0.0003      Y      -0.0005      Z       2.8007
       Tot       2.8007
    Quadrupole Moments (Debye-Ang)
        XX     -16.3386     XY       0.0080     YY     -20.6519
        XZ       0.0007     YZ      -0.0004     ZZ     -13.7431
    Octapole Moments (Debye-Ang^2)
       XXX       0.0004    XXY      -0.0023    XYY       0.0002
       YYY      -0.0008    XXZ     -15.9110    XYZ       0.0327
       YYZ     -13.9896    XZZ       0.0015    YZZ      -0.0022
       ZZZ     -41.3872
    Hexadecapole Moments (Debye-Ang^3)
      XXXX    -111.4750   XXXY       0.0144   XXYY     -21.4881
      XYYY       0.0094   YYYY     -31.1901   XXXZ       0.0007
      XXYZ      -0.0030   XYYZ       0.0005   YYYZ      -0.0011
      XXZZ     -39.5457   XYZZ       0.0517   YYZZ     -31.5224
      XZZZ       0.0027   YZZZ      -0.0034   ZZZZ    -187.4352
 -----------------------------------------------------------------
 Total job time:  179.37s(wall), 178.71s(cpu) 
 Wed May 29 17:25:03 2013

        *************************************************************
        *                                                           *
        *  Thank you very much for using Q-Chem.  Have a nice day.  *
        *                                                           *
        *************************************************************


0 sent ACK to 0 
now end server 0 ... 
