Process 0 of 1 is on cl242.stfx.acenet.ca - thread support 1
initial socket setup ...start
initial socket setup ...done 
now start server 0 ... 

cmd = /usr/bin/ssh clhead /usr/local/qchem/bin/get_hostid 1516503463 > /scratch/tmp/6001093.1.long.q/qchem27028/lic.dat
                  Welcome to Q-Chem
     A Quantum Leap Into The Future Of Chemistry

 Y. Shao, L. Fusti-Molnar, Y. Jung, J. Kussmann, C. Ochsenfeld,
 S. T. Brown, A. T. B. Gilbert, L. V. Slipchenko,S. V. Levchenko,
 D. P. O'Neill, R. A. DiStasio Jr., R. C. Lochan, T. Wang,
 G. J. O. Beran, N. A. Besley, J. M. Herbert, C. Y. Lin,
 T. Van Voorhis, S. H. Chien, A. Sodt, R. P. Steele, 
 V. A. Rassolov, P. E. Maslen, P. P. Korambath, R. D. Adamson,
 B. Austin, J. Baker, E. F. C. Byrd, H. Dachsel, R. J. Doerksen,
 A. Dreuw, B. D. Dunietz, A. D. Dutoi, T. R. Furlani,
 S. R. Gwaltney, A. Heyden, S. Hirata, C.-P. Hsu, G. Kedziora,
 R. Z. Khaliullin, P. Klunzinger, A. M. Lee, M. S. Lee, W. Liang,
 I. Lotan, N. Nair, B. Peters, E. I. Proynov, P. A. Pieniazek, 
 Y. M. Rhee, J. Ritchie, E. Rosta, C. D. Sherrill, 
 A. C. Simmonett, J. E. Subotnik, H. L. Woodcock III,
 W. Zhang, A. T. Bell, A. K. Chakraborty, D. M. Chipman,
 F. J. Keil, A. Warshel, W. J. Hehre, H. F. Schaefer III,
 J. Kong, A. I. Krylov, P. M. W. Gill, M. Head-Gordon,
 Q-Chem, Version 3.1, Q-Chem, Inc., Pittsburgh, PA (2007).

 Additional authors for Version 3.1: 
 Z. Gan, Y. Zhao, N. E. Schultz, D. Truhlar, E. Epifanovsky and M. Oana.

 Additional authors for Version 3.2: 
 R. Baer, B. R. Brooks, D. Casanova, J.-D. Chai, C.-L. Cheng, 
 C. Cramer, D. Crittenden, A. Ghysels, G. Hawkins, E. G. Hohenstein, 
 C. Kelley, W. Kurlancheek, D. Liotard, E. Livshits, P. Manohar, 
 A. Marenich, D. Neuhauser, R. Olson, M. A. Rohrdanz, K. S. Thanthiriwatte, 
 A. J. W. Thom, V. Vanovschi, C. F. Williams, Q. Wu and Z.-Q. You. 


 Intel X86 Linux Version

 Q-chem begins on Wed May 22 21:04:21 2013  

 Parallel job on  1  processors
Processing $rem in /usr/local/qchem/config/preferences.

theFileMan(): MAXOPENFILES=974 MAX_SUB_FILE_NUM=16
Maximum size of a physical file is 2.0 GB, maximum size of a tmp-file is 32.0 GB


--------------------------------------------------------------
User input:
--------------------------------------------------------------

$molecule
-1,2
C         -0.00216        0.00000        0.00226
C          1.23793        0.00000        0.88198
C         -1.26545        0.00000        0.83395
H         -0.00573       -0.87654       -0.65022
H         -0.00573        0.87654       -0.65022
H          2.14538        0.00000        0.27675
Cl        -2.72165       -0.00000       -0.17918
H          1.26901        0.88230        1.52576
H          1.26901       -0.88230        1.52576
H         -1.32169       -0.88387        1.46940
H         -1.32169        0.88387        1.46940
$end

$comment
negative
$end

$xc_functional
C PBE   1.00
X wPBE  1.00
$end

$rem
SYMMETRY_DECOMPOSITION	0
exchange 		general
LRC_DFT                 true
BASIS                   g3large
omega			500
mem_static              760
max_scf_cycles          200
scf_final_print         1
sym_ignore              true
$end

--------------------------------------------------------------
 Writing REM_CC_EA           11
 ----------------------------------------------------
       Standard Nuclear Orientation (Angstroms)
    I     Atom         X            Y            Z
 ----------------------------------------------------
    1      C      -0.002160     0.000000     0.002260
    2      C       1.237930     0.000000     0.881980
    3      C      -1.265450     0.000000     0.833950
    4      H      -0.005730    -0.876540    -0.650220
    5      H      -0.005730     0.876540    -0.650220
    6      H       2.145380     0.000000     0.276750
    7      Cl     -2.721650     0.000000    -0.179180
    8      H       1.269010     0.882300     1.525760
    9      H       1.269010    -0.882300     1.525760
   10      H      -1.321690    -0.883870     1.469400
   11      H      -1.321690     0.883870     1.469400
 ----------------------------------------------------
 Nuclear Repulsion Energy =   159.5453635389 hartrees
 There are       22 alpha and       21 beta electrons
 Requested basis set is G3large
 There are 91 shells and 262 basis functions

Total QAlloc Memory Limit   2000 MB
Mega-Array Size       743 MB
MEM_STATIC part       760 MB

                       Distance Matrix (Angstroms)
             C (  1)   C (  2)   C (  3)   H (  4)   H (  5)   H (  6)
   C (  2)  1.520438
   C (  3)  1.512485  2.503841
   H (  4)  1.092733  2.159317  2.134942
   H (  5)  1.092733  2.159317  2.134942  1.753080
   H (  6)  2.165011  1.090765  3.456043  2.500974  2.500974
   Cl(  7)  2.725536  4.099309  1.773965  2.892477  2.892477  4.888338
   H (  8)  2.171492  1.092644  2.771379  3.074633  2.521881  1.762528
   H (  9)  2.171492  1.092644  2.771379  2.521881  3.074633  1.762528
   H ( 10)  2.162148  2.770910  1.090039  2.494914  3.053454  3.771500
   H ( 11)  2.162148  2.770910  1.090039  3.053454  2.494914  3.771500
             Cl(  7)   H (  8)   H (  9)   H ( 10)
   H (  8)  4.428390
   H (  9)  4.428390  1.764600
   H ( 10)  2.336435  3.135962  2.591313
   H ( 11)  2.336435  2.591313  3.135962  1.767740
 
 A cutoff of  1.0D-08 yielded   3713 shell pairs
 There are  30579 function pairs ( 38166 Cartesian)
Evaluating contribution to one-electron hamiltonian from nuclear
 Smallest overlap matrix eigenvalue = 2.53E-05

 Q-Chem warning in module mkSTV.C, line 194:

 Overlap eigenvalue is smaller than square root of threshold

 Multipole matrices computed through 2nd order

  Scale SEOQF with 1.000000e-01/1.000000e-01/1.000000e-01

 Standard Electronic Orientation quadrupole field applied
 Nucleus-field energy     =     0.0000000038 hartrees
 Guess from superposition of atomic densities
 Warning:  Energy on first SCF cycle will be non-variational
 Long-range K will be added via erf
 Coulomb attenuation parameter = 0.5 bohr**(-1)
 An unrestricted Kohn-Sham SCF calculation will be
 performed using Pulay DIIS extrapolation
 Exchange:  wPBE + LR-HF      Correlation:  PBE
 Using SG-1 standard quadrature grid
 SCF converges when DIIS error is below 1.0E-05
 Requested basis set is G3large
 There are 91 shells and 262 basis functions
 A cutoff of  1.0D-08 yielded   3713 shell pairs
 There are  30579 function pairs ( 38166 Cartesian)
 Warning!  Inaccurate integrated density:
   Number of electrons =    43
   Numerical integral  =    42.000365014842
   Relative error      =    -2.3247325236 %
 ---------------------------------------
  Cycle       Energy         DIIS Error
 ---------------------------------------
    1    -579.6334284289      2.55E-02
    2    -578.4296653007      2.43E-03
    3    -578.5036424448      2.16E-03
    4    -578.5441799204      4.65E-04
    5    -578.5562357907      3.27E-04
    6    -578.5615694477      1.21E-04
    7    -578.5638620520      4.53E-05
    8    -578.5643410431      1.58E-05
    9    -578.5644147349      8.20E-06 Convergence criterion met
 ---------------------------------------
 One-Electron    Energy = -1115.5508282004
 Total Coulomb   Energy =   424.5163019918
 Alpha Exchange  Energy =    -5.1386345412
 Beta  Exchange  Energy =    -5.0706185595
 DFT   Exchange  Energy =   -35.3875768043
 DFT Correlation Energy =    -1.4784221641
 Nuclear Repu.   Energy =   159.5453635428
 Nuclear Attr.   Energy = -1692.9340840127
 Kinetic         Energy =   577.3832558123
 <S^2> = 0.7502
 SCF time:  CPU 295.90 s  wall 296.69 s
 Final Alpha MO Eigenvalues
            1           2           3           4           5           6
    1-100.8085290 -10.0962067 -10.0392308 -10.0123330  -9.3331578  -7.1471948
            7           8           9          10          11          12
    1  -7.1374121  -7.1372186  -0.9433894  -0.8416728  -0.7222539  -0.6456157
           13          14          15          16          17          18
    1  -0.5222684  -0.4696739  -0.4542009  -0.4311313  -0.3782762  -0.3672498
           19          20          21          22          23          24
    1  -0.3510884  -0.3202871  -0.3176160   0.0262426   0.1336645   0.1368802
           25          26          27
    1   0.1458571   0.1754138   0.1761293
 Final Beta MO Eigenvalues
            1           2           3           4           5           6
    1-100.8084967 -10.0960086 -10.0390958 -10.0117935  -9.3331266  -7.1470963
            7           8           9          10          11          12
    1  -7.1374013  -7.1371989  -0.9430750  -0.8411098  -0.7208915  -0.6441120
           13          14          15          16          17          18
    1  -0.5218970  -0.4687673  -0.4534675  -0.4308930  -0.3776228  -0.3659613
           19          20          21          22          23          24
    1  -0.3508078  -0.3201488  -0.3173776   0.1366431   0.1476626   0.1524130
           25          26
    1   0.1558991   0.1774947
 Analysis of SCF Wavefunction
 
 --------------------------------------------------------------
                    Orbital Energies (a.u.)
 --------------------------------------------------------------
 
 Alpha MOs
 -- Occupied --
******* -10.096 -10.039 -10.012  -9.333  -7.147  -7.137  -7.137
 -0.943  -0.842  -0.722  -0.646  -0.522  -0.470  -0.454  -0.431
 -0.378  -0.367  -0.351  -0.320  -0.318   0.026
 -- Virtual --
  0.134   0.137   0.146   0.175   0.176   0.183   0.188   0.227
  0.243   0.254   0.258   0.263   0.271   0.283   0.295   0.297
  0.301   0.310   0.322   0.326   0.328   0.344   0.373   0.379
  0.398   0.410   0.418   0.444   0.469   0.482   0.493   0.511
  0.515   0.559   0.574   0.590   0.617   0.651   0.658   0.664
  0.680   0.699   0.718   0.721   0.768   0.773   0.796   0.798
  0.800   0.811   0.829   0.830   0.865   0.876   0.906   0.925
  0.949   0.953   0.995   1.013   1.052   1.075   1.082   1.133
  1.153   1.208   1.215   1.265   1.287   1.313   1.319   1.331
  1.342   1.347   1.374   1.381   1.406   1.414   1.423   1.429
  1.459   1.468   1.489   1.523   1.523   1.544   1.555   1.589
  1.632   1.646   1.647   1.676   1.690   1.713   1.717   1.735
  1.749   1.769   1.802   1.824   1.834   1.858   1.870   1.876
  1.915   1.955   1.981   2.028   2.465   2.479   2.630   2.683
  2.776   2.777   2.868   2.900   2.928   3.019   3.030   3.064
  3.066   3.121   3.129   3.208   3.220   3.307   3.310   3.329
  3.343   3.402   3.406   3.497   3.522   3.547   3.583   3.608
  3.625   3.631   3.644   3.687   3.731   3.812   3.835   3.856
  3.910   3.928   3.951   3.958   4.026   4.031   4.103   4.119
  4.186   4.236   4.247   4.250   4.295   4.330   4.364   4.451
  4.470   4.516   4.542   4.548   4.552   4.604   4.632   4.634
  4.646   4.673   4.686   4.706   4.732   4.787   4.822   4.836
  4.837   4.868   4.909   4.924   4.927   5.024   5.062   5.196
  5.316   5.331   5.474   5.499   5.552   5.702   5.772   5.917
  5.969   5.993   6.027   6.058  10.059  20.800  20.807  21.046
 24.221  24.407  24.532  27.296  27.348  27.362  27.417  27.418
 27.811  27.962  28.226  28.269  28.294  28.347  28.417  28.555
 28.640  37.002  37.002  37.006  37.009  37.015  37.016  37.029
 41.061  41.114  41.125  41.136  41.198  41.228  41.322  41.346
 41.377  41.392  41.403  41.456  41.457  41.476  41.523 215.950
 
 Beta MOs
 -- Occupied --
******* -10.096 -10.039 -10.012  -9.333  -7.147  -7.137  -7.137
 -0.943  -0.841  -0.721  -0.644  -0.522  -0.469  -0.453  -0.431
 -0.378  -0.366  -0.351  -0.320  -0.317
 -- Virtual --
  0.137   0.148   0.152   0.156   0.177   0.182   0.185   0.192
  0.226   0.239   0.254   0.257   0.266   0.267   0.278   0.295
  0.297   0.300   0.309   0.319   0.324   0.325   0.340   0.372
  0.377   0.398   0.411   0.417   0.443   0.468   0.481   0.489
  0.506   0.514   0.559   0.573   0.589   0.616   0.648   0.657
  0.663   0.679   0.697   0.717   0.721   0.767   0.771   0.795
  0.796   0.799   0.810   0.828   0.828   0.864   0.875   0.904
  0.923   0.949   0.953   0.995   1.013   1.052   1.075   1.082
  1.134   1.153   1.208   1.215   1.265   1.287   1.313   1.319
  1.331   1.342   1.347   1.374   1.381   1.406   1.415   1.423
  1.429   1.458   1.469   1.489   1.523   1.523   1.544   1.555
  1.588   1.631   1.646   1.647   1.676   1.690   1.713   1.717
  1.735   1.749   1.769   1.802   1.824   1.834   1.858   1.870
  1.876   1.915   1.955   1.981   2.028   2.465   2.479   2.630
  2.683   2.776   2.777   2.868   2.900   2.928   3.019   3.030
  3.064   3.066   3.121   3.130   3.209   3.221   3.307   3.310
  3.330   3.343   3.403   3.407   3.498   3.522   3.547   3.584
  3.609   3.625   3.631   3.645   3.687   3.731   3.813   3.835
  3.857   3.911   3.928   3.951   3.959   4.026   4.031   4.103
  4.120   4.186   4.236   4.247   4.250   4.296   4.330   4.364
  4.452   4.471   4.516   4.542   4.548   4.553   4.604   4.632
  4.634   4.646   4.673   4.686   4.706   4.732   4.788   4.822
  4.836   4.837   4.869   4.909   4.924   4.927   5.024   5.063
  5.197   5.316   5.331   5.474   5.500   5.552   5.702   5.772
  5.918   5.969   5.993   6.028   6.058  10.059  20.800  20.807
 21.046  24.221  24.407  24.533  27.296  27.348  27.362  27.417
 27.418  27.811  27.963  28.227  28.269  28.294  28.348  28.417
 28.555  28.640  37.002  37.002  37.007  37.009  37.015  37.016
 37.029  41.061  41.114  41.125  41.136  41.198  41.229  41.322
 41.346  41.377  41.392  41.403  41.456  41.457  41.477  41.524
215.950
 --------------------------------------------------------------
 
          Ground-State Mulliken Net Atomic Charges

     Atom                 Charge (a.u.)    Spin (a.u.)
  --------------------------------------------------------
      1 C                    -3.051032       3.144341
      2 C                     4.574288      -4.977209
      3 C                     2.066722      -2.003501
      4 H                    -0.105183       0.190066
      5 H                    -0.072925       0.154713
      6 H                    -1.309105       1.412026
      7 Cl                   -0.741586       0.354944
      8 H                    -0.902334       0.989798
      9 H                    -0.987301       1.078835
     10 H                    -0.258184       0.351901
     11 H                    -0.213360       0.304085
  --------------------------------------------------------
  Sum of atomic charges =    -1.000000
  Sum of spin   charges =     1.000000

 -----------------------------------------------------------------
                    Cartesian Multipole Moments
 -----------------------------------------------------------------
    Charge (ESU x 10^10)
                -4.8032
    Dipole Moment (Debye)
         X      -5.4638      Y       0.5047      Z      -5.5288
       Tot       7.7895
    Quadrupole Moments (Debye-Ang)
        XX     -78.4487     XY       0.4487     YY     -60.6139
        XZ      -8.3629     YZ       0.7679     ZZ     -64.8870
    Octapole Moments (Debye-Ang^2)
       XXX      -4.9282    XXY       2.1271    XYY      -1.6084
       YYY       6.0862    XXZ     -45.6810    XYZ       0.4849
       YYZ     -46.2248    XZZ      -8.8325    YZZ       3.2397
       ZZZ    -131.5498
    Hexadecapole Moments (Debye-Ang^3)
      XXXX   -1491.4346   XXXY       4.7424   XXYY    -291.6101
      XYYY       4.2820   YYYY    -401.2810   XXXZ    -109.9236
      XXYZ       3.1261   XYYZ     -43.3520   YYYZ       7.9671
      XXZZ    -333.8755   XYZZ       2.1567   YYZZ    -182.6606
      XZZZ    -119.3765   YZZZ       9.5032   ZZZZ    -639.5116
 -----------------------------------------------------------------
 Total job time:  297.08s(wall), 296.28s(cpu) 
 Wed May 22 21:09:19 2013

        *************************************************************
        *                                                           *
        *  Thank you very much for using Q-Chem.  Have a nice day.  *
        *                                                           *
        *************************************************************


0 sent ACK to 0 
now end server 0 ... 
 
**********************************************************************
Job 2 of 3 
**********************************************************************
 
Process 0 of 1 is on cl242.stfx.acenet.ca - thread support 1
initial socket setup ...start
initial socket setup ...done 
now start server 0 ... 

cmd = /usr/bin/ssh clhead /usr/local/qchem/bin/get_hostid 461794166 > /scratch/tmp/6001093.1.long.q/qchem27028/lic.dat
                  Welcome to Q-Chem
     A Quantum Leap Into The Future Of Chemistry

 Y. Shao, L. Fusti-Molnar, Y. Jung, J. Kussmann, C. Ochsenfeld,
 S. T. Brown, A. T. B. Gilbert, L. V. Slipchenko,S. V. Levchenko,
 D. P. O'Neill, R. A. DiStasio Jr., R. C. Lochan, T. Wang,
 G. J. O. Beran, N. A. Besley, J. M. Herbert, C. Y. Lin,
 T. Van Voorhis, S. H. Chien, A. Sodt, R. P. Steele, 
 V. A. Rassolov, P. E. Maslen, P. P. Korambath, R. D. Adamson,
 B. Austin, J. Baker, E. F. C. Byrd, H. Dachsel, R. J. Doerksen,
 A. Dreuw, B. D. Dunietz, A. D. Dutoi, T. R. Furlani,
 S. R. Gwaltney, A. Heyden, S. Hirata, C.-P. Hsu, G. Kedziora,
 R. Z. Khaliullin, P. Klunzinger, A. M. Lee, M. S. Lee, W. Liang,
 I. Lotan, N. Nair, B. Peters, E. I. Proynov, P. A. Pieniazek, 
 Y. M. Rhee, J. Ritchie, E. Rosta, C. D. Sherrill, 
 A. C. Simmonett, J. E. Subotnik, H. L. Woodcock III,
 W. Zhang, A. T. Bell, A. K. Chakraborty, D. M. Chipman,
 F. J. Keil, A. Warshel, W. J. Hehre, H. F. Schaefer III,
 J. Kong, A. I. Krylov, P. M. W. Gill, M. Head-Gordon,
 Q-Chem, Version 3.1, Q-Chem, Inc., Pittsburgh, PA (2007).

 Additional authors for Version 3.1: 
 Z. Gan, Y. Zhao, N. E. Schultz, D. Truhlar, E. Epifanovsky and M. Oana.

 Additional authors for Version 3.2: 
 R. Baer, B. R. Brooks, D. Casanova, J.-D. Chai, C.-L. Cheng, 
 C. Cramer, D. Crittenden, A. Ghysels, G. Hawkins, E. G. Hohenstein, 
 C. Kelley, W. Kurlancheek, D. Liotard, E. Livshits, P. Manohar, 
 A. Marenich, D. Neuhauser, R. Olson, M. A. Rohrdanz, K. S. Thanthiriwatte, 
 A. J. W. Thom, V. Vanovschi, C. F. Williams, Q. Wu and Z.-Q. You. 


 Intel X86 Linux Version

 Q-chem begins on Wed May 22 21:09:21 2013  

 Parallel job on  1  processors
Processing $rem in /usr/local/qchem/config/preferences.

theFileMan(): MAXOPENFILES=974 MAX_SUB_FILE_NUM=16
Maximum size of a physical file is 2.0 GB, maximum size of a tmp-file is 32.0 GB


--------------------------------------------------------------
User input:
--------------------------------------------------------------

$molecule
0,1
C         -0.00216        0.00000        0.00226
C          1.23793        0.00000        0.88198
C         -1.26545        0.00000        0.83395
H         -0.00573       -0.87654       -0.65022
H         -0.00573        0.87654       -0.65022
H          2.14538        0.00000        0.27675
Cl        -2.72165       -0.00000       -0.17918
H          1.26901        0.88230        1.52576
H          1.26901       -0.88230        1.52576
H         -1.32169       -0.88387        1.46940
H         -1.32169        0.88387        1.46940
$end

$comment
neutral
$end

$xc_functional
C PBE   1.00
X wPBE  1.00
$end


$rem
SYMMETRY_DECOMPOSITION	0
LRC_DFT                 true
exchange 		general
BASIS                   g3large
omega			500
mem_static              760
max_scf_cycles          200
scf_final_print         1
sym_ignore              true
$end

--------------------------------------------------------------
 Writing REM_CC_EA           11
 ----------------------------------------------------
       Standard Nuclear Orientation (Angstroms)
    I     Atom         X            Y            Z
 ----------------------------------------------------
    1      C      -0.002160     0.000000     0.002260
    2      C       1.237930     0.000000     0.881980
    3      C      -1.265450     0.000000     0.833950
    4      H      -0.005730    -0.876540    -0.650220
    5      H      -0.005730     0.876540    -0.650220
    6      H       2.145380     0.000000     0.276750
    7      Cl     -2.721650     0.000000    -0.179180
    8      H       1.269010     0.882300     1.525760
    9      H       1.269010    -0.882300     1.525760
   10      H      -1.321690    -0.883870     1.469400
   11      H      -1.321690     0.883870     1.469400
 ----------------------------------------------------
 Nuclear Repulsion Energy =   159.5453635389 hartrees
 There are       21 alpha and       21 beta electrons
 Requested basis set is G3large
 There are 91 shells and 262 basis functions

Total QAlloc Memory Limit   2000 MB
Mega-Array Size       743 MB
MEM_STATIC part       760 MB

                       Distance Matrix (Angstroms)
             C (  1)   C (  2)   C (  3)   H (  4)   H (  5)   H (  6)
   C (  2)  1.520438
   C (  3)  1.512485  2.503841
   H (  4)  1.092733  2.159317  2.134942
   H (  5)  1.092733  2.159317  2.134942  1.753080
   H (  6)  2.165011  1.090765  3.456043  2.500974  2.500974
   Cl(  7)  2.725536  4.099309  1.773965  2.892477  2.892477  4.888338
   H (  8)  2.171492  1.092644  2.771379  3.074633  2.521881  1.762528
   H (  9)  2.171492  1.092644  2.771379  2.521881  3.074633  1.762528
   H ( 10)  2.162148  2.770910  1.090039  2.494914  3.053454  3.771500
   H ( 11)  2.162148  2.770910  1.090039  3.053454  2.494914  3.771500
             Cl(  7)   H (  8)   H (  9)   H ( 10)
   H (  8)  4.428390
   H (  9)  4.428390  1.764600
   H ( 10)  2.336435  3.135962  2.591313
   H ( 11)  2.336435  2.591313  3.135962  1.767740
 
 A cutoff of  1.0D-08 yielded   3713 shell pairs
 There are  30579 function pairs ( 38166 Cartesian)
Evaluating contribution to one-electron hamiltonian from nuclear
 Smallest overlap matrix eigenvalue = 2.53E-05

 Q-Chem warning in module mkSTV.C, line 194:

 Overlap eigenvalue is smaller than square root of threshold

 Multipole matrices computed through 2nd order

  Scale SEOQF with 1.000000e-01/1.000000e-01/1.000000e-01

 Standard Electronic Orientation quadrupole field applied
 Nucleus-field energy     =     0.0000000038 hartrees
 Guess from superposition of atomic densities
 Warning:  Energy on first SCF cycle will be non-variational
 Long-range K will be added via erf
 Coulomb attenuation parameter = 0.5 bohr**(-1)
 A restricted Kohn-Sham SCF calculation will be
 performed using Pulay DIIS extrapolation
 Exchange:  wPBE + LR-HF      Correlation:  PBE
 Using SG-1 standard quadrature grid
 SCF converges when DIIS error is below 1.0E-05
 Requested basis set is G3large
 There are 91 shells and 262 basis functions
 A cutoff of  1.0D-08 yielded   3713 shell pairs
 There are  30579 function pairs ( 38166 Cartesian)
 ---------------------------------------
  Cycle       Energy         DIIS Error
 ---------------------------------------
    1    -579.6334284289      2.55E-02
    2    -578.5494037641      1.96E-03
    3    -578.5874513398      9.70E-04
    4    -578.5942057231      2.70E-04
    5    -578.5951257264      7.08E-05
    6    -578.5951890528      2.23E-05
    7    -578.5951930944      7.46E-06 Convergence criterion met
 ---------------------------------------
 One-Electron    Energy = -1110.5415819454
 Total Coulomb   Energy =   419.3992903827
 Alpha Exchange  Energy =    -5.0726632571
 Beta  Exchange  Energy =    -5.0726632571
 DFT   Exchange  Energy =   -35.3821205628
 DFT Correlation Energy =    -1.4708179974
 Nuclear Repu.   Energy =   159.5453635428
 Nuclear Attr.   Energy = -1687.8505387342
 Kinetic         Energy =   577.3089567888
 SCF time:  CPU 173.98 s  wall 174.93 s
 Final Alpha MO Eigenvalues
            1           2           3           4           5           6
    1-100.9153721 -10.2152727 -10.1658566 -10.1553592  -9.4396859  -7.2541895
            7           8           9          10          11          12
    1  -7.2437556  -7.2435398  -1.0557544  -0.9677698  -0.8484478  -0.7712591
           13          14          15          16          17          18
    1  -0.6459220  -0.5944124  -0.5763940  -0.5610176  -0.5046361  -0.4960767
           19          20          21          22          23          24
    1  -0.4828009  -0.4282181  -0.4276175   0.0376095   0.0546783   0.0576152
           25          26
    1   0.0614082   0.0859670
 Analysis of SCF Wavefunction
 
 --------------------------------------------------------------
                    Orbital Energies (a.u.)
 --------------------------------------------------------------
 
 Alpha MOs
 -- Occupied --
******* -10.215 -10.166 -10.155  -9.440  -7.254  -7.244  -7.244
 -1.056  -0.968  -0.848  -0.771  -0.646  -0.594  -0.576  -0.561
 -0.505  -0.496  -0.483  -0.428  -0.428
 -- Virtual --
  0.038   0.055   0.058   0.061   0.086   0.087   0.096   0.098
  0.126   0.140   0.159   0.166   0.168   0.170   0.173   0.186
  0.193   0.198   0.206   0.216   0.222   0.225   0.234   0.257
  0.275   0.276   0.287   0.299   0.322   0.353   0.367   0.375
  0.397   0.410   0.450   0.467   0.474   0.503   0.522   0.539
  0.547   0.575   0.581   0.609   0.613   0.640   0.652   0.673
  0.676   0.679   0.690   0.701   0.702   0.744   0.755   0.780
  0.800   0.829   0.830   0.871   0.888   0.926   0.945   0.960
  1.008   1.014   1.087   1.098   1.151   1.167   1.194   1.204
  1.217   1.224   1.237   1.255   1.256   1.277   1.293   1.301
  1.311   1.331   1.346   1.370   1.396   1.400   1.424   1.430
  1.463   1.506   1.521   1.529   1.553   1.572   1.580   1.589
  1.619   1.625   1.651   1.676   1.701   1.712   1.735   1.737
  1.757   1.798   1.829   1.858   1.916   2.358   2.373   2.520
  2.550   2.640   2.653   2.735   2.772   2.801   2.894   2.903
  2.938   2.938   2.993   3.003   3.078   3.079   3.181   3.184
  3.203   3.217   3.266   3.275   3.370   3.393   3.422   3.457
  3.476   3.491   3.501   3.516   3.572   3.602   3.677   3.702
  3.732   3.788   3.801   3.826   3.831   3.894   3.906   3.971
  3.992   4.053   4.103   4.123   4.123   4.161   4.200   4.235
  4.320   4.347   4.384   4.403   4.424   4.426   4.474   4.501
  4.514   4.539   4.557   4.567   4.594   4.623   4.668   4.695
  4.711   4.715   4.741   4.777   4.798   4.812   4.900   4.937
  5.069   5.211   5.225   5.366   5.388   5.425   5.573   5.648
  5.781   5.847   5.851   5.898   5.948   9.953  20.693  20.701
 20.939  24.098  24.273  24.400  27.190  27.241  27.255  27.309
 27.310  27.683  27.833  28.110  28.142  28.161  28.205  28.288
 28.430  28.507  36.895  36.896  36.900  36.903  36.909  36.909
 36.922  40.942  40.986  40.994  41.004  41.069  41.091  41.202
 41.223  41.248  41.253  41.282  41.322  41.330  41.333  41.391
215.843
 --------------------------------------------------------------
 
          Ground-State Mulliken Net Atomic Charges

     Atom                 Charge (a.u.)
  ----------------------------------------
      1 C                     0.061331
      2 C                    -0.398486
      3 C                     0.065601
      4 H                     0.090711
      5 H                     0.090712
      6 H                     0.097303
      7 Cl                   -0.352419
      8 H                     0.083727
      9 H                     0.083754
     10 H                     0.088864
     11 H                     0.088903
  ----------------------------------------
  Sum of atomic charges =     0.000000

 -----------------------------------------------------------------
                    Cartesian Multipole Moments
 -----------------------------------------------------------------
    Charge (ESU x 10^10)
                 0.0000
    Dipole Moment (Debye)
         X       1.9720      Y       0.0001      Z       1.0187
       Tot       2.2196
    Quadrupole Moments (Debye-Ang)
        XX     -39.2699     XY      -0.0004     YY     -32.4189
        XZ      -1.3629     YZ       0.0000     ZZ     -31.9852
    Octapole Moments (Debye-Ang^2)
       XXX     116.7342    XXY       0.0038    XYY      33.5369
       YYY       0.0000    XXZ     -11.0621    XYZ       0.0016
       YYZ      -8.4093    XZZ      31.3150    YZZ       0.0011
       ZZZ     -28.8646
    Hexadecapole Moments (Debye-Ang^3)
      XXXX    -787.8148   XXXY      -0.0185   XXYY    -138.1197
      XYYY       0.0009   YYYY     -55.1741   XXXZ     -13.1897
      XXYZ      -0.0062   XYYZ      -8.7645   YYYZ       0.0005
      XXZZ    -143.6117   XYZZ      -0.0016   YYZZ     -26.6178
      XZZZ     -23.7615   YZZZ       0.0010   ZZZZ    -128.3155
 -----------------------------------------------------------------
 Total job time:  175.29s(wall), 174.34s(cpu) 
 Wed May 22 21:12:16 2013

        *************************************************************
        *                                                           *
        *  Thank you very much for using Q-Chem.  Have a nice day.  *
        *                                                           *
        *************************************************************


0 sent ACK to 0 
now end server 0 ... 
 
**********************************************************************
Job 3 of 3 
**********************************************************************
 
Process 0 of 1 is on cl242.stfx.acenet.ca - thread support 1
initial socket setup ...start
initial socket setup ...done 
now start server 0 ... 

cmd = /usr/bin/ssh clhead /usr/local/qchem/bin/get_hostid 1093306967 > /scratch/tmp/6001093.1.long.q/qchem27028/lic.dat
                  Welcome to Q-Chem
     A Quantum Leap Into The Future Of Chemistry

 Y. Shao, L. Fusti-Molnar, Y. Jung, J. Kussmann, C. Ochsenfeld,
 S. T. Brown, A. T. B. Gilbert, L. V. Slipchenko,S. V. Levchenko,
 D. P. O'Neill, R. A. DiStasio Jr., R. C. Lochan, T. Wang,
 G. J. O. Beran, N. A. Besley, J. M. Herbert, C. Y. Lin,
 T. Van Voorhis, S. H. Chien, A. Sodt, R. P. Steele, 
 V. A. Rassolov, P. E. Maslen, P. P. Korambath, R. D. Adamson,
 B. Austin, J. Baker, E. F. C. Byrd, H. Dachsel, R. J. Doerksen,
 A. Dreuw, B. D. Dunietz, A. D. Dutoi, T. R. Furlani,
 S. R. Gwaltney, A. Heyden, S. Hirata, C.-P. Hsu, G. Kedziora,
 R. Z. Khaliullin, P. Klunzinger, A. M. Lee, M. S. Lee, W. Liang,
 I. Lotan, N. Nair, B. Peters, E. I. Proynov, P. A. Pieniazek, 
 Y. M. Rhee, J. Ritchie, E. Rosta, C. D. Sherrill, 
 A. C. Simmonett, J. E. Subotnik, H. L. Woodcock III,
 W. Zhang, A. T. Bell, A. K. Chakraborty, D. M. Chipman,
 F. J. Keil, A. Warshel, W. J. Hehre, H. F. Schaefer III,
 J. Kong, A. I. Krylov, P. M. W. Gill, M. Head-Gordon,
 Q-Chem, Version 3.1, Q-Chem, Inc., Pittsburgh, PA (2007).

 Additional authors for Version 3.1: 
 Z. Gan, Y. Zhao, N. E. Schultz, D. Truhlar, E. Epifanovsky and M. Oana.

 Additional authors for Version 3.2: 
 R. Baer, B. R. Brooks, D. Casanova, J.-D. Chai, C.-L. Cheng, 
 C. Cramer, D. Crittenden, A. Ghysels, G. Hawkins, E. G. Hohenstein, 
 C. Kelley, W. Kurlancheek, D. Liotard, E. Livshits, P. Manohar, 
 A. Marenich, D. Neuhauser, R. Olson, M. A. Rohrdanz, K. S. Thanthiriwatte, 
 A. J. W. Thom, V. Vanovschi, C. F. Williams, Q. Wu and Z.-Q. You. 


 Intel X86 Linux Version

 Q-chem begins on Wed May 22 21:12:19 2013  

 Parallel job on  1  processors
Processing $rem in /usr/local/qchem/config/preferences.

theFileMan(): MAXOPENFILES=974 MAX_SUB_FILE_NUM=16
Maximum size of a physical file is 2.0 GB, maximum size of a tmp-file is 32.0 GB


--------------------------------------------------------------
User input:
--------------------------------------------------------------

$molecule
1,2
C         -0.00216        0.00000        0.00226
C          1.23793        0.00000        0.88198
C         -1.26545        0.00000        0.83395
H         -0.00573       -0.87654       -0.65022
H         -0.00573        0.87654       -0.65022
H          2.14538        0.00000        0.27675
Cl        -2.72165       -0.00000       -0.17918
H          1.26901        0.88230        1.52576
H          1.26901       -0.88230        1.52576
H         -1.32169       -0.88387        1.46940
H         -1.32169        0.88387        1.46940
$end

$comment
positive
$end

$xc_functional
C PBE   1.00
X wPBE  1.00
$end

$rem
SYMMETRY_DECOMPOSITION	0
LRC_DFT                 true
exchange 		general
BASIS                   g3large
omega			500
mem_static              760
max_scf_cycles          200
scf_final_print         1
sym_ignore              true
$end

--------------------------------------------------------------
 Writing REM_CC_EA           11
 ----------------------------------------------------
       Standard Nuclear Orientation (Angstroms)
    I     Atom         X            Y            Z
 ----------------------------------------------------
    1      C      -0.002160     0.000000     0.002260
    2      C       1.237930     0.000000     0.881980
    3      C      -1.265450     0.000000     0.833950
    4      H      -0.005730    -0.876540    -0.650220
    5      H      -0.005730     0.876540    -0.650220
    6      H       2.145380     0.000000     0.276750
    7      Cl     -2.721650     0.000000    -0.179180
    8      H       1.269010     0.882300     1.525760
    9      H       1.269010    -0.882300     1.525760
   10      H      -1.321690    -0.883870     1.469400
   11      H      -1.321690     0.883870     1.469400
 ----------------------------------------------------
 Nuclear Repulsion Energy =   159.5453635389 hartrees
 There are       21 alpha and       20 beta electrons
 Requested basis set is G3large
 There are 91 shells and 262 basis functions

Total QAlloc Memory Limit   2000 MB
Mega-Array Size       743 MB
MEM_STATIC part       760 MB

                       Distance Matrix (Angstroms)
             C (  1)   C (  2)   C (  3)   H (  4)   H (  5)   H (  6)
   C (  2)  1.520438
   C (  3)  1.512485  2.503841
   H (  4)  1.092733  2.159317  2.134942
   H (  5)  1.092733  2.159317  2.134942  1.753080
   H (  6)  2.165011  1.090765  3.456043  2.500974  2.500974
   Cl(  7)  2.725536  4.099309  1.773965  2.892477  2.892477  4.888338
   H (  8)  2.171492  1.092644  2.771379  3.074633  2.521881  1.762528
   H (  9)  2.171492  1.092644  2.771379  2.521881  3.074633  1.762528
   H ( 10)  2.162148  2.770910  1.090039  2.494914  3.053454  3.771500
   H ( 11)  2.162148  2.770910  1.090039  3.053454  2.494914  3.771500
             Cl(  7)   H (  8)   H (  9)   H ( 10)
   H (  8)  4.428390
   H (  9)  4.428390  1.764600
   H ( 10)  2.336435  3.135962  2.591313
   H ( 11)  2.336435  2.591313  3.135962  1.767740
 
 A cutoff of  1.0D-08 yielded   3713 shell pairs
 There are  30579 function pairs ( 38166 Cartesian)
Evaluating contribution to one-electron hamiltonian from nuclear
 Smallest overlap matrix eigenvalue = 2.53E-05

 Q-Chem warning in module mkSTV.C, line 194:

 Overlap eigenvalue is smaller than square root of threshold

 Multipole matrices computed through 2nd order

  Scale SEOQF with 1.000000e-01/1.000000e-01/1.000000e-01

 Standard Electronic Orientation quadrupole field applied
 Nucleus-field energy     =     0.0000000038 hartrees
 Guess from superposition of atomic densities
 Warning:  Energy on first SCF cycle will be non-variational
 Long-range K will be added via erf
 Coulomb attenuation parameter = 0.5 bohr**(-1)
 An unrestricted Kohn-Sham SCF calculation will be
 performed using Pulay DIIS extrapolation
 Exchange:  wPBE + LR-HF      Correlation:  PBE
 Using SG-1 standard quadrature grid
 SCF converges when DIIS error is below 1.0E-05
 Requested basis set is G3large
 There are 91 shells and 262 basis functions
 A cutoff of  1.0D-08 yielded   3713 shell pairs
 There are  30579 function pairs ( 38166 Cartesian)
 Warning!  Inaccurate integrated density:
   Number of electrons =    41
   Numerical integral  =    42.000365014842
   Relative error      =     2.4399146703 %
 ---------------------------------------
  Cycle       Energy         DIIS Error
 ---------------------------------------
    1    -579.6334284289      2.55E-02
    2    -578.0913474773      2.24E-03
    3    -578.1447516626      1.56E-03
    4    -578.1657314453      3.37E-04
    5    -578.1720331827      2.64E-04
    6    -578.1747428284      1.82E-04
    7    -578.1808222821      1.47E-04
    8    -578.1856240517      9.66E-05
    9    -578.1858191903      5.36E-05
   10    -578.1865167509      2.63E-05
   11    -578.1865571822      1.30E-05
   12    -578.1865737930      9.90E-06 Convergence criterion met
 ---------------------------------------
 One-Electron    Energy = -1099.5768916022
 Total Coulomb   Energy =   408.5007620962
 Alpha Exchange  Energy =    -5.0974815040
 Beta  Exchange  Energy =    -4.8501950225
 DFT   Exchange  Energy =   -35.2769127229
 DFT Correlation Energy =    -1.4312185803
 Nuclear Repu.   Energy =   159.5453635428
 Nuclear Attr.   Energy = -1676.5388692478
 Kinetic         Energy =   576.9619776455
 <S^2> = 0.7561
 SCF time:  CPU 379.68 s  wall 380.69 s
 Final Alpha MO Eigenvalues
            1           2           3           4           5           6
    1-101.2959576 -10.4639310 -10.3618701 -10.3138084  -9.8142830  -7.6352251
            7           8           9          10          11          12
    1  -7.6225813  -7.6128001  -1.3791528  -1.1898559  -1.0696655  -0.9723713
           13          14          15          16          17          18
    1  -0.8934198  -0.8554861  -0.8239823  -0.7897856  -0.7483987  -0.7283238
           19          20          21          22          23          24
    1  -0.6912851  -0.6692067  -0.6560830  -0.1316687  -0.0981272  -0.0731133
           25          26
    1  -0.0690386  -0.0595578
 Final Beta MO Eigenvalues
            1           2           3           4           5           6
    1-101.2901398 -10.4635047 -10.3614413 -10.3137243  -9.8088723  -7.6197951
            7           8           9          10          11          12
    1  -7.6190660  -7.6091231  -1.3360401  -1.1761085  -1.0587082  -0.9675859
           13          14          15          16          17          18
    1  -0.8607521  -0.8438793  -0.7959830  -0.7502825  -0.7260237  -0.6880745
           19          20          21          22          23          24
    1  -0.6682345  -0.6551313  -0.3864732  -0.1205293  -0.0967666  -0.0716265
           25
    1  -0.0686194
 Analysis of SCF Wavefunction
 
 --------------------------------------------------------------
                    Orbital Energies (a.u.)
 --------------------------------------------------------------
 
 Alpha MOs
 -- Occupied --
******* -10.464 -10.362 -10.314  -9.814  -7.635  -7.623  -7.613
 -1.379  -1.190  -1.070  -0.972  -0.893  -0.855  -0.824  -0.790
 -0.748  -0.728  -0.691  -0.669  -0.656
 -- Virtual --
 -0.132  -0.098  -0.073  -0.069  -0.060  -0.037  -0.036  -0.022
 -0.020  -0.019  -0.001   0.013   0.017   0.031   0.033   0.035
  0.051   0.053   0.062   0.066   0.067   0.084   0.088   0.104
  0.104   0.114   0.117   0.132   0.148   0.151   0.166   0.184
  0.208   0.220   0.231   0.257   0.277   0.291   0.344   0.361
  0.366   0.373   0.385   0.396   0.403   0.462   0.475   0.488
  0.493   0.497   0.505   0.538   0.539   0.558   0.567   0.605
  0.607   0.633   0.643   0.680   0.693   0.744   0.753   0.763
  0.810   0.852   0.861   0.863   0.893   0.917   0.921   0.949
  0.952   0.960   0.976   1.018   1.038   1.070   1.096   1.100
  1.105   1.134   1.151   1.162   1.179   1.188   1.203   1.236
  1.270   1.288   1.316   1.324   1.328   1.376   1.377   1.391
  1.427   1.428   1.436   1.483   1.488   1.507   1.516   1.561
  1.562   1.589   1.632   1.655   1.661   2.027   2.061   2.227
  2.359   2.453   2.471   2.535   2.583   2.612   2.683   2.705
  2.734   2.737   2.799   2.803   2.883   2.923   2.951   2.979
  2.991   3.012   3.088   3.097   3.169   3.196   3.204   3.246
  3.286   3.302   3.313   3.320   3.331   3.406   3.490   3.513
  3.518   3.566   3.592   3.626   3.632   3.689   3.706   3.782
  3.791   3.866   3.885   3.924   3.936   3.983   4.005   4.036
  4.103   4.124   4.150   4.165   4.169   4.212   4.227   4.235
  4.249   4.272   4.276   4.303   4.330   4.343   4.377   4.454
  4.497   4.510   4.523   4.536   4.600   4.603   4.685   4.733
  4.840   4.843   4.875   5.012   5.059   5.222   5.369   5.442
  5.596   5.620   5.625   5.698   5.718   9.589  20.304  20.333
 20.574  23.867  24.084  24.217  26.808  26.870  26.875  26.934
 26.958  27.475  27.636  27.842  27.910  27.982  28.046  28.098
 28.216  28.324  36.515  36.517  36.524  36.527  36.533  36.546
 36.556  40.693  40.755  40.799  40.833  40.874  40.920  40.953
 40.991  41.027  41.062  41.090  41.133  41.136  41.175  41.211
215.464
 
 Beta MOs
 -- Occupied --
******* -10.464 -10.361 -10.314  -9.809  -7.620  -7.619  -7.609
 -1.336  -1.176  -1.059  -0.968  -0.861  -0.844  -0.796  -0.750
 -0.726  -0.688  -0.668  -0.655
 -- Virtual --
 -0.386  -0.121  -0.097  -0.072  -0.069  -0.058  -0.035  -0.035
 -0.019  -0.019  -0.017   0.001   0.016   0.020   0.034   0.036
  0.038   0.053   0.054   0.067   0.067   0.075   0.086   0.088
  0.105   0.106   0.117   0.124   0.140   0.161   0.171   0.172
  0.187   0.216   0.227   0.248   0.260   0.281   0.297   0.352
  0.366   0.372   0.376   0.393   0.405   0.406   0.465   0.477
  0.491   0.497   0.500   0.506   0.539   0.540   0.561   0.571
  0.607   0.615   0.635   0.644   0.683   0.696   0.745   0.757
  0.765   0.814   0.856   0.870   0.871   0.908   0.931   0.950
  0.956   0.977   0.978   0.991   1.023   1.048   1.076   1.102
  1.102   1.108   1.139   1.153   1.165   1.188   1.192   1.211
  1.238   1.274   1.298   1.319   1.327   1.335   1.379   1.383
  1.397   1.428   1.434   1.439   1.485   1.501   1.510   1.518
  1.563   1.565   1.591   1.634   1.658   1.667   2.066   2.078
  2.234   2.362   2.455   2.473   2.538   2.583   2.612   2.687
  2.707   2.736   2.738   2.801   2.804   2.884   2.924   2.954
  2.981   2.992   3.014   3.089   3.097   3.170   3.197   3.208
  3.249   3.287   3.305   3.314   3.320   3.332   3.408   3.491
  3.515   3.519   3.567   3.594   3.629   3.634   3.693   3.708
  3.783   3.793   3.868   3.892   3.925   3.937   3.985   4.009
  4.039   4.120   4.132   4.167   4.196   4.205   4.234   4.240
  4.243   4.268   4.280   4.298   4.312   4.339   4.351   4.394
  4.462   4.501   4.511   4.533   4.538   4.601   4.605   4.689
  4.734   4.853   4.858   4.884   5.027   5.064   5.225   5.373
  5.444   5.601   5.627   5.629   5.698   5.718   9.600  20.328
 20.338  20.579  23.868  24.085  24.218  26.821  26.879  26.886
 26.943  26.962  27.476  27.636  27.842  27.911  27.982  28.046
 28.098  28.217  28.325  36.521  36.523  36.529  36.531  36.538
 36.547  36.558  40.694  40.756  40.800  40.833  40.875  40.920
 40.954  40.991  41.028  41.063  41.090  41.134  41.136  41.175
 41.211 215.471
 --------------------------------------------------------------
 
          Ground-State Mulliken Net Atomic Charges

     Atom                 Charge (a.u.)    Spin (a.u.)
  --------------------------------------------------------
      1 C                     0.002668       0.024690
      2 C                    -0.350053       0.005348
      3 C                     0.095226      -0.002333
      4 H                     0.121169       0.004116
      5 H                     0.125895       0.000217
      6 H                     0.131986       0.001861
      7 Cl                    0.355529       0.886936
      8 H                     0.102199      -0.000086
      9 H                     0.103573      -0.000316
     10 H                     0.150311       0.017750
     11 H                     0.161496       0.061816
  --------------------------------------------------------
  Sum of atomic charges =     1.000000
  Sum of spin   charges =     1.000000

 -----------------------------------------------------------------
                    Cartesian Multipole Moments
 -----------------------------------------------------------------
    Charge (ESU x 10^10)
                 4.8032
    Dipole Moment (Debye)
         X      -7.2709      Y       0.0858      Z       1.7103
       Tot       7.4699
    Quadrupole Moments (Debye-Ang)
        XX      -7.3098     XY      -0.4984     YY     -27.5895
        XZ      -0.1838     YZ       0.7302     ZZ     -26.0527
    Octapole Moments (Debye-Ang^2)
       XXX      30.4815    XXY       2.3696    XYY      24.8463
       YYY       0.0893    XXZ     -11.5973    XYZ      -1.6474
       YYZ      -7.3231    XZZ      24.2985    YZZ       0.0569
       ZZZ     -24.1728
    Hexadecapole Moments (Debye-Ang^3)
      XXXX    -473.1034   XXXY      -9.9629   XXYY    -109.2675
      XYYY      -0.3830   YYYY     -44.2736   XXXZ      -2.9635
      XXYZ       4.1403   XYYZ      -7.7299   YYYZ       0.6571
      XXZZ    -118.5102   XYZZ       0.2053   YYZZ     -20.0736
      XZZZ     -22.4881   YZZZ       1.1382   ZZZZ    -107.6100
 -----------------------------------------------------------------
 Total job time:  381.06s(wall), 380.03s(cpu) 
 Wed May 22 21:18:40 2013

        *************************************************************
        *                                                           *
        *  Thank you very much for using Q-Chem.  Have a nice day.  *
        *                                                           *
        *************************************************************


0 sent ACK to 0 
now end server 0 ... 
