Process 0 of 1 is on cl241.stfx.acenet.ca - thread support 1
initial socket setup ...start
initial socket setup ...done 
now start server 0 ... 

cmd = /usr/bin/ssh clhead /usr/local/qchem/bin/get_hostid 575475331 > /scratch/tmp/6064820.1.long.q/qchem25059/lic.dat
                  Welcome to Q-Chem
     A Quantum Leap Into The Future Of Chemistry

 Y. Shao, L. Fusti-Molnar, Y. Jung, J. Kussmann, C. Ochsenfeld,
 S. T. Brown, A. T. B. Gilbert, L. V. Slipchenko,S. V. Levchenko,
 D. P. O'Neill, R. A. DiStasio Jr., R. C. Lochan, T. Wang,
 G. J. O. Beran, N. A. Besley, J. M. Herbert, C. Y. Lin,
 T. Van Voorhis, S. H. Chien, A. Sodt, R. P. Steele, 
 V. A. Rassolov, P. E. Maslen, P. P. Korambath, R. D. Adamson,
 B. Austin, J. Baker, E. F. C. Byrd, H. Dachsel, R. J. Doerksen,
 A. Dreuw, B. D. Dunietz, A. D. Dutoi, T. R. Furlani,
 S. R. Gwaltney, A. Heyden, S. Hirata, C.-P. Hsu, G. Kedziora,
 R. Z. Khaliullin, P. Klunzinger, A. M. Lee, M. S. Lee, W. Liang,
 I. Lotan, N. Nair, B. Peters, E. I. Proynov, P. A. Pieniazek, 
 Y. M. Rhee, J. Ritchie, E. Rosta, C. D. Sherrill, 
 A. C. Simmonett, J. E. Subotnik, H. L. Woodcock III,
 W. Zhang, A. T. Bell, A. K. Chakraborty, D. M. Chipman,
 F. J. Keil, A. Warshel, W. J. Hehre, H. F. Schaefer III,
 J. Kong, A. I. Krylov, P. M. W. Gill, M. Head-Gordon,
 Q-Chem, Version 3.1, Q-Chem, Inc., Pittsburgh, PA (2007).

 Additional authors for Version 3.1: 
 Z. Gan, Y. Zhao, N. E. Schultz, D. Truhlar, E. Epifanovsky and M. Oana.

 Additional authors for Version 3.2: 
 R. Baer, B. R. Brooks, D. Casanova, J.-D. Chai, C.-L. Cheng, 
 C. Cramer, D. Crittenden, A. Ghysels, G. Hawkins, E. G. Hohenstein, 
 C. Kelley, W. Kurlancheek, D. Liotard, E. Livshits, P. Manohar, 
 A. Marenich, D. Neuhauser, R. Olson, M. A. Rohrdanz, K. S. Thanthiriwatte, 
 A. J. W. Thom, V. Vanovschi, C. F. Williams, Q. Wu and Z.-Q. You. 


 Intel X86 Linux Version

 Q-chem begins on Mon Jul  8 12:25:49 2013  

 Parallel job on  1  processors
Processing $rem in /usr/local/qchem/config/preferences.

theFileMan(): MAXOPENFILES=974 MAX_SUB_FILE_NUM=16
Maximum size of a physical file is 2.0 GB, maximum size of a tmp-file is 32.0 GB


--------------------------------------------------------------
User input:
--------------------------------------------------------------

$molecule
-1,2
C          0.00000        0.00000       -1.45157
C          0.00000        0.00000       -0.12288
H          0.92767        0.00000       -2.01861
H         -0.92767        0.00000       -2.01861
C          1.27060        0.00000        0.67623
H          2.15351        0.00000        0.03302
H          1.31823        0.87946        1.32882
H          1.31823       -0.87946        1.32882
C         -1.27060        0.00000        0.67623
H         -2.15351        0.00000        0.03302
H         -1.31823       -0.87946        1.32882
H         -1.31823        0.87946        1.32882
$end

$comment
negative
$end

$xc_functional
C PBE   1.00
X wPBE  1.00
$end

$rem
SYMMETRY_DECOMPOSITION	0
exchange 		general
LRC_DFT                 true
BASIS                   g3large
omega			100
mem_static              760
max_scf_cycles          200
scf_final_print         1
sym_ignore              true
$end

--------------------------------------------------------------
 Writing REM_CC_EA           12
 ----------------------------------------------------
       Standard Nuclear Orientation (Angstroms)
    I     Atom         X            Y            Z
 ----------------------------------------------------
    1      C       0.000000     0.000000    -1.451570
    2      C       0.000000     0.000000    -0.122880
    3      H       0.927670     0.000000    -2.018610
    4      H      -0.927670     0.000000    -2.018610
    5      C       1.270600     0.000000     0.676230
    6      H       2.153510     0.000000     0.033020
    7      H       1.318230     0.879460     1.328820
    8      H       1.318230    -0.879460     1.328820
    9      C      -1.270600     0.000000     0.676230
   10      H      -2.153510     0.000000     0.033020
   11      H      -1.318230    -0.879460     1.328820
   12      H      -1.318230     0.879460     1.328820
 ----------------------------------------------------
 Nuclear Repulsion Energy =   119.9343987111 hartrees
 There are       17 alpha and       16 beta electrons
 Requested basis set is G3large
 There are 88 shells and 248 basis functions

Total QAlloc Memory Limit   2000 MB
Mega-Array Size       743 MB
MEM_STATIC part       760 MB

                       Distance Matrix (Angstroms)
             C (  1)   C (  2)   H (  3)   H (  4)   C (  5)   H (  6)
   C (  2)  1.328690
   H (  3)  1.087247  2.110536
   H (  4)  1.087247  2.110536  1.855340
   C (  5)  2.478297  1.501000  2.716572  3.477722
   H (  6)  2.615648  2.159146  2.389952  3.701737  1.092359
   H (  7)  3.200273  2.149096  3.482998  4.125870  1.096172  1.774892
   H (  8)  3.200273  2.149096  3.482998  4.125870  1.096172  1.774892
   C (  9)  2.478297  1.501000  3.477722  2.716572  2.541200  3.483999
   H ( 10)  2.615648  2.159146  3.701737  2.389952  3.483999  4.307020
   H ( 11)  3.200273  2.149096  4.125870  3.482998  2.810937  3.808612
   H ( 12)  3.200273  2.149096  4.125870  3.482998  2.810937  3.808612
             H (  7)   H (  8)   C (  9)   H ( 10)   H ( 11)
   H (  8)  1.758920
   C (  9)  2.810937  2.810937
   H ( 10)  3.808612  3.808612  1.092359
   H ( 11)  3.169341  2.636460  1.096172  1.774892
   H ( 12)  2.636460  3.169341  1.096172  1.774892  1.758920
 
 A cutoff of  1.0D-08 yielded   3627 shell pairs
 There are  29001 function pairs ( 35049 Cartesian)
Evaluating contribution to one-electron hamiltonian from nuclear
 Smallest overlap matrix eigenvalue = 1.72E-05

 Q-Chem warning in module mkSTV.C, line 194:

 Overlap eigenvalue is smaller than square root of threshold

 Multipole matrices computed through 2nd order

  Scale SEOQF with 1.000000e-01/1.000000e-01/1.000000e-01

 Standard Electronic Orientation quadrupole field applied
 Nucleus-field energy     =    -0.0000000020 hartrees
 Guess from superposition of atomic densities
 Warning:  Energy on first SCF cycle will be non-variational
 Long-range K will be added via erf
 Coulomb attenuation parameter = 0.1 bohr**(-1)
 An unrestricted Kohn-Sham SCF calculation will be
 performed using Pulay DIIS extrapolation
 Exchange:  wPBE + LR-HF      Correlation:  PBE
 Using SG-1 standard quadrature grid
 SCF converges when DIIS error is below 1.0E-05
 Requested basis set is G3large
 There are 88 shells and 248 basis functions
 A cutoff of  1.0D-08 yielded   3627 shell pairs
 There are  29001 function pairs ( 35049 Cartesian)
 Warning!  Inaccurate integrated density:
   Number of electrons =    33
   Numerical integral  =    31.999956078234
   Relative error      =    -3.0304361266 %
 ---------------------------------------
  Cycle       Energy         DIIS Error
 ---------------------------------------
    1    -157.6125774190      2.76E-02
    2    -156.6427993136      5.89E-03
    3    -155.4824644114      1.12E-02
    4    -156.9460654232      2.08E-03
    5    -157.0008939684      6.62E-04
    6    -157.0111371850      5.10E-04
    7    -157.0149615920      4.35E-04
    8    -157.0177031602      2.92E-04
    9    -157.0194287839      1.27E-04
   10    -157.0198453390      1.09E-05
   11    -157.0198584705      5.33E-06 Convergence criterion met
 ---------------------------------------
 One-Electron    Energy =  -451.7020002619
 Total Coulomb   Energy =   199.3355376315
 Alpha Exchange  Energy =    -0.9353928773
 Beta  Exchange  Energy =    -0.8915072592
 DFT   Exchange  Energy =   -21.7307700469
 DFT Correlation Energy =    -1.0301243658
 Nuclear Repu.   Energy =   119.9343987090
 Nuclear Attr.   Energy =  -608.2323513205
 Kinetic         Energy =   156.5303510586
 <S^2> = 0.7503
 SCF time:  CPU 313.94 s  wall 315.51 s
 Final Alpha MO Eigenvalues
            1           2           3           4           5           6
    1  -9.7940234  -9.7869715  -9.7868395  -9.7710187  -0.6481981  -0.5431917
            7           8           9          10          11          12
    1  -0.5285305  -0.3851775  -0.3212078  -0.3130264  -0.3015934  -0.2559499
           13          14          15          16          17          18
    1  -0.2422964  -0.2345266  -0.2118949  -0.1319484   0.0502766   0.1120539
           19          20          21          22
    1   0.1330499   0.1366440   0.1528120   0.1618700
 Final Beta MO Eigenvalues
            1           2           3           4           5           6
    1  -9.7923283  -9.7869295  -9.7867979  -9.7704457  -0.6457593  -0.5426236
            7           8           9          10          11          12
    1  -0.5272570  -0.3827004  -0.3204460  -0.3122709  -0.2989655  -0.2546356
           13          14          15          16          17          18
    1  -0.2419365  -0.2336213  -0.2107721  -0.1254967   0.1250586   0.1372762
           19          20          21
    1   0.1457471   0.1517634   0.1600886
 Analysis of SCF Wavefunction
 
 --------------------------------------------------------------
                    Orbital Energies (a.u.)
 --------------------------------------------------------------
 
 Alpha MOs
 -- Occupied --
 -9.794  -9.787  -9.787  -9.771  -0.648  -0.543  -0.529  -0.385
 -0.321  -0.313  -0.302  -0.256  -0.242  -0.235  -0.212  -0.132
  0.050
 -- Virtual --
  0.112   0.133   0.137   0.153   0.162   0.166   0.167   0.192
  0.205   0.226   0.232   0.236   0.251   0.256   0.265   0.265
  0.268   0.280   0.288   0.289   0.291   0.308   0.328   0.335
  0.346   0.351   0.356   0.364   0.368   0.399   0.421   0.443
  0.461   0.524   0.549   0.563   0.575   0.616   0.621   0.633
  0.645   0.655   0.659   0.678   0.700   0.703   0.712   0.720
  0.734   0.741   0.760   0.796   0.816   0.818   0.820   0.827
  0.839   0.855   0.896   0.935   0.966   0.967   0.995   1.020
  1.028   1.068   1.087   1.125   1.137   1.165   1.191   1.234
  1.251   1.257   1.277   1.288   1.299   1.331   1.359   1.384
  1.399   1.402   1.434   1.451   1.463   1.468   1.490   1.526
  1.576   1.583   1.584   1.607   1.639   1.655   1.670   1.700
  1.720   1.724   1.736   1.771   1.838   1.942   2.049   2.431
  2.526   2.573   2.624   2.682   2.702   2.800   2.809   2.848
  2.871   2.874   2.924   2.925   2.938   2.994   3.009   3.050
  3.059   3.086   3.134   3.148   3.193   3.197   3.198   3.220
  3.249   3.267   3.268   3.299   3.312   3.327   3.353   3.386
  3.418   3.449   3.474   3.482   3.493   3.557   3.558   3.617
  3.637   3.659   3.686   3.753   3.762   3.789   3.799   3.881
  3.884   3.932   3.964   4.027   4.030   4.031   4.094   4.127
  4.135   4.164   4.232   4.256   4.256   4.314   4.329   4.344
  4.346   4.362   4.440   4.481   4.502   4.513   4.518   4.562
  4.692   4.694   4.701   4.730   4.738   4.846   4.853   4.906
  5.099   5.186   5.392   5.518   5.630   5.733   5.752   5.757
  5.791   5.819   6.043  23.922  24.273  24.303  24.738  27.302
 27.519  27.701  27.915  28.080  28.098  28.137  28.148  28.242
 28.299  28.585  28.592  40.840  40.909  40.911  40.926  40.964
 40.995  41.008  41.144  41.151  41.182  41.186  41.193  41.248
 41.256  41.265  41.266  41.268  41.302  41.318  41.386
 
 Beta MOs
 -- Occupied --
 -9.792  -9.787  -9.787  -9.770  -0.646  -0.543  -0.527  -0.383
 -0.320  -0.312  -0.299  -0.255  -0.242  -0.234  -0.211  -0.125
 -- Virtual --
  0.125   0.137   0.146   0.152   0.160   0.168   0.184   0.187
  0.197   0.208   0.231   0.235   0.240   0.255   0.257   0.269
  0.270   0.271   0.282   0.291   0.292   0.297   0.311   0.330
  0.342   0.352   0.353   0.357   0.367   0.371   0.401   0.423
  0.446   0.464   0.526   0.551   0.565   0.578   0.618   0.623
  0.635   0.649   0.657   0.662   0.681   0.703   0.703   0.716
  0.722   0.739   0.742   0.761   0.799   0.817   0.820   0.825
  0.830   0.840   0.856   0.898   0.937   0.968   0.970   0.997
  1.021   1.030   1.071   1.089   1.130   1.141   1.166   1.192
  1.236   1.255   1.258   1.280   1.289   1.301   1.333   1.361
  1.389   1.401   1.404   1.436   1.453   1.465   1.472   1.491
  1.529   1.580   1.586   1.588   1.608   1.641   1.657   1.674
  1.701   1.724   1.725   1.739   1.774   1.841   1.944   2.051
  2.432   2.527   2.575   2.625   2.683   2.704   2.805   2.811
  2.849   2.877   2.877   2.925   2.928   2.945   2.997   3.010
  3.053   3.060   3.089   3.136   3.152   3.195   3.198   3.200
  3.223   3.253   3.268   3.270   3.300   3.315   3.329   3.354
  3.388   3.421   3.453   3.476   3.485   3.494   3.560   3.563
  3.618   3.638   3.662   3.688   3.757   3.762   3.790   3.806
  3.882   3.885   3.933   3.965   4.028   4.032   4.033   4.094
  4.129   4.137   4.165   4.233   4.257   4.258   4.316   4.331
  4.345   4.347   4.365   4.440   4.482   4.503   4.514   4.520
  4.565   4.695   4.695   4.703   4.731   4.739   4.847   4.855
  4.911   5.100   5.187   5.393   5.520   5.630   5.733   5.753
  5.758   5.792   5.819   6.043  23.923  24.273  24.303  24.739
 27.305  27.523  27.702  27.915  28.080  28.098  28.137  28.148
 28.242  28.299  28.586  28.593  40.842  40.909  40.911  40.928
 40.966  40.996  41.008  41.146  41.153  41.184  41.186  41.194
 41.248  41.258  41.265  41.266  41.268  41.302  41.318  41.386
 --------------------------------------------------------------
 
          Ground-State Mulliken Net Atomic Charges

     Atom                 Charge (a.u.)    Spin (a.u.)
  --------------------------------------------------------
      1 C                    -1.090682       0.356407
      2 C                     1.048015      -0.105575
      3 H                     0.090585      -0.008460
      4 H                     0.090626      -0.008484
      5 C                    -0.011104      -0.473481
      6 H                     0.086015      -0.002127
      7 H                    -0.302634       0.409417
      8 H                    -0.341251       0.449022
      9 C                    -0.011657      -0.473225
     10 H                     0.086103      -0.002172
     11 H                    -0.308997       0.416111
     12 H                    -0.335019       0.442567
  --------------------------------------------------------
  Sum of atomic charges =    -1.000000
  Sum of spin   charges =     1.000000

 -----------------------------------------------------------------
                    Cartesian Multipole Moments
 -----------------------------------------------------------------
    Charge (ESU x 10^10)
                -4.8032
    Dipole Moment (Debye)
         X       0.0011      Y       0.0405      Z      -5.2511
       Tot       5.2513
    Quadrupole Moments (Debye-Ang)
        XX     -42.6165     XY       0.4680     YY     -64.6734
        XZ       0.0021     YZ       0.0626     ZZ     -57.6778
    Octapole Moments (Debye-Ang^2)
       XXX       0.0016    XXY       0.1830    XYY       0.0094
       YYY       0.4570    XXZ     -28.2439    XYZ       0.8817
       YYZ     -54.0862    XZZ       0.0049    YZZ       0.2718
       ZZZ     -72.6417
    Hexadecapole Moments (Debye-Ang^3)
      XXXX    -377.5319   XXXY       4.8608   XXYY    -168.2405
      XYYY       4.8818   YYYY    -532.4783   XXXZ       0.0172
      XXYZ       0.2707   XYYZ       0.0215   YYYZ       0.6330
      XXZZ    -165.5829   XYZZ       2.9805   YYZZ    -261.3915
      XZZZ       0.0199   YZZZ       0.7138   ZZZZ    -585.3156
 -----------------------------------------------------------------
 Total job time:  315.86s(wall), 314.28s(cpu) 
 Mon Jul  8 12:31:05 2013

        *************************************************************
        *                                                           *
        *  Thank you very much for using Q-Chem.  Have a nice day.  *
        *                                                           *
        *************************************************************


0 sent ACK to 0 
now end server 0 ... 
 
**********************************************************************
Job 2 of 3 
**********************************************************************
 
Process 0 of 1 is on cl241.stfx.acenet.ca - thread support 1
initial socket setup ...start
initial socket setup ...done 
now start server 0 ... 

cmd = /usr/bin/ssh clhead /usr/local/qchem/bin/get_hostid 1269851371 > /scratch/tmp/6064820.1.long.q/qchem25059/lic.dat
                  Welcome to Q-Chem
     A Quantum Leap Into The Future Of Chemistry

 Y. Shao, L. Fusti-Molnar, Y. Jung, J. Kussmann, C. Ochsenfeld,
 S. T. Brown, A. T. B. Gilbert, L. V. Slipchenko,S. V. Levchenko,
 D. P. O'Neill, R. A. DiStasio Jr., R. C. Lochan, T. Wang,
 G. J. O. Beran, N. A. Besley, J. M. Herbert, C. Y. Lin,
 T. Van Voorhis, S. H. Chien, A. Sodt, R. P. Steele, 
 V. A. Rassolov, P. E. Maslen, P. P. Korambath, R. D. Adamson,
 B. Austin, J. Baker, E. F. C. Byrd, H. Dachsel, R. J. Doerksen,
 A. Dreuw, B. D. Dunietz, A. D. Dutoi, T. R. Furlani,
 S. R. Gwaltney, A. Heyden, S. Hirata, C.-P. Hsu, G. Kedziora,
 R. Z. Khaliullin, P. Klunzinger, A. M. Lee, M. S. Lee, W. Liang,
 I. Lotan, N. Nair, B. Peters, E. I. Proynov, P. A. Pieniazek, 
 Y. M. Rhee, J. Ritchie, E. Rosta, C. D. Sherrill, 
 A. C. Simmonett, J. E. Subotnik, H. L. Woodcock III,
 W. Zhang, A. T. Bell, A. K. Chakraborty, D. M. Chipman,
 F. J. Keil, A. Warshel, W. J. Hehre, H. F. Schaefer III,
 J. Kong, A. I. Krylov, P. M. W. Gill, M. Head-Gordon,
 Q-Chem, Version 3.1, Q-Chem, Inc., Pittsburgh, PA (2007).

 Additional authors for Version 3.1: 
 Z. Gan, Y. Zhao, N. E. Schultz, D. Truhlar, E. Epifanovsky and M. Oana.

 Additional authors for Version 3.2: 
 R. Baer, B. R. Brooks, D. Casanova, J.-D. Chai, C.-L. Cheng, 
 C. Cramer, D. Crittenden, A. Ghysels, G. Hawkins, E. G. Hohenstein, 
 C. Kelley, W. Kurlancheek, D. Liotard, E. Livshits, P. Manohar, 
 A. Marenich, D. Neuhauser, R. Olson, M. A. Rohrdanz, K. S. Thanthiriwatte, 
 A. J. W. Thom, V. Vanovschi, C. F. Williams, Q. Wu and Z.-Q. You. 


 Intel X86 Linux Version

 Q-chem begins on Mon Jul  8 12:31:07 2013  

 Parallel job on  1  processors
Processing $rem in /usr/local/qchem/config/preferences.

theFileMan(): MAXOPENFILES=974 MAX_SUB_FILE_NUM=16
Maximum size of a physical file is 2.0 GB, maximum size of a tmp-file is 32.0 GB


--------------------------------------------------------------
User input:
--------------------------------------------------------------

$molecule
0,1
C          0.00000        0.00000       -1.45157
C          0.00000        0.00000       -0.12288
H          0.92767        0.00000       -2.01861
H         -0.92767        0.00000       -2.01861
C          1.27060        0.00000        0.67623
H          2.15351        0.00000        0.03302
H          1.31823        0.87946        1.32882
H          1.31823       -0.87946        1.32882
C         -1.27060        0.00000        0.67623
H         -2.15351        0.00000        0.03302
H         -1.31823       -0.87946        1.32882
H         -1.31823        0.87946        1.32882
$end

$comment
neutral
$end

$xc_functional
C PBE   1.00
X wPBE  1.00
$end


$rem
SYMMETRY_DECOMPOSITION	0
LRC_DFT                 true
exchange 		general
BASIS                   g3large
omega			100
mem_static              760
max_scf_cycles          200
scf_final_print         1
sym_ignore              true
$end

--------------------------------------------------------------
 Writing REM_CC_EA           12
 ----------------------------------------------------
       Standard Nuclear Orientation (Angstroms)
    I     Atom         X            Y            Z
 ----------------------------------------------------
    1      C       0.000000     0.000000    -1.451570
    2      C       0.000000     0.000000    -0.122880
    3      H       0.927670     0.000000    -2.018610
    4      H      -0.927670     0.000000    -2.018610
    5      C       1.270600     0.000000     0.676230
    6      H       2.153510     0.000000     0.033020
    7      H       1.318230     0.879460     1.328820
    8      H       1.318230    -0.879460     1.328820
    9      C      -1.270600     0.000000     0.676230
   10      H      -2.153510     0.000000     0.033020
   11      H      -1.318230    -0.879460     1.328820
   12      H      -1.318230     0.879460     1.328820
 ----------------------------------------------------
 Nuclear Repulsion Energy =   119.9343987111 hartrees
 There are       16 alpha and       16 beta electrons
 Requested basis set is G3large
 There are 88 shells and 248 basis functions

Total QAlloc Memory Limit   2000 MB
Mega-Array Size       743 MB
MEM_STATIC part       760 MB

                       Distance Matrix (Angstroms)
             C (  1)   C (  2)   H (  3)   H (  4)   C (  5)   H (  6)
   C (  2)  1.328690
   H (  3)  1.087247  2.110536
   H (  4)  1.087247  2.110536  1.855340
   C (  5)  2.478297  1.501000  2.716572  3.477722
   H (  6)  2.615648  2.159146  2.389952  3.701737  1.092359
   H (  7)  3.200273  2.149096  3.482998  4.125870  1.096172  1.774892
   H (  8)  3.200273  2.149096  3.482998  4.125870  1.096172  1.774892
   C (  9)  2.478297  1.501000  3.477722  2.716572  2.541200  3.483999
   H ( 10)  2.615648  2.159146  3.701737  2.389952  3.483999  4.307020
   H ( 11)  3.200273  2.149096  4.125870  3.482998  2.810937  3.808612
   H ( 12)  3.200273  2.149096  4.125870  3.482998  2.810937  3.808612
             H (  7)   H (  8)   C (  9)   H ( 10)   H ( 11)
   H (  8)  1.758920
   C (  9)  2.810937  2.810937
   H ( 10)  3.808612  3.808612  1.092359
   H ( 11)  3.169341  2.636460  1.096172  1.774892
   H ( 12)  2.636460  3.169341  1.096172  1.774892  1.758920
 
 A cutoff of  1.0D-08 yielded   3627 shell pairs
 There are  29001 function pairs ( 35049 Cartesian)
Evaluating contribution to one-electron hamiltonian from nuclear
 Smallest overlap matrix eigenvalue = 1.72E-05

 Q-Chem warning in module mkSTV.C, line 194:

 Overlap eigenvalue is smaller than square root of threshold

 Multipole matrices computed through 2nd order

  Scale SEOQF with 1.000000e-01/1.000000e-01/1.000000e-01

 Standard Electronic Orientation quadrupole field applied
 Nucleus-field energy     =    -0.0000000020 hartrees
 Guess from superposition of atomic densities
 Warning:  Energy on first SCF cycle will be non-variational
 Long-range K will be added via erf
 Coulomb attenuation parameter = 0.1 bohr**(-1)
 A restricted Kohn-Sham SCF calculation will be
 performed using Pulay DIIS extrapolation
 Exchange:  wPBE + LR-HF      Correlation:  PBE
 Using SG-1 standard quadrature grid
 SCF converges when DIIS error is below 1.0E-05
 Requested basis set is G3large
 There are 88 shells and 248 basis functions
 A cutoff of  1.0D-08 yielded   3627 shell pairs
 There are  29001 function pairs ( 35049 Cartesian)
 ---------------------------------------
  Cycle       Energy         DIIS Error
 ---------------------------------------
    1    -157.6125774190      2.76E-02
    2    -156.9271131613      4.07E-03
    3    -156.9244562711      4.11E-03
    4    -157.0603986836      3.09E-04
    5    -157.0607462919      2.55E-04
    6    -157.0611692652      4.60E-05
    7    -157.0611785457      1.48E-05
    8    -157.0611815124      2.82E-06 Convergence criterion met
 ---------------------------------------
 One-Electron    Energy =  -447.1925548410
 Total Coulomb   Energy =   194.6725934406
 Alpha Exchange  Energy =    -0.8917003595
 Beta  Exchange  Energy =    -0.8917003595
 DFT   Exchange  Energy =   -21.6731238590
 DFT Correlation Energy =    -1.0190942432
 Nuclear Repu.   Energy =   119.9343987090
 Nuclear Attr.   Energy =  -603.6306215112
 Kinetic         Energy =   156.4380666702
 SCF time:  CPU 165.92 s  wall 166.35 s
 Final Alpha MO Eigenvalues
            1           2           3           4           5           6
    1  -9.9453220  -9.9286501  -9.9286415  -9.9159943  -0.7923734  -0.6845029
            7           8           9          10          11          12
    1  -0.6709681  -0.5253597  -0.4623885  -0.4530861  -0.4442688  -0.3979428
           13          14          15          16          17          18
    1  -0.3807716  -0.3764408  -0.3525498  -0.2730604   0.0197173   0.0258532
           19          20          21
    1   0.0405807   0.0464009   0.0626935
 Analysis of SCF Wavefunction
 
 --------------------------------------------------------------
                    Orbital Energies (a.u.)
 --------------------------------------------------------------
 
 Alpha MOs
 -- Occupied --
 -9.945  -9.929  -9.929  -9.916  -0.792  -0.685  -0.671  -0.525
 -0.462  -0.453  -0.444  -0.398  -0.381  -0.376  -0.353  -0.273
 -- Virtual --
  0.020   0.026   0.041   0.046   0.063   0.065   0.070   0.086
  0.094   0.104   0.112   0.114   0.133   0.142   0.146   0.162
  0.162   0.166   0.167   0.175   0.179   0.184   0.198   0.204
  0.211   0.220   0.237   0.241   0.248   0.254   0.276   0.293
  0.323   0.343   0.404   0.423   0.435   0.451   0.487   0.491
  0.510   0.510   0.527   0.531   0.549   0.567   0.577   0.584
  0.589   0.603   0.609   0.627   0.671   0.680   0.684   0.688
  0.695   0.708   0.729   0.762   0.800   0.828   0.831   0.861
  0.883   0.889   0.938   0.950   0.991   1.000   1.029   1.058
  1.096   1.115   1.123   1.142   1.153   1.161   1.195   1.223
  1.247   1.264   1.267   1.297   1.316   1.327   1.331   1.358
  1.393   1.441   1.449   1.452   1.474   1.505   1.520   1.534
  1.562   1.588   1.589   1.605   1.632   1.702   1.803   1.910
  2.290   2.390   2.432   2.487   2.541   2.566   2.658   2.670
  2.706   2.728   2.731   2.782   2.783   2.796   2.853   2.867
  2.908   2.918   2.944   2.993   3.007   3.052   3.056   3.056
  3.079   3.108   3.126   3.128   3.156   3.171   3.186   3.212
  3.244   3.278   3.308   3.334   3.339   3.354   3.416   3.418
  3.476   3.497   3.518   3.545   3.611   3.621   3.650   3.656
  3.741   3.743   3.791   3.823   3.887   3.889   3.890   3.952
  3.984   3.995   4.023   4.093   4.114   4.116   4.175   4.189
  4.202   4.208   4.220   4.302   4.341   4.360   4.373   4.375
  4.421   4.550   4.553   4.558   4.591   4.596   4.706   4.710
  4.763   4.955   5.043   5.252   5.376   5.488   5.593   5.609
  5.615   5.653   5.680   5.900  23.775  24.131  24.161  24.590
 27.156  27.370  27.555  27.770  27.938  27.956  27.994  28.007
 28.098  28.154  28.438  28.446  40.692  40.766  40.770  40.778
 40.819  40.852  40.866  40.996  41.003  41.036  41.044  41.049
 41.103  41.108  41.120  41.123  41.126  41.158  41.173  41.237
 --------------------------------------------------------------
 
          Ground-State Mulliken Net Atomic Charges

     Atom                 Charge (a.u.)
  ----------------------------------------
      1 C                    -0.701570
      2 C                     0.767340
      3 H                     0.112335
      4 H                     0.112294
      5 C                    -0.461823
      6 H                     0.112951
      7 H                     0.101940
      8 H                     0.101903
      9 C                    -0.462233
     10 H                     0.112969
     11 H                     0.101969
     12 H                     0.101924
  ----------------------------------------
  Sum of atomic charges =     0.000000

 -----------------------------------------------------------------
                    Cartesian Multipole Moments
 -----------------------------------------------------------------
    Charge (ESU x 10^10)
                 0.0000
    Dipole Moment (Debye)
         X       0.0000      Y       0.0000      Z       0.5939
       Tot       0.5939
    Quadrupole Moments (Debye-Ang)
        XX     -25.9969     XY       0.0001     YY     -28.3917
        XZ       0.0000     YZ       0.0000     ZZ     -26.6420
    Octapole Moments (Debye-Ang^2)
       XXX      -0.0001    XXY       0.0000    XYY       0.0000
       YYY       0.0000    XXZ      -2.1157    XYZ       0.0004
       YYZ       3.8489    XZZ       0.0000    YZZ       0.0000
       ZZZ      -0.4121
    Hexadecapole Moments (Debye-Ang^3)
      XXXX    -215.5278   XXXY       0.0000   XXYY     -45.0663
      XYYY       0.0000   YYYY     -47.8260   XXXZ      -0.0001
      XXYZ       0.0000   XYYZ       0.0000   YYYZ       0.0001
      XXZZ     -67.3564   XYZZ      -0.0001   YYZZ     -42.0141
      XZZZ       0.0000   YZZZ       0.0001   ZZZZ    -199.9993
 -----------------------------------------------------------------
 Total job time:  166.68s(wall), 166.22s(cpu) 
 Mon Jul  8 12:33:54 2013

        *************************************************************
        *                                                           *
        *  Thank you very much for using Q-Chem.  Have a nice day.  *
        *                                                           *
        *************************************************************


0 sent ACK to 0 
now end server 0 ... 
 
**********************************************************************
Job 3 of 3 
**********************************************************************
 
Process 0 of 1 is on cl241.stfx.acenet.ca - thread support 1
initial socket setup ...start
initial socket setup ...done 
now start server 0 ... 

cmd = /usr/bin/ssh clhead /usr/local/qchem/bin/get_hostid 1405043854 > /scratch/tmp/6064820.1.long.q/qchem25059/lic.dat
                  Welcome to Q-Chem
     A Quantum Leap Into The Future Of Chemistry

 Y. Shao, L. Fusti-Molnar, Y. Jung, J. Kussmann, C. Ochsenfeld,
 S. T. Brown, A. T. B. Gilbert, L. V. Slipchenko,S. V. Levchenko,
 D. P. O'Neill, R. A. DiStasio Jr., R. C. Lochan, T. Wang,
 G. J. O. Beran, N. A. Besley, J. M. Herbert, C. Y. Lin,
 T. Van Voorhis, S. H. Chien, A. Sodt, R. P. Steele, 
 V. A. Rassolov, P. E. Maslen, P. P. Korambath, R. D. Adamson,
 B. Austin, J. Baker, E. F. C. Byrd, H. Dachsel, R. J. Doerksen,
 A. Dreuw, B. D. Dunietz, A. D. Dutoi, T. R. Furlani,
 S. R. Gwaltney, A. Heyden, S. Hirata, C.-P. Hsu, G. Kedziora,
 R. Z. Khaliullin, P. Klunzinger, A. M. Lee, M. S. Lee, W. Liang,
 I. Lotan, N. Nair, B. Peters, E. I. Proynov, P. A. Pieniazek, 
 Y. M. Rhee, J. Ritchie, E. Rosta, C. D. Sherrill, 
 A. C. Simmonett, J. E. Subotnik, H. L. Woodcock III,
 W. Zhang, A. T. Bell, A. K. Chakraborty, D. M. Chipman,
 F. J. Keil, A. Warshel, W. J. Hehre, H. F. Schaefer III,
 J. Kong, A. I. Krylov, P. M. W. Gill, M. Head-Gordon,
 Q-Chem, Version 3.1, Q-Chem, Inc., Pittsburgh, PA (2007).

 Additional authors for Version 3.1: 
 Z. Gan, Y. Zhao, N. E. Schultz, D. Truhlar, E. Epifanovsky and M. Oana.

 Additional authors for Version 3.2: 
 R. Baer, B. R. Brooks, D. Casanova, J.-D. Chai, C.-L. Cheng, 
 C. Cramer, D. Crittenden, A. Ghysels, G. Hawkins, E. G. Hohenstein, 
 C. Kelley, W. Kurlancheek, D. Liotard, E. Livshits, P. Manohar, 
 A. Marenich, D. Neuhauser, R. Olson, M. A. Rohrdanz, K. S. Thanthiriwatte, 
 A. J. W. Thom, V. Vanovschi, C. F. Williams, Q. Wu and Z.-Q. You. 


 Intel X86 Linux Version

 Q-chem begins on Mon Jul  8 12:33:57 2013  

 Parallel job on  1  processors
Processing $rem in /usr/local/qchem/config/preferences.

theFileMan(): MAXOPENFILES=974 MAX_SUB_FILE_NUM=16
Maximum size of a physical file is 2.0 GB, maximum size of a tmp-file is 32.0 GB


--------------------------------------------------------------
User input:
--------------------------------------------------------------

$molecule
1,2
C          0.00000        0.00000       -1.45157
C          0.00000        0.00000       -0.12288
H          0.92767        0.00000       -2.01861
H         -0.92767        0.00000       -2.01861
C          1.27060        0.00000        0.67623
H          2.15351        0.00000        0.03302
H          1.31823        0.87946        1.32882
H          1.31823       -0.87946        1.32882
C         -1.27060        0.00000        0.67623
H         -2.15351        0.00000        0.03302
H         -1.31823       -0.87946        1.32882
H         -1.31823        0.87946        1.32882
$end

$comment
positive
$end

$xc_functional
C PBE   1.00
X wPBE  1.00
$end

$rem
SYMMETRY_DECOMPOSITION	0
LRC_DFT                 true
exchange 		general
BASIS                   g3large
omega			100
mem_static              760
max_scf_cycles          200
scf_final_print         1
sym_ignore              true
$end

--------------------------------------------------------------
 Writing REM_CC_EA           12
 ----------------------------------------------------
       Standard Nuclear Orientation (Angstroms)
    I     Atom         X            Y            Z
 ----------------------------------------------------
    1      C       0.000000     0.000000    -1.451570
    2      C       0.000000     0.000000    -0.122880
    3      H       0.927670     0.000000    -2.018610
    4      H      -0.927670     0.000000    -2.018610
    5      C       1.270600     0.000000     0.676230
    6      H       2.153510     0.000000     0.033020
    7      H       1.318230     0.879460     1.328820
    8      H       1.318230    -0.879460     1.328820
    9      C      -1.270600     0.000000     0.676230
   10      H      -2.153510     0.000000     0.033020
   11      H      -1.318230    -0.879460     1.328820
   12      H      -1.318230     0.879460     1.328820
 ----------------------------------------------------
 Nuclear Repulsion Energy =   119.9343987111 hartrees
 There are       16 alpha and       15 beta electrons
 Requested basis set is G3large
 There are 88 shells and 248 basis functions

Total QAlloc Memory Limit   2000 MB
Mega-Array Size       743 MB
MEM_STATIC part       760 MB

                       Distance Matrix (Angstroms)
             C (  1)   C (  2)   H (  3)   H (  4)   C (  5)   H (  6)
   C (  2)  1.328690
   H (  3)  1.087247  2.110536
   H (  4)  1.087247  2.110536  1.855340
   C (  5)  2.478297  1.501000  2.716572  3.477722
   H (  6)  2.615648  2.159146  2.389952  3.701737  1.092359
   H (  7)  3.200273  2.149096  3.482998  4.125870  1.096172  1.774892
   H (  8)  3.200273  2.149096  3.482998  4.125870  1.096172  1.774892
   C (  9)  2.478297  1.501000  3.477722  2.716572  2.541200  3.483999
   H ( 10)  2.615648  2.159146  3.701737  2.389952  3.483999  4.307020
   H ( 11)  3.200273  2.149096  4.125870  3.482998  2.810937  3.808612
   H ( 12)  3.200273  2.149096  4.125870  3.482998  2.810937  3.808612
             H (  7)   H (  8)   C (  9)   H ( 10)   H ( 11)
   H (  8)  1.758920
   C (  9)  2.810937  2.810937
   H ( 10)  3.808612  3.808612  1.092359
   H ( 11)  3.169341  2.636460  1.096172  1.774892
   H ( 12)  2.636460  3.169341  1.096172  1.774892  1.758920
 
 A cutoff of  1.0D-08 yielded   3627 shell pairs
 There are  29001 function pairs ( 35049 Cartesian)
Evaluating contribution to one-electron hamiltonian from nuclear
 Smallest overlap matrix eigenvalue = 1.72E-05

 Q-Chem warning in module mkSTV.C, line 194:

 Overlap eigenvalue is smaller than square root of threshold

 Multipole matrices computed through 2nd order

  Scale SEOQF with 1.000000e-01/1.000000e-01/1.000000e-01

 Standard Electronic Orientation quadrupole field applied
 Nucleus-field energy     =    -0.0000000020 hartrees
 Guess from superposition of atomic densities
 Warning:  Energy on first SCF cycle will be non-variational
 Long-range K will be added via erf
 Coulomb attenuation parameter = 0.1 bohr**(-1)
 An unrestricted Kohn-Sham SCF calculation will be
 performed using Pulay DIIS extrapolation
 Exchange:  wPBE + LR-HF      Correlation:  PBE
 Using SG-1 standard quadrature grid
 SCF converges when DIIS error is below 1.0E-05
 Requested basis set is G3large
 There are 88 shells and 248 basis functions
 A cutoff of  1.0D-08 yielded   3627 shell pairs
 There are  29001 function pairs ( 35049 Cartesian)
 Warning!  Inaccurate integrated density:
   Number of electrons =    31
   Numerical integral  =    31.999956078234
   Relative error      =     3.2256647685 %
 ---------------------------------------
  Cycle       Energy         DIIS Error
 ---------------------------------------
    1    -157.6125774190      2.76E-02
    2    -156.6560364728      2.94E-03
    3    -156.6595216162      2.86E-03
    4    -156.7205174435      3.93E-04
    5    -156.7216313394      1.49E-04
    6    -156.7219004491      3.00E-05
    7    -156.7219153770      9.20E-06 Convergence criterion met
 ---------------------------------------
 One-Electron    Energy =  -439.4172947624
 Total Coulomb   Energy =   186.9483220440
 Alpha Exchange  Energy =    -0.8923180962
 Beta  Exchange  Energy =    -0.8365321617
 DFT   Exchange  Energy =   -21.4762181956
 DFT Correlation Energy =    -0.9822729141
 Nuclear Repu.   Energy =   119.9343987090
 Nuclear Attr.   Energy =  -595.6759861589
 Kinetic         Energy =   156.2586913965
 <S^2> = 0.7520
 SCF time:  CPU 187.80 s  wall 188.29 s
 Final Alpha MO Eigenvalues
            1           2           3           4           5           6
    1 -10.2366761 -10.2198984 -10.1469556 -10.1469262  -1.0642998  -0.9293213
            7           8           9          10          11          12
    1  -0.9078802  -0.7743864  -0.7134017  -0.6890153  -0.6799176  -0.6154019
           13          14          15          16          17          18
    1  -0.6095977  -0.6078813  -0.5832227  -0.5607937  -0.2399348  -0.1325336
           19          20          21
    1  -0.0961673  -0.0934851  -0.0807217
 Final Beta MO Eigenvalues
            1           2           3           4           5           6
    1 -10.2328584 -10.2110372 -10.1466198 -10.1465907  -1.0461998  -0.9155806
            7           8           9          10          11          12
    1  -0.9051004  -0.7642018  -0.7069736  -0.6857405  -0.6636073  -0.6081598
           13          14          15          16          17          18
    1  -0.6053892  -0.6045133  -0.5823407  -0.4043442  -0.1970240  -0.1296303
           19          20
    1  -0.0939746  -0.0925046
 Analysis of SCF Wavefunction
 
 --------------------------------------------------------------
                    Orbital Energies (a.u.)
 --------------------------------------------------------------
 
 Alpha MOs
 -- Occupied --
-10.237 -10.220 -10.147 -10.147  -1.064  -0.929  -0.908  -0.774
 -0.713  -0.689  -0.680  -0.615  -0.610  -0.608  -0.583  -0.561
 -- Virtual --
 -0.240  -0.133  -0.096  -0.093  -0.081  -0.079  -0.072  -0.057
 -0.054  -0.053  -0.038  -0.028  -0.019  -0.006   0.002   0.004
  0.008   0.014   0.016   0.027   0.029   0.031   0.043   0.049
  0.063   0.063   0.070   0.071   0.094   0.100   0.104   0.109
  0.164   0.185   0.210   0.219   0.256   0.278   0.282   0.291
  0.308   0.312   0.326   0.327   0.350   0.353   0.360   0.398
  0.404   0.407   0.420   0.429   0.446   0.464   0.466   0.485
  0.508   0.520   0.535   0.559   0.572   0.621   0.623   0.649
  0.667   0.681   0.726   0.744   0.774   0.778   0.827   0.852
  0.879   0.892   0.919   0.933   0.947   0.963   0.990   0.996
  1.031   1.055   1.055   1.077   1.112   1.121   1.128   1.165
  1.181   1.240   1.246   1.255   1.268   1.284   1.294   1.319
  1.360   1.364   1.394   1.404   1.417   1.465   1.572   1.677
  2.072   2.160   2.181   2.266   2.317   2.337   2.368   2.413
  2.455   2.475   2.482   2.518   2.524   2.543   2.597   2.631
  2.661   2.703   2.703   2.730   2.738   2.795   2.797   2.816
  2.841   2.871   2.878   2.905   2.931   2.932   2.948   2.972
  2.993   3.014   3.059   3.077   3.090   3.129   3.150   3.181
  3.256   3.264   3.275   3.309   3.358   3.380   3.396   3.418
  3.504   3.516   3.557   3.601   3.651   3.666   3.666   3.712
  3.744   3.750   3.796   3.857   3.869   3.887   3.923   3.967
  3.970   3.984   3.989   4.083   4.120   4.133   4.137   4.153
  4.181   4.303   4.312   4.316   4.367   4.368   4.464   4.464
  4.484   4.716   4.783   5.009   5.133   5.242   5.339   5.391
  5.396   5.441   5.461   5.641  23.485  23.904  23.941  24.296
 26.848  27.069  27.301  27.525  27.719  27.736  27.747  27.788
 27.826  27.861  28.170  28.197  40.392  40.489  40.509  40.551
 40.552  40.625  40.646  40.696  40.700  40.737  40.803  40.825
 40.828  40.835  40.842  40.901  40.904  40.906  40.929  40.968
 
 Beta MOs
 -- Occupied --
-10.233 -10.211 -10.147 -10.147  -1.046  -0.916  -0.905  -0.764
 -0.707  -0.686  -0.664  -0.608  -0.605  -0.605  -0.582
 -- Virtual --
 -0.404  -0.197  -0.130  -0.094  -0.093  -0.079  -0.075  -0.070
 -0.055  -0.050  -0.046  -0.037  -0.024  -0.018  -0.005   0.006
  0.011   0.012   0.017   0.020   0.030   0.030   0.031   0.045
  0.052   0.064   0.065   0.072   0.076   0.096   0.102   0.109
  0.110   0.166   0.188   0.219   0.222   0.259   0.280   0.294
  0.295   0.316   0.327   0.328   0.345   0.351   0.359   0.387
  0.399   0.409   0.410   0.422   0.432   0.468   0.471   0.472
  0.494   0.511   0.526   0.539   0.564   0.584   0.628   0.630
  0.651   0.675   0.688   0.730   0.751   0.786   0.788   0.829
  0.856   0.886   0.902   0.922   0.942   0.950   0.966   0.999
  1.008   1.040   1.059   1.060   1.087   1.114   1.126   1.131
  1.167   1.191   1.246   1.248   1.259   1.274   1.290   1.302
  1.329   1.362   1.368   1.398   1.416   1.420   1.479   1.581
  1.680   2.078   2.165   2.203   2.270   2.327   2.344   2.411
  2.430   2.478   2.486   2.490   2.541   2.553   2.556   2.623
  2.636   2.678   2.707   2.719   2.751   2.767   2.816   2.817
  2.817   2.852   2.875   2.886   2.911   2.939   2.948   2.958
  2.978   3.005   3.046   3.077   3.099   3.103   3.131   3.177
  3.191   3.261   3.267   3.288   3.324   3.376   3.400   3.404
  3.421   3.509   3.524   3.560   3.606   3.660   3.671   3.672
  3.716   3.757   3.762   3.802   3.859   3.881   3.894   3.935
  3.975   3.984   3.992   3.994   4.084   4.128   4.142   4.145
  4.158   4.192   4.308   4.324   4.328   4.371   4.374   4.465
  4.470   4.512   4.719   4.791   5.019   5.137   5.245   5.341
  5.398   5.404   5.444   5.464   5.645  23.493  23.905  23.942
 24.305  26.870  27.086  27.302  27.526  27.721  27.738  27.750
 27.788  27.829  27.865  28.172  28.198  40.404  40.495  40.526
 40.551  40.554  40.627  40.647  40.709  40.715  40.750  40.815
 40.827  40.829  40.839  40.843  40.903  40.905  40.907  40.929
 40.969
 --------------------------------------------------------------
 
          Ground-State Mulliken Net Atomic Charges

     Atom                 Charge (a.u.)    Spin (a.u.)
  --------------------------------------------------------
      1 C                    -0.388865       0.622911
      2 C                     0.741894       0.239924
      3 H                     0.187878      -0.017857
      4 H                     0.187861      -0.017850
      5 C                    -0.350806       0.015291
      6 H                     0.145992      -0.003013
      7 H                     0.170287       0.037242
      8 H                     0.170228       0.036931
      9 C                    -0.350955       0.015266
     10 H                     0.145963      -0.003013
     11 H                     0.170287       0.037241
     12 H                     0.170237       0.036926
  --------------------------------------------------------
  Sum of atomic charges =     1.000000
  Sum of spin   charges =     1.000000

 -----------------------------------------------------------------
                    Cartesian Multipole Moments
 -----------------------------------------------------------------
    Charge (ESU x 10^10)
                 4.8032
    Dipole Moment (Debye)
         X       0.0000      Y       0.0000      Z      -0.7886
       Tot       0.7886
    Quadrupole Moments (Debye-Ang)
        XX     -16.9627     XY      -0.0020     YY     -22.8829
        XZ       0.0000     YZ       0.0000     ZZ     -14.6099
    Octapole Moments (Debye-Ang^2)
       XXX       0.0005    XXY      -0.0001    XYY       0.0002
       YYY      -0.0001    XXZ       1.2029    XYZ       0.0034
       YYZ       3.5335    XZZ       0.0002    YZZ      -0.0002
       ZZZ      -8.4090
    Hexadecapole Moments (Debye-Ang^3)
      XXXX    -168.1136   XXXY      -0.0106   XXYY     -35.9245
      XYYY       0.0004   YYYY     -33.9281   XXXZ       0.0000
      XXYZ       0.0000   XYYZ       0.0002   YYYZ       0.0000
      XXZZ     -47.0286   XYZZ       0.0009   YYZZ     -28.9776
      XZZZ       0.0004   YZZZ       0.0003   ZZZZ    -140.7705
 -----------------------------------------------------------------
 Total job time:  188.61s(wall), 188.12s(cpu) 
 Mon Jul  8 12:37:05 2013

        *************************************************************
        *                                                           *
        *  Thank you very much for using Q-Chem.  Have a nice day.  *
        *                                                           *
        *************************************************************


0 sent ACK to 0 
now end server 0 ... 
