Process 0 of 1 is on cl247.stfx.acenet.ca - thread support 1
initial socket setup ...start
initial socket setup ...done 
now start server 0 ... 

cmd = /usr/bin/ssh clhead /usr/local/qchem/bin/get_hostid 679953168 > /scratch/tmp/4506642.1.long.q/qchem27028/lic.dat
                  Welcome to Q-Chem
     A Quantum Leap Into The Future Of Chemistry

 Y. Shao, L. Fusti-Molnar, Y. Jung, J. Kussmann, C. Ochsenfeld,
 S. T. Brown, A. T. B. Gilbert, L. V. Slipchenko,S. V. Levchenko,
 D. P. O'Neill, R. A. DiStasio Jr., R. C. Lochan, T. Wang,
 G. J. O. Beran, N. A. Besley, J. M. Herbert, C. Y. Lin,
 T. Van Voorhis, S. H. Chien, A. Sodt, R. P. Steele, 
 V. A. Rassolov, P. E. Maslen, P. P. Korambath, R. D. Adamson,
 B. Austin, J. Baker, E. F. C. Byrd, H. Dachsel, R. J. Doerksen,
 A. Dreuw, B. D. Dunietz, A. D. Dutoi, T. R. Furlani,
 S. R. Gwaltney, A. Heyden, S. Hirata, C.-P. Hsu, G. Kedziora,
 R. Z. Khaliullin, P. Klunzinger, A. M. Lee, M. S. Lee, W. Liang,
 I. Lotan, N. Nair, B. Peters, E. I. Proynov, P. A. Pieniazek, 
 Y. M. Rhee, J. Ritchie, E. Rosta, C. D. Sherrill, 
 A. C. Simmonett, J. E. Subotnik, H. L. Woodcock III,
 W. Zhang, A. T. Bell, A. K. Chakraborty, D. M. Chipman,
 F. J. Keil, A. Warshel, W. J. Hehre, H. F. Schaefer III,
 J. Kong, A. I. Krylov, P. M. W. Gill, M. Head-Gordon,
 Q-Chem, Version 3.1, Q-Chem, Inc., Pittsburgh, PA (2007).

 Additional authors for Version 3.1: 
 Z. Gan, Y. Zhao, N. E. Schultz, D. Truhlar, E. Epifanovsky and M. Oana.

 Additional authors for Version 3.2: 
 R. Baer, B. R. Brooks, D. Casanova, J.-D. Chai, C.-L. Cheng, 
 C. Cramer, D. Crittenden, A. Ghysels, G. Hawkins, E. G. Hohenstein, 
 C. Kelley, W. Kurlancheek, D. Liotard, E. Livshits, P. Manohar, 
 A. Marenich, D. Neuhauser, R. Olson, M. A. Rohrdanz, K. S. Thanthiriwatte, 
 A. J. W. Thom, V. Vanovschi, C. F. Williams, Q. Wu and Z.-Q. You. 


 Intel X86 Linux Version

 Q-chem begins on Sat Apr 23 21:38:51 2011  

 Parallel job on  1  processors
Processing $rem in /usr/local/qchem/config/preferences.

theFileMan(): MAXOPENFILES=974 MAX_SUB_FILE_NUM=16
Maximum size of a physical file is 2.0 GB, maximum size of a tmp-file is 32.0 GB


--------------------------------------------------------------
User input:
--------------------------------------------------------------

$molecule
0,1
C,-0.301099955,-1.1091315526,0.7344114371
O,-0.3127296016,0.329463745,0.7631762888
H,-0.6986887388,-1.4065121175,1.7044826967
H,0.7170681417,-1.4858547654,0.5992218023
H,-0.9316379175,-1.4856727664,-0.0764532137
N,0.1605192623,0.958228041,-0.3914229143
O,0.5122575277,0.2111903398,-1.2498962273

$end

$comment
neutral
$end

$xc_functional
   X HF 1.0
   X BNL 1.0
   C LYP 1.0
$end

$rem
SYMMETRY_DECOMPOSITION	0
exchange 		general
BASIS                   g3large
omega			420 
JOBTYPE                 opt
separate_jk		true
mem_static              760
max_scf_cycles          200
scf_final_print         1
sym_ignore              true
$end


--------------------------------------------------------------
 Writing REM_CC_EA            7
 ----------------------------------------------------
       Standard Nuclear Orientation (Angstroms)
    I     Atom         X            Y            Z
 ----------------------------------------------------
    1      C      -0.301100    -1.109132     0.734411
    2      O      -0.312730     0.329464     0.763176
    3      H      -0.698689    -1.406512     1.704483
    4      H       0.717068    -1.485855     0.599222
    5      H      -0.931638    -1.485673    -0.076453
    6      N       0.160519     0.958228    -0.391423
    7      O       0.512258     0.211190    -1.249896
 ----------------------------------------------------
 Nuclear Repulsion Energy =   122.8117481126 hartrees
 There are       16 alpha and       16 beta electrons
 Requested basis set is G3large
 There are 58 shells and 198 basis functions

Total QAlloc Memory Limit   2000 MB
Mega-Array Size       743 MB
MEM_STATIC part       760 MB
 A cutoff of  1.0D-11 yielded   1626 shell pairs
 There are  19051 function pairs ( 24045 Cartesian)
Evaluating contribution to one-electron hamiltonian from nuclear
 Smallest overlap matrix eigenvalue = 4.93E-04
 Multipole matrices computed through 2nd order

  Scale SEOQF with 1.000000e-01/1.000000e-01/1.000000e-01

 Standard Electronic Orientation quadrupole field applied
 Nucleus-field energy     =    -0.0000000009 hartrees
 Guess from superposition of atomic densities
 Warning:  Energy on first SCF cycle will be non-variational
 A restricted hybrid HF-DFT SCF calculation will be
 performed using Pulay DIIS extrapolation
 Exchange:     1.0000 Hartree-Fock + 1.0000 BNL
 Correlation:  1.0000 LYP
 Using SG-1 standard quadrature grid
 SCF converges when DIIS error is below 1.0E-08
 ---------------------------------------
  Cycle       Energy         DIIS Error
 ---------------------------------------
    1    -243.4650323016      3.30E-02
    2    -242.6312061666      5.43E-03
    3    -242.6094188777      6.49E-03
    4    -242.7355187280      9.39E-04
    5    -242.7379945765      4.13E-04
    6    -242.7385781809      1.96E-04
    7    -242.7387844065      5.67E-05
    8    -242.7388240030      2.29E-05
    9    -242.7388395069      1.02E-05
   10    -242.7388428713      4.92E-06
   11    -242.7388436516      1.71E-06
   12    -242.7388437513      5.31E-07
   13    -242.7388440473      1.86E-07
   14    -242.7388440044      3.49E-08
   15    -242.7388440045      9.57E-09 Convergence criterion met
 ---------------------------------------
 One-Electron    Energy =  -576.8345417078
 Total Coulomb   Energy =   239.2833710894
 Alpha Exchange  Energy =    -3.3703599909
 Beta  Exchange  Energy =    -3.3703599909
 DFT   Exchange  Energy =   -20.1394953459
 DFT Correlation Energy =    -1.1192061699
 Nuclear Repu.   Energy =   122.8117481116
 Nuclear Attr.   Energy =  -818.4760133510
 Kinetic         Energy =   241.6414716432
 SCF time:  CPU 177.90 s  wall 179.44 s
 Final Alpha MO Eigenvalues
            1           2           3           4           5           6
    1 -18.8823455 -18.8802958 -14.2518297 -10.0540567  -1.3641583  -1.1978649
            7           8           9          10          11          12
    1  -0.9138732  -0.7655242  -0.6982809  -0.6687118  -0.6541921  -0.5751853
           13          14          15          16          17          18
    1  -0.5560637  -0.5051146  -0.4542302  -0.4129622   0.0107081   0.0298007
           19          20          21
    1   0.0600882   0.0624624   0.0802493
 Analysis of SCF Wavefunction
 
 --------------------------------------------------------------
                    Orbital Energies (a.u.)
 --------------------------------------------------------------
 
 Alpha MOs
 -- Occupied --
-18.882 -18.880 -14.252 -10.054  -1.364  -1.198  -0.914  -0.766
 -0.698  -0.669  -0.654  -0.575  -0.556  -0.505  -0.454  -0.413
 -- Virtual --
  0.011   0.030   0.060   0.062   0.080   0.129   0.134   0.151
  0.159   0.167   0.174   0.207   0.223   0.225   0.236   0.246
  0.282   0.293   0.303   0.322   0.331   0.358   0.379   0.427
  0.445   0.494   0.515   0.554   0.621   0.624   0.630   0.674
  0.697   0.762   0.815   0.837   0.876   0.883   0.935   0.980
  0.996   1.076   1.087   1.101   1.136   1.139   1.171   1.184
  1.227   1.253   1.265   1.299   1.301   1.332   1.410   1.419
  1.473   1.509   1.551   1.604   1.631   1.656   1.716   1.769
  1.826   1.973   1.979   2.085   2.089   2.222   2.287   2.394
  2.510   2.517   2.545   2.658   2.831   3.021   3.102   3.159
  3.182   3.212   3.308   3.367   3.431   3.438   3.521   3.539
  3.638   3.680   3.709   3.719   3.779   3.784   3.910   3.921
  3.984   3.986   4.038   4.137   4.226   4.249   4.302   4.397
  4.415   4.423   4.542   4.555   4.749   4.761   4.830   4.889
  4.961   5.033   5.083   5.094   5.121   5.126   5.209   5.222
  5.294   5.360   5.506   5.511   5.595   5.643   5.673   5.761
  5.820   5.997   6.151   6.442   6.596   6.648   6.822   6.884
  6.990   7.110   7.187   7.227   7.297   7.298   7.416   7.701
  7.814   7.905  24.439  28.057  28.096  28.163  35.864  37.313
 37.711  38.192  40.350  40.376  40.461  40.530  40.756  40.917
 40.963  41.198  41.231  41.287  43.618  43.647  43.698  43.716
 43.758  43.780  43.807  43.889  43.928  43.968  45.705  45.732
 45.830  45.991  46.399  46.563  50.096  50.291
 --------------------------------------------------------------
 
          Ground-State Mulliken Net Atomic Charges

     Atom                 Charge (a.u.)
  ----------------------------------------
      1 C                    -0.296883
      2 O                     0.032310
      3 H                     0.145268
      4 H                     0.152845
      5 H                     0.152816
      6 N                    -0.092178
      7 O                    -0.094179
  ----------------------------------------
  Sum of atomic charges =     0.000000

 -----------------------------------------------------------------
                    Cartesian Multipole Moments
 -----------------------------------------------------------------
    Charge (ESU x 10^10)
                 0.0000
    Dipole Moment (Debye)
         X      -0.3856      Y      -2.1866      Z       0.9403
       Tot       2.4113
    Quadrupole Moments (Debye-Ang)
        XX     -23.0266     XY       0.6785     YY     -23.2312
        XZ       0.9823     YZ      -1.6556     ZZ     -25.0212
    Octapole Moments (Debye-Ang^2)
       XXX       1.5422    XXY      -0.3125    XYY      -0.3056
       YYY      -2.5408    XXZ      -0.5013    XYZ       0.9499
       YYZ       0.7449    XZZ      -2.0880    YZZ      -2.2402
       ZZZ       1.8320
    Hexadecapole Moments (Debye-Ang^3)
      XXXX     -44.7356   XXXY     -10.5412   XXYY     -26.8974
      XYYY     -10.3663   YYYY    -128.8223   XXXZ      21.1417
      XXYZ       8.0972   XYYZ       6.6647   YYYZ      25.2799
      XXZZ     -28.8203   XYZZ      -1.8803   YYZZ     -40.4259
      XZZZ      19.9348   YZZZ      22.1970   ZZZZ    -128.1152
 -----------------------------------------------------------------
 Calculating analytic gradient of the SCF energy
 Gradient of AOints
            1           2           3           4           5           6
    1   1.1057066   4.0028839   1.2875039  -3.2144511   2.1869648   0.6587069
    2   5.0187750  -3.5266114   1.4541264   2.0723005   2.0717372 -13.8427490
    3  -2.6953806  -9.7695307  -3.1407715   0.1470991   2.3609996  -1.6134975
            7
    1  -6.0273151
    2   6.7524214
    3  14.7110817
 Gradient of XC Energy
            1           2           3           4           5           6
    1  -0.0009565  -0.0776931  -0.0565442   0.1415489  -0.0881757  -0.0538371
    2  -0.0177078   0.0744279  -0.0453275  -0.0605609  -0.0605180   0.3794996
    3   0.0023065   0.1897264   0.1378897  -0.0180407  -0.1121908   0.1314125
            7
    1   0.1356578
    2  -0.2698132
    3  -0.3311036
 Gradient of SCF Energy
            1           2           3           4           5           6
    1  -0.0007212  -0.0113756   0.0005848  -0.0016588   0.0010856  -0.0030551
    2  -0.0176782   0.0027564   0.0002002  -0.0001094  -0.0000946   0.0415603
    3   0.0017630   0.0278596  -0.0014858   0.0001498   0.0012781   0.0073534
            7
    1   0.0151404
    2  -0.0266347
    3  -0.0369182
 Max gradient component =       4.156E-02
 RMS gradient           =       1.593E-02
 Gradient time:  CPU 64.59 s  wall 64.69 s
 Geometry Optimization Parameters
   NAtoms,    NIC,     NZ,  NCons,   NDum,   NFix, NCnnct, MaxDiis
        7      32       0       0       0       0       0       0


** GEOMETRY OPTIMIZATION IN DELOCALIZED INTERNAL COORDINATES **
   Searching for a Minimum

   Optimization Cycle:   1

                       Coordinates (Angstroms)
     ATOM              X           Y           Z
    1  C          -0.301100   -1.109132    0.734411
    2  O          -0.312730    0.329464    0.763176
    3  H          -0.698689   -1.406512    1.704483
    4  H           0.717068   -1.485855    0.599222
    5  H          -0.931638   -1.485673   -0.076453
    6  N           0.160519    0.958228   -0.391423
    7  O           0.512258    0.211190   -1.249896
   Point Group: c1    Number of degrees of freedom:  15


   Energy is   -242.738844004


 Attempting to Generate Delocalized Internal Coordinates

 15 Hessian modes will be used to form the next step
  Hessian Eigenvalues:
     0.009466    0.010496    0.100782    0.106540    0.160000    0.160000
     0.160000    0.250000    0.250000    0.343531    0.343531    0.348418
     0.397326    0.460733    1.094159

 Minimum Search - Taking Simple RFO Step
 Searching for Lamda that Minimizes Along All modes
 Value Taken    Lamda =  -0.00608668
 Step Taken.  Stepsize is  0.108527

                             Maximum     Tolerance    Cnvgd?
         Gradient           0.042638      0.000300      NO
         Displacement       0.063498      0.001200      NO
         Energy change     *********      0.000001      NO


 New Cartesian Coordinates Obtained by Inverse Iteration

 Displacement from previous Coordinates is:  0.256073
 Writing REM_CC_EA            7
 ----------------------------------------------------
       Standard Nuclear Orientation (Angstroms)
    I     Atom         X            Y            Z
 ----------------------------------------------------
    1      C      -0.293476    -1.084968     0.715511
    2      O      -0.311237     0.330063     0.758555
    3      H      -0.690385    -1.394730     1.684654
    4      H       0.730287    -1.451219     0.575192
    5      H      -0.924312    -1.451587    -0.102786
    6      N       0.152952     0.922013    -0.371263
    7      O       0.481860     0.142138    -1.176343
 ----------------------------------------------------
 Nuclear Repulsion Energy =   126.0374945666 hartrees
 There are       16 alpha and       16 beta electrons
 Applying Cartesian multipole field
    Component          Value
    ---------          -----
     (2,0,0)        1.00000E-11
     (0,2,0)        2.00000E-11
     (0,0,2)       -3.00000E-11
 Nucleus-field energy     =    -0.0000000008 hartrees
 Requested basis set is G3large
 There are 58 shells and 198 basis functions
 A cutoff of  1.0D-11 yielded   1633 shell pairs
 There are  19119 function pairs ( 24125 Cartesian)
Evaluating contribution to one-electron hamiltonian from nuclear
 Smallest overlap matrix eigenvalue = 4.24E-04
 Multipole matrices computed through 2nd order
 Guess MOs from SCF MO coefficient file
Reading MOs from coefficient file
Reading MOs from coefficient file
 A restricted hybrid HF-DFT SCF calculation will be
 performed using Pulay DIIS extrapolation
 Exchange:     1.0000 Hartree-Fock + 1.0000 BNL
 Correlation:  1.0000 LYP
 Using SG-1 standard quadrature grid
 SCF converges when DIIS error is below 1.0E-08
 ---------------------------------------
  Cycle       Energy         DIIS Error
 ---------------------------------------
    1    -242.7735803979      2.36E-03
    2    -242.7408979046      2.99E-04
    3    -242.7410572007      2.82E-04
    4    -242.7412813583      1.00E-04
    5    -242.7413162157      1.59E-05
    6    -242.7413185082      9.73E-06
    7    -242.7413187667      2.62E-06
    8    -242.7413188227      1.18E-06
    9    -242.7413188426      1.99E-07
   10    -242.7413188496      6.26E-08
   11    -242.7413188519      3.21E-08
   12    -242.7413188509      1.49E-08
   13    -242.7413188509      4.59E-09 Convergence criterion met
 ---------------------------------------
 One-Electron    Energy =  -583.1533106751
 Total Coulomb   Energy =   242.4416990521
 Alpha Exchange  Energy =    -3.3749031909
 Beta  Exchange  Energy =    -3.3749031909
 DFT   Exchange  Energy =   -20.1940433065
 DFT Correlation Energy =    -1.1233521053
 Nuclear Repu.   Energy =   126.0374945658
 Nuclear Attr.   Energy =  -825.0282398737
 Kinetic         Energy =   241.8749291986
 SCF time:  CPU 150.78 s  wall 151.65 s
 Final Alpha MO Eigenvalues
            1           2           3           4           5           6
    1 -18.8818034 -18.8740263 -14.2450809 -10.0523821  -1.3880458  -1.2095697
            7           8           9          10          11          12
    1  -0.9224605  -0.7582419  -0.7076975  -0.6837302  -0.6630284  -0.5745762
           13          14          15          16          17          18
    1  -0.5522984  -0.5049257  -0.4571903  -0.4099117   0.0228041   0.0301835
           19          20          21
    1   0.0599532   0.0625234   0.0807187
 Analysis of SCF Wavefunction
 
 --------------------------------------------------------------
                    Orbital Energies (a.u.)
 --------------------------------------------------------------
 
 Alpha MOs
 -- Occupied --
-18.882 -18.874 -14.245 -10.052  -1.388  -1.210  -0.922  -0.758
 -0.708  -0.684  -0.663  -0.575  -0.552  -0.505  -0.457  -0.410
 -- Virtual --
  0.023   0.030   0.060   0.063   0.081   0.128   0.136   0.153
  0.159   0.165   0.174   0.210   0.224   0.237   0.243   0.254
  0.286   0.297   0.316   0.322   0.332   0.363   0.382   0.432
  0.452   0.492   0.543   0.561   0.623   0.624   0.631   0.671
  0.697   0.774   0.810   0.837   0.875   0.902   0.928   0.987
  0.994   1.073   1.091   1.104   1.125   1.144   1.169   1.184
  1.229   1.268   1.280   1.299   1.304   1.344   1.422   1.427
  1.478   1.508   1.546   1.609   1.623   1.684   1.722   1.805
  1.874   1.986   2.047   2.104   2.125   2.233   2.288   2.410
  2.532   2.536   2.578   2.666   2.850   3.021   3.112   3.159
  3.195   3.213   3.350   3.375   3.441   3.451   3.530   3.553
  3.654   3.673   3.716   3.739   3.791   3.812   3.907   3.978
  3.985   4.017   4.074   4.165   4.226   4.264   4.336   4.407
  4.416   4.425   4.547   4.629   4.727   4.759   4.821   4.895
  4.971   5.046   5.097   5.100   5.140   5.144   5.238   5.242
  5.298   5.389   5.497   5.546   5.626   5.667   5.717   5.845
  5.862   6.083   6.275   6.514   6.701   6.723   6.846   6.958
  7.057   7.126   7.250   7.270   7.306   7.364   7.452   7.731
  7.828   7.964  24.472  28.066  28.100  28.188  35.968  37.339
 37.780  38.233  40.364  40.394  40.479  40.548  40.788  40.919
 40.978  41.201  41.236  41.290  43.633  43.660  43.708  43.732
 43.766  43.794  43.809  43.893  43.938  43.995  45.717  45.762
 45.872  46.037  46.459  46.628  50.134  50.363
 --------------------------------------------------------------
 
          Ground-State Mulliken Net Atomic Charges

     Atom                 Charge (a.u.)
  ----------------------------------------
      1 C                    -0.312477
      2 O                     0.063020
      3 H                     0.144704
      4 H                     0.153325
      5 H                     0.153309
      6 N                    -0.102851
      7 O                    -0.099030
  ----------------------------------------
  Sum of atomic charges =     0.000000

 -----------------------------------------------------------------
                    Cartesian Multipole Moments
 -----------------------------------------------------------------
    Charge (ESU x 10^10)
                 0.0000
    Dipole Moment (Debye)
         X      -0.3953      Y      -2.1005      Z       0.9648
       Tot       2.3451
    Quadrupole Moments (Debye-Ang)
        XX     -22.9015     XY       0.6300     YY     -23.3495
        XZ       1.0184     YZ      -1.5422     ZZ     -24.9677
    Octapole Moments (Debye-Ang^2)
       XXX       1.9315    XXY       0.1554    XYY      -0.1091
       YYY      -1.0469    XXZ      -0.8572    XYZ       0.8530
       YYZ       0.2567    XZZ      -1.8195    YZZ      -1.5734
       ZZZ       0.5877
    Hexadecapole Moments (Debye-Ang^3)
      XXXX     -43.2990   XXXY      -9.4495   XXYY     -25.8332
      XYYY      -9.3425   YYYY    -123.5818   XXXZ      19.5836
      XXYZ       7.1733   XYYZ       6.1018   YYYZ      22.7385
      XXZZ     -27.3014   XYZZ      -1.4243   YYZZ     -38.2066
      XZZZ      18.4368   YZZZ      19.3024   ZZZZ    -120.4364
 -----------------------------------------------------------------
 Calculating analytic gradient of the SCF energy
 Gradient of AOints
            1           2           3           4           5           6
    1   1.2187055   4.1081850   1.2891763  -3.2837905   2.2075142   0.3469870
    2   5.2984262  -3.6748661   1.4665179   2.0184923   2.0192521 -14.5062679
    3  -2.9695329 -10.0053302  -3.1480952   0.1873593   2.4381829  -0.8962470
            7
    1  -5.8867774
    2   7.3784455
    3  14.3936631
 Gradient of XC Energy
            1           2           3           4           5           6
    1  -0.0024978  -0.0812246  -0.0560863   0.1421139  -0.0878549  -0.0428026
    2  -0.0267000   0.0729940  -0.0458192  -0.0577687  -0.0578186   0.4060686
    3   0.0060147   0.1977379   0.1368942  -0.0190694  -0.1132904   0.1058462
            7
    1   0.1283522
    2  -0.2909561
    3  -0.3141332
 Gradient of SCF Energy
            1           2           3           4           5           6
    1   0.0018757  -0.0018194   0.0000043   0.0005145  -0.0003910   0.0042288
    2  -0.0031352  -0.0046965   0.0006145   0.0011817   0.0011705   0.0109439
    3  -0.0044681   0.0043152  -0.0000416   0.0000248  -0.0003461  -0.0101844
            7
    1  -0.0044129
    2  -0.0060789
    3   0.0107003
 Max gradient component =       1.094E-02
 RMS gradient           =       4.847E-03
 Gradient time:  CPU 68.03 s  wall 68.13 s
 Geometry Optimization Parameters
   NAtoms,    NIC,     NZ,  NCons,   NDum,   NFix, NCnnct, MaxDiis
        7      32       0       0       0       0       0       0

 Cartesian Hessian Update
 Hessian Updated using BFGS Update


** GEOMETRY OPTIMIZATION IN DELOCALIZED INTERNAL COORDINATES **
   Searching for a Minimum

   Optimization Cycle:   2

                       Coordinates (Angstroms)
     ATOM              X           Y           Z
    1  C          -0.293476   -1.084968    0.715511
    2  O          -0.311237    0.330063    0.758555
    3  H          -0.690385   -1.394730    1.684654
    4  H           0.730287   -1.451219    0.575192
    5  H          -0.924312   -1.451587   -0.102786
    6  N           0.152952    0.922013   -0.371263
    7  O           0.481860    0.142138   -1.176343
   Point Group: c1    Number of degrees of freedom:  15


   Energy is   -242.741318851

 Hessian Updated using BFGS Update

 14 Hessian modes will be used to form the next step
  Hessian Eigenvalues:
     0.009466    0.010496    0.100794    0.106540    0.159997    0.160509
     0.243330    0.252922    0.343531    0.343901    0.348600    0.410487
     0.545599    1.141871

 Minimum Search - Taking Simple RFO Step
 Searching for Lamda that Minimizes Along All modes
 Value Taken    Lamda =  -0.00255640
 Step Taken.  Stepsize is  0.090390

                             Maximum     Tolerance    Cnvgd?
         Gradient           0.024322      0.000300      NO
         Displacement       0.055378      0.001200      NO
         Energy change     -0.002475      0.000001      NO


 New Cartesian Coordinates Obtained by Inverse Iteration

 Displacement from previous Coordinates is:  0.215650
 Writing REM_CC_EA            7
 ----------------------------------------------------
       Standard Nuclear Orientation (Angstroms)
    I     Atom         X            Y            Z
 ----------------------------------------------------
    1      C      -0.297909    -1.094857     0.725859
    2      O      -0.303757     0.311873     0.739556
    3      H      -0.696955    -1.382606     1.702171
    4      H       0.721301    -1.478743     0.593807
    5      H      -0.932110    -1.479343    -0.082597
    6      N       0.151021     0.915956    -0.367854
    7      O       0.504098     0.219431    -1.227422
 ----------------------------------------------------
 Nuclear Repulsion Energy =   125.6596005788 hartrees
 There are       16 alpha and       16 beta electrons
 Applying Cartesian multipole field
    Component          Value
    ---------          -----
     (2,0,0)        1.00000E-11
     (0,2,0)        2.00000E-11
     (0,0,2)       -3.00000E-11
 Nucleus-field energy     =    -0.0000000009 hartrees
 Requested basis set is G3large
 There are 58 shells and 198 basis functions
 A cutoff of  1.0D-11 yielded   1628 shell pairs
 There are  19081 function pairs ( 24087 Cartesian)
Evaluating contribution to one-electron hamiltonian from nuclear
 Smallest overlap matrix eigenvalue = 4.40E-04
 Multipole matrices computed through 2nd order
 Guess MOs from SCF MO coefficient file
Reading MOs from coefficient file
Reading MOs from coefficient file
 A restricted hybrid HF-DFT SCF calculation will be
 performed using Pulay DIIS extrapolation
 Exchange:     1.0000 Hartree-Fock + 1.0000 BNL
 Correlation:  1.0000 LYP
 Using SG-1 standard quadrature grid
 SCF converges when DIIS error is below 1.0E-08
 ---------------------------------------
  Cycle       Energy         DIIS Error
 ---------------------------------------
    1    -242.7466696964      2.68E-03
    2    -242.7410539552      3.43E-04
    3    -242.7412312174      3.66E-04
    4    -242.7416367044      8.34E-05
    5    -242.7416607422      3.26E-05
    6    -242.7416644031      1.60E-05
    7    -242.7416652472      2.51E-06
    8    -242.7416652785      8.75E-07
    9    -242.7416652360      2.15E-07
   10    -242.7416652323      7.46E-08
   11    -242.7416652489      2.90E-08
   12    -242.7416652472      1.34E-08
   13    -242.7416652492      5.04E-09 Convergence criterion met
 ---------------------------------------
 One-Electron    Energy =  -582.3332349523
 Total Coulomb   Energy =   242.0111791840
 Alpha Exchange  Energy =    -3.3756685180
 Beta  Exchange  Energy =    -3.3756685180
 DFT   Exchange  Energy =   -20.2045060337
 DFT Correlation Energy =    -1.1233669892
 Nuclear Repu.   Energy =   125.6596005779
 Nuclear Attr.   Energy =  -824.2471897958
 Kinetic         Energy =   241.9139548435
 SCF time:  CPU 154.67 s  wall 155.86 s
 Final Alpha MO Eigenvalues
            1           2           3           4           5           6
    1 -18.8851435 -18.8735522 -14.2416297 -10.0541589  -1.3897250  -1.2207886
            7           8           9          10          11          12
    1  -0.9286944  -0.7598538  -0.7052590  -0.6860821  -0.6666309  -0.5788541
           13          14          15          16          17          18
    1  -0.5579200  -0.5041309  -0.4585063  -0.4031461   0.0280964   0.0294503
           19          20          21
    1   0.0595647   0.0621916   0.0805154
 Analysis of SCF Wavefunction
 
 --------------------------------------------------------------
                    Orbital Energies (a.u.)
 --------------------------------------------------------------
 
 Alpha MOs
 -- Occupied --
-18.885 -18.874 -14.242 -10.054  -1.390  -1.221  -0.929  -0.760
 -0.705  -0.686  -0.667  -0.579  -0.558  -0.504  -0.459  -0.403
 -- Virtual --
  0.028   0.029   0.060   0.062   0.081   0.127   0.136   0.152
  0.161   0.166   0.174   0.209   0.223   0.235   0.244   0.254
  0.285   0.295   0.324   0.326   0.333   0.364   0.381   0.430
  0.448   0.493   0.548   0.562   0.621   0.625   0.629   0.673
  0.699   0.769   0.808   0.838   0.885   0.888   0.932   0.983
  0.993   1.076   1.090   1.103   1.133   1.140   1.172   1.182
  1.231   1.258   1.275   1.297   1.314   1.343   1.415   1.429
  1.475   1.507   1.560   1.604   1.628   1.668   1.715   1.788
  1.855   1.987   2.001   2.114   2.119   2.258   2.311   2.413
  2.523   2.565   2.578   2.683   2.833   3.018   3.117   3.163
  3.184   3.209   3.320   3.369   3.447   3.452   3.531   3.551
  3.653   3.675   3.719   3.745   3.796   3.822   3.903   3.949
  3.981   4.036   4.058   4.176   4.223   4.260   4.371   4.405
  4.411   4.432   4.534   4.649   4.710   4.764   4.782   4.885
  4.961   5.041   5.084   5.104   5.131   5.140   5.229   5.252
  5.289   5.422   5.481   5.547   5.633   5.691   5.706   5.810
  5.869   6.159   6.266   6.534   6.740   6.785   6.829   6.946
  7.120   7.123   7.229   7.243   7.324   7.374   7.506   7.731
  7.856   7.982  24.485  28.069  28.097  28.168  36.001  37.349
 37.751  38.273  40.368  40.400  40.480  40.572  40.800  40.915
 40.982  41.200  41.234  41.285  43.627  43.655  43.704  43.727
 43.767  43.784  43.812  43.901  43.941  43.998  45.721  45.767
 45.873  46.033  46.476  46.667  50.142  50.368
 --------------------------------------------------------------
 
          Ground-State Mulliken Net Atomic Charges

     Atom                 Charge (a.u.)
  ----------------------------------------
      1 C                    -0.304474
      2 O                     0.086772
      3 H                     0.143083
      4 H                     0.150314
      5 H                     0.150441
      6 N                    -0.121688
      7 O                    -0.104448
  ----------------------------------------
  Sum of atomic charges =     0.000000

 -----------------------------------------------------------------
                    Cartesian Multipole Moments
 -----------------------------------------------------------------
    Charge (ESU x 10^10)
                 0.0000
    Dipole Moment (Debye)
         X      -0.4499      Y      -2.2248      Z       1.0968
       Tot       2.5209
    Quadrupole Moments (Debye-Ang)
        XX     -22.8802     XY       0.6073     YY     -23.4868
        XZ       0.9991     YZ      -1.4791     ZZ     -24.8994
    Octapole Moments (Debye-Ang^2)
       XXX       1.5169    XXY      -0.0582    XYY      -0.2691
       YYY      -2.0174    XXZ      -0.4887    XYZ       0.8686
       YYZ       0.6509    XZZ      -2.0779    YZZ      -1.8193
       ZZZ       1.8470
    Hexadecapole Moments (Debye-Ang^3)
      XXXX     -43.9142   XXXY     -10.3637   XXYY     -26.1885
      XYYY     -10.2276   YYYY    -125.4619   XXXZ      20.2661
      XXYZ       7.9646   XYYZ       6.4424   YYYZ      24.9256
      XXZZ     -27.9362   XYZZ      -1.8748   YYZZ     -39.2307
      XZZZ      19.0935   YZZZ      21.8491   ZZZZ    -123.5830
 -----------------------------------------------------------------
 Calculating analytic gradient of the SCF energy
 Gradient of AOints
            1           2           3           4           5           6
    1   1.1790288   4.1178400   1.2969568  -3.2373948   2.2220259   0.6613078
    2   5.1615101  -3.4561111   1.3954072   2.0824100   2.0837585 -13.5027999
    3  -2.8702440 -10.0249830  -3.1743842   0.1244894   2.3589483  -1.6078586
            7
    1  -6.2397645
    2   6.2358253
    3  15.1940322
 Gradient of XC Energy
            1           2           3           4           5           6
    1  -0.0019176  -0.0836035  -0.0564821   0.1412588  -0.0886389  -0.0530784
    2  -0.0232707   0.0710212  -0.0426905  -0.0605706  -0.0606326   0.3738517
    3   0.0045021   0.2036441   0.1381713  -0.0172458  -0.1113149   0.1291696
            7
    1   0.1424617
    2  -0.2577085
    3  -0.3469265
 Gradient of SCF Energy
            1           2           3           4           5           6
    1   0.0002785  -0.0011734  -0.0003781   0.0002304  -0.0001998   0.0039181
    2   0.0040939  -0.0001494   0.0011360   0.0004228   0.0004230  -0.0221780
    3  -0.0008074   0.0030031   0.0009310   0.0000730  -0.0001177  -0.0095586
            7
    1  -0.0026758
    2   0.0162516
    3   0.0064766
 Max gradient component =       2.218E-02
 RMS gradient           =       6.699E-03
 Gradient time:  CPU 79.69 s  wall 80.05 s
 Geometry Optimization Parameters
   NAtoms,    NIC,     NZ,  NCons,   NDum,   NFix, NCnnct, MaxDiis
        7      32       0       0       0       0       0       0

 Cartesian Hessian Update
 Hessian Updated using BFGS Update


** GEOMETRY OPTIMIZATION IN DELOCALIZED INTERNAL COORDINATES **
   Searching for a Minimum

   Optimization Cycle:   3

                       Coordinates (Angstroms)
     ATOM              X           Y           Z
    1  C          -0.297909   -1.094857    0.725859
    2  O          -0.303757    0.311873    0.739556
    3  H          -0.696955   -1.382606    1.702171
    4  H           0.721301   -1.478743    0.593807
    5  H          -0.932110   -1.479343   -0.082597
    6  N           0.151021    0.915956   -0.367854
    7  O           0.504098    0.219431   -1.227422
   Point Group: c1    Number of degrees of freedom:  15


   Energy is   -242.741665249

 Hessian Updated using BFGS Update

 15 Hessian modes will be used to form the next step
  Hessian Eigenvalues:
     0.009466    0.010496    0.100820    0.106540    0.157777    0.160000
     0.160197    0.239442    0.342069    0.343531    0.348301    0.357985
     0.402287    0.718663    1.101181

 Minimum Search - Taking Simple RFO Step
 Searching for Lamda that Minimizes Along All modes
 Value Taken    Lamda =  -0.00096677
 Step Taken.  Stepsize is  0.041760

                             Maximum     Tolerance    Cnvgd?
         Gradient           0.015654      0.000300      NO
         Displacement       0.030106      0.001200      NO
         Energy change     -0.000346      0.000001      NO


 New Cartesian Coordinates Obtained by Inverse Iteration

 Displacement from previous Coordinates is:  0.054595
 Writing REM_CC_EA            7
 ----------------------------------------------------
       Standard Nuclear Orientation (Angstroms)
    I     Atom         X            Y            Z
 ----------------------------------------------------
    1      C      -0.297752    -1.093705     0.725047
    2      O      -0.304121     0.320913     0.738794
    3      H      -0.694718    -1.389692     1.698732
    4      H       0.720126    -1.479249     0.590653
    5      H      -0.930613    -1.480257    -0.082970
    6      N       0.151739     0.931121    -0.370933
    7      O       0.501027     0.202579    -1.215803
 ----------------------------------------------------
 Nuclear Repulsion Energy =   125.4135618433 hartrees
 There are       16 alpha and       16 beta electrons
 Applying Cartesian multipole field
    Component          Value
    ---------          -----
     (2,0,0)        1.00000E-11
     (0,2,0)        2.00000E-11
     (0,0,2)       -3.00000E-11
 Nucleus-field energy     =    -0.0000000009 hartrees
 Requested basis set is G3large
 There are 58 shells and 198 basis functions
 A cutoff of  1.0D-11 yielded   1631 shell pairs
 There are  19101 function pairs ( 24107 Cartesian)
Evaluating contribution to one-electron hamiltonian from nuclear
 Smallest overlap matrix eigenvalue = 4.43E-04
 Multipole matrices computed through 2nd order
 Guess MOs from SCF MO coefficient file
Reading MOs from coefficient file
Reading MOs from coefficient file
 A restricted hybrid HF-DFT SCF calculation will be
 performed using Pulay DIIS extrapolation
 Exchange:     1.0000 Hartree-Fock + 1.0000 BNL
 Correlation:  1.0000 LYP
 Using SG-1 standard quadrature grid
 SCF converges when DIIS error is below 1.0E-08
 ---------------------------------------
  Cycle       Energy         DIIS Error
 ---------------------------------------
    1    -242.7398838923      9.82E-04
    2    -242.7420572361      1.35E-04
    3    -242.7420965448      1.16E-04
    4    -242.7421344008      3.16E-05
    5    -242.7421376421      7.86E-06
    6    -242.7421379678      6.03E-06
    7    -242.7421380642      1.03E-06
    8    -242.7421380733      2.80E-07
    9    -242.7421381279      1.00E-07
   10    -242.7421381312      4.20E-08
   11    -242.7421381095      1.78E-08
   12    -242.7421380655      8.26E-09 Convergence criterion met
 ---------------------------------------
 One-Electron    Energy =  -581.8872783224
 Total Coulomb   Energy =   241.7978449407
 Alpha Exchange  Energy =    -3.3749308904
 Beta  Exchange  Energy =    -3.3749308904
 DFT   Exchange  Energy =   -20.1935747626
 DFT Correlation Energy =    -1.1228299829
 Nuclear Repu.   Energy =   125.4135618425
 Nuclear Attr.   Energy =  -823.7510387904
 Kinetic         Energy =   241.8637604680
 SCF time:  CPU 143.01 s  wall 144.45 s
 Final Alpha MO Eigenvalues
            1           2           3           4           5           6
    1 -18.8843088 -18.8728301 -14.2439540 -10.0544943  -1.3858055  -1.2143778
            7           8           9          10          11          12
    1  -0.9269391  -0.7602147  -0.7041079  -0.6831248  -0.6645488  -0.5763671
           13          14          15          16          17          18
    1  -0.5562096  -0.5029777  -0.4579233  -0.4069544   0.0247396   0.0294944
           19          20          21
    1   0.0596597   0.0623505   0.0805112
 Analysis of SCF Wavefunction
 
 --------------------------------------------------------------
                    Orbital Energies (a.u.)
 --------------------------------------------------------------
 
 Alpha MOs
 -- Occupied --
-18.884 -18.873 -14.244 -10.054  -1.386  -1.214  -0.927  -0.760
 -0.704  -0.683  -0.665  -0.576  -0.556  -0.503  -0.458  -0.407
 -- Virtual --
  0.025   0.029   0.060   0.062   0.081   0.127   0.136   0.151
  0.160   0.167   0.174   0.209   0.224   0.236   0.244   0.252
  0.286   0.295   0.323   0.323   0.332   0.363   0.381   0.431
  0.449   0.493   0.544   0.558   0.622   0.623   0.629   0.673
  0.699   0.769   0.808   0.837   0.881   0.889   0.933   0.983
  0.994   1.075   1.088   1.104   1.133   1.142   1.171   1.183
  1.232   1.260   1.274   1.297   1.310   1.340   1.416   1.425
  1.475   1.508   1.557   1.606   1.625   1.670   1.717   1.794
  1.852   1.985   2.020   2.112   2.113   2.245   2.299   2.408
  2.521   2.550   2.573   2.671   2.834   3.019   3.113   3.165
  3.189   3.207   3.322   3.371   3.442   3.449   3.526   3.551
  3.652   3.677   3.717   3.741   3.796   3.821   3.903   3.952
  3.981   4.022   4.066   4.173   4.227   4.263   4.361   4.402
  4.413   4.432   4.529   4.626   4.722   4.761   4.798   4.888
  4.958   5.041   5.085   5.102   5.131   5.142   5.232   5.238
  5.287   5.401   5.488   5.542   5.632   5.679   5.711   5.815
  5.859   6.132   6.268   6.510   6.702   6.752   6.833   6.950
  7.075   7.119   7.242   7.245   7.318   7.365   7.472   7.730
  7.845   7.968  24.472  28.069  28.095  28.169  35.977  37.342
 37.762  38.252  40.365  40.394  40.477  40.560  40.792  40.915
 40.976  41.199  41.234  41.286  43.630  43.657  43.704  43.729
 43.765  43.786  43.811  43.898  43.939  43.994  45.719  45.761
 45.868  46.025  46.467  46.648  50.136  50.353
 --------------------------------------------------------------
 
          Ground-State Mulliken Net Atomic Charges

     Atom                 Charge (a.u.)
  ----------------------------------------
      1 C                    -0.305279
      2 O                     0.076046
      3 H                     0.144389
      4 H                     0.151973
      5 H                     0.152230
      6 N                    -0.110985
      7 O                    -0.108375
  ----------------------------------------
  Sum of atomic charges =     0.000000

 -----------------------------------------------------------------
                    Cartesian Multipole Moments
 -----------------------------------------------------------------
    Charge (ESU x 10^10)
                 0.0000
    Dipole Moment (Debye)
         X      -0.4461      Y      -2.2007      Z       1.0869
       Tot       2.4947
    Quadrupole Moments (Debye-Ang)
        XX     -22.9157     XY       0.6281     YY     -23.3498
        XZ       1.0166     YZ      -1.5209     ZZ     -24.9595
    Octapole Moments (Debye-Ang^2)
       XXX       1.5519    XXY      -0.1092    XYY      -0.2636
       YYY      -2.1693    XXZ      -0.5240    XYZ       0.8934
       YYZ       0.6430    XZZ      -2.0554    YZZ      -1.9188
       ZZZ       1.7247
    Hexadecapole Moments (Debye-Ang^3)
      XXXX     -43.8675   XXXY     -10.2140   XXYY     -26.2466
      XYYY     -10.0257   YYYY    -125.8514   XXXZ      20.1863
      XXYZ       7.8425   XYYZ       6.3621   YYYZ      24.4649
      XXZZ     -27.8436   XYZZ      -1.7961   YYZZ     -39.0929
      XZZZ      19.0485   YZZZ      21.4286   ZZZZ    -123.0162
 -----------------------------------------------------------------
 Calculating analytic gradient of the SCF energy
 Gradient of AOints
            1           2           3           4           5           6
    1   1.1960523   4.0833331   1.2875988  -3.2256370   2.2091985   0.5815154
    2   5.0969689  -3.4006681   1.4547465   2.1029543   2.1049259 -13.9888128
    3  -2.9146862  -9.9235472  -3.1603620   0.1383355   2.3565420  -1.3526570
            7
    1  -6.1320611
    2   6.6298854
    3  14.8563748
 Gradient of XC Energy
            1           2           3           4           5           6
    1  -0.0023937  -0.0819425  -0.0561722   0.1409894  -0.0883504  -0.0497376
    2  -0.0197587   0.0673475  -0.0449107  -0.0612821  -0.0614053   0.3888785
    3   0.0057845   0.1994027   0.1377846  -0.0176777  -0.1112662   0.1189358
            7
    1   0.1376071
    2  -0.2688692
    3  -0.3329637
 Gradient of SCF Energy
            1           2           3           4           5           6
    1  -0.0004350  -0.0003616  -0.0000189  -0.0001006  -0.0000060   0.0016501
    2  -0.0004024  -0.0015396  -0.0003830  -0.0001876  -0.0001932   0.0009343
    3   0.0008372   0.0011752   0.0000543   0.0001186   0.0001740  -0.0042593
            7
    1  -0.0007279
    2   0.0017716
    3   0.0018999
 Max gradient component =       4.259E-03
 RMS gradient           =       1.277E-03
 Gradient time:  CPU 80.33 s  wall 80.76 s
 Geometry Optimization Parameters
   NAtoms,    NIC,     NZ,  NCons,   NDum,   NFix, NCnnct, MaxDiis
        7      32       0       0       0       0       0       0

 Cartesian Hessian Update
 Hessian Updated using BFGS Update


** GEOMETRY OPTIMIZATION IN DELOCALIZED INTERNAL COORDINATES **
   Searching for a Minimum

   Optimization Cycle:   4

                       Coordinates (Angstroms)
     ATOM              X           Y           Z
    1  C          -0.297752   -1.093705    0.725047
    2  O          -0.304121    0.320913    0.738794
    3  H          -0.694718   -1.389692    1.698732
    4  H           0.720126   -1.479249    0.590653
    5  H          -0.930613   -1.480257   -0.082970
    6  N           0.151739    0.931121   -0.370933
    7  O           0.501027    0.202579   -1.215803
   Point Group: c1    Number of degrees of freedom:  15


   Energy is   -242.742138065

 Hessian Updated using BFGS Update

 15 Hessian modes will be used to form the next step
  Hessian Eigenvalues:
     0.009469    0.010496    0.100748    0.106539    0.159066    0.160000
     0.160245    0.241965    0.343455    0.343531    0.348264    0.399811
     0.443604    0.617039    1.041565

 Minimum Search - Taking Simple RFO Step
 Searching for Lamda that Minimizes Along All modes
 Value Taken    Lamda =  -0.00007737
 Step Taken.  Stepsize is  0.018216

                             Maximum     Tolerance    Cnvgd?
         Gradient           0.003961      0.000300      NO
         Displacement       0.011197      0.001200      NO
         Energy change     -0.000473      0.000001      NO


 New Cartesian Coordinates Obtained by Inverse Iteration

 Displacement from previous Coordinates is:  0.045161
 Writing REM_CC_EA            7
 ----------------------------------------------------
       Standard Nuclear Orientation (Angstroms)
    I     Atom         X            Y            Z
 ----------------------------------------------------
    1      C      -0.296399    -1.090255     0.723120
    2      O      -0.305529     0.323364     0.743466
    3      H      -0.695407    -1.389675     1.694586
    4      H       0.722853    -1.472266     0.588855
    5      H      -0.926326    -1.473009    -0.089050
    6      N       0.153639     0.924366    -0.365792
    7      O       0.492859     0.189186    -1.211666
 ----------------------------------------------------
 Nuclear Repulsion Energy =   125.6267691889 hartrees
 There are       16 alpha and       16 beta electrons
 Applying Cartesian multipole field
    Component          Value
    ---------          -----
     (2,0,0)        1.00000E-11
     (0,2,0)        2.00000E-11
     (0,0,2)       -3.00000E-11
 Nucleus-field energy     =    -0.0000000009 hartrees
 Requested basis set is G3large
 There are 58 shells and 198 basis functions
 A cutoff of  1.0D-11 yielded   1632 shell pairs
 There are  19110 function pairs ( 24116 Cartesian)
Evaluating contribution to one-electron hamiltonian from nuclear
 Smallest overlap matrix eigenvalue = 4.35E-04
 Multipole matrices computed through 2nd order
 Guess MOs from SCF MO coefficient file
Reading MOs from coefficient file
Reading MOs from coefficient file
 A restricted hybrid HF-DFT SCF calculation will be
 performed using Pulay DIIS extrapolation
 Exchange:     1.0000 Hartree-Fock + 1.0000 BNL
 Correlation:  1.0000 LYP
 Using SG-1 standard quadrature grid
 SCF converges when DIIS error is below 1.0E-08
 ---------------------------------------
  Cycle       Energy         DIIS Error
 ---------------------------------------
    1    -242.7435024750      3.61E-04
    2    -242.7421425777      6.30E-05
    3    -242.7421474174      7.42E-05
    4    -242.7421648065      1.37E-05
    5    -242.7421661994      7.27E-06
    6    -242.7421665524      4.12E-06
    7    -242.7421667229      1.28E-06
    8    -242.7421667541      5.98E-07
    9    -242.7421667882      1.97E-07
   10    -242.7421667246      6.79E-08
   11    -242.7421667228      2.32E-08
   12    -242.7421667237      9.36E-09 Convergence criterion met
 ---------------------------------------
 One-Electron    Energy =  -582.3063240095
 Total Coulomb   Energy =   242.0055611857
 Alpha Exchange  Energy =    -3.3750684527
 Beta  Exchange  Energy =    -3.3750684527
 DFT   Exchange  Energy =   -20.1949753212
 DFT Correlation Energy =    -1.1230608614
 Nuclear Repu.   Energy =   125.6267691881
 Nuclear Attr.   Energy =  -824.1747217211
 Kinetic         Energy =   241.8683977115
 SCF time:  CPU 144.16 s  wall 145.66 s
 Final Alpha MO Eigenvalues
            1           2           3           4           5           6
    1 -18.8858369 -18.8720582 -14.2434948 -10.0544059  -1.3858159  -1.2152687
            7           8           9          10          11          12
    1  -0.9277244  -0.7601287  -0.7043639  -0.6838611  -0.6650647  -0.5755238
           13          14          15          16          17          18
    1  -0.5549056  -0.5043246  -0.4588056  -0.4067668   0.0247506   0.0295211
           19          20          21
    1   0.0595621   0.0623716   0.0803993
 Analysis of SCF Wavefunction
 
 --------------------------------------------------------------
                    Orbital Energies (a.u.)
 --------------------------------------------------------------
 
 Alpha MOs
 -- Occupied --
-18.886 -18.872 -14.243 -10.054  -1.386  -1.215  -0.928  -0.760
 -0.704  -0.684  -0.665  -0.576  -0.555  -0.504  -0.459  -0.407
 -- Virtual --
  0.025   0.030   0.060   0.062   0.080   0.127   0.136   0.152
  0.160   0.167   0.174   0.209   0.223   0.236   0.245   0.253
  0.286   0.296   0.323   0.323   0.332   0.363   0.381   0.431
  0.449   0.492   0.543   0.558   0.621   0.623   0.629   0.672
  0.699   0.770   0.808   0.838   0.881   0.891   0.932   0.985
  0.994   1.074   1.089   1.104   1.131   1.143   1.169   1.184
  1.233   1.262   1.276   1.296   1.309   1.342   1.417   1.426
  1.476   1.507   1.556   1.607   1.625   1.673   1.717   1.800
  1.855   1.985   2.020   2.111   2.117   2.245   2.300   2.411
  2.522   2.551   2.574   2.672   2.838   3.019   3.113   3.164
  3.190   3.207   3.328   3.371   3.444   3.450   3.527   3.550
  3.653   3.675   3.718   3.741   3.797   3.821   3.903   3.960
  3.982   4.020   4.067   4.175   4.227   4.265   4.360   4.403
  4.412   4.431   4.532   4.621   4.726   4.761   4.801   4.889
  4.962   5.042   5.087   5.102   5.133   5.142   5.234   5.241
  5.288   5.404   5.487   5.542   5.632   5.682   5.713   5.822
  5.861   6.137   6.266   6.515   6.694   6.751   6.836   6.954
  7.075   7.121   7.245   7.247   7.316   7.367   7.479   7.731
  7.845   7.966  24.474  28.069  28.095  28.174  35.977  37.343
 37.763  38.253  40.365  40.394  40.477  40.561  40.792  40.915
 40.977  41.199  41.234  41.286  43.631  43.658  43.704  43.730
 43.766  43.787  43.809  43.897  43.938  43.994  45.718  45.760
 45.868  46.029  46.466  46.650  50.139  50.352
 --------------------------------------------------------------
 
          Ground-State Mulliken Net Atomic Charges

     Atom                 Charge (a.u.)
  ----------------------------------------
      1 C                    -0.307178
      2 O                     0.079923
      3 H                     0.144258
      4 H                     0.152792
      5 H                     0.152681
      6 N                    -0.112591
      7 O                    -0.109885
  ----------------------------------------
  Sum of atomic charges =     0.000000

 -----------------------------------------------------------------
                    Cartesian Multipole Moments
 -----------------------------------------------------------------
    Charge (ESU x 10^10)
                 0.0000
    Dipole Moment (Debye)
         X      -0.4519      Y      -2.1935      Z       1.1073
       Tot       2.4983
    Quadrupole Moments (Debye-Ang)
        XX     -22.9046     XY       0.6011     YY     -23.3699
        XZ       1.0162     YZ      -1.5043     ZZ     -24.9795
    Octapole Moments (Debye-Ang^2)
       XXX       1.6223    XXY      -0.0443    XYY      -0.2521
       YYY      -1.9436    XXZ      -0.5700    XYZ       0.8823
       YYZ       0.5757    XZZ      -2.0125    YZZ      -1.8246
       ZZZ       1.5688
    Hexadecapole Moments (Debye-Ang^3)
      XXXX     -43.6078   XXXY     -10.0580   XXYY     -26.0739
      XYYY      -9.9171   YYYY    -124.9071   XXXZ      19.9949
      XXYZ       7.6599   XYYZ       6.3048   YYYZ      23.9625
      XXZZ     -27.7236   XYZZ      -1.7199   YYZZ     -38.8791
      XZZZ      18.8559   YZZZ      20.9003   ZZZZ    -122.7436
 -----------------------------------------------------------------
 Calculating analytic gradient of the SCF energy
 Gradient of AOints
            1           2           3           4           5           6
    1   1.1995398   4.1340321   1.2961763  -3.2403489   2.1987615   0.4148324
    2   5.1236995  -3.4929341   1.4600404   2.0949687   2.0938551 -13.9709299
    3  -2.9365633 -10.0144103  -3.1538072   0.1431770   2.3818014  -1.2891226
            7
    1  -6.0029933
    2   6.6913004
    3  14.8689249
 Gradient of XC Energy
            1           2           3           4           5           6
    1  -0.0023265  -0.0839158  -0.0564984   0.1412293  -0.0878324  -0.0438550
    2  -0.0206578   0.0688684  -0.0451906  -0.0608106  -0.0608032   0.3880886
    3   0.0059614   0.2023593   0.1374354  -0.0177567  -0.1119560   0.1158450
            7
    1   0.1331988
    2  -0.2694948
    3  -0.3318884
 Gradient of SCF Energy
            1           2           3           4           5           6
    1   0.0005573  -0.0011379   0.0000222   0.0000285  -0.0000705   0.0009554
    2   0.0005727  -0.0003478  -0.0000129  -0.0001202  -0.0000092  -0.0001424
    3  -0.0004556   0.0015831  -0.0000831   0.0000562  -0.0000651  -0.0011550
            7
    1  -0.0003549
    2   0.0000600
    3   0.0001195
 Max gradient component =       1.583E-03
 RMS gradient           =       5.861E-04
 Gradient time:  CPU 80.71 s  wall 81.14 s
 Geometry Optimization Parameters
   NAtoms,    NIC,     NZ,  NCons,   NDum,   NFix, NCnnct, MaxDiis
        7      32       0       0       0       0       0       0

 Cartesian Hessian Update
 Hessian Updated using BFGS Update


** GEOMETRY OPTIMIZATION IN DELOCALIZED INTERNAL COORDINATES **
   Searching for a Minimum

   Optimization Cycle:   5

                       Coordinates (Angstroms)
     ATOM              X           Y           Z
    1  C          -0.296399   -1.090255    0.723120
    2  O          -0.305529    0.323364    0.743466
    3  H          -0.695407   -1.389675    1.694586
    4  H           0.722853   -1.472266    0.588855
    5  H          -0.926326   -1.473009   -0.089050
    6  N           0.153639    0.924366   -0.365792
    7  O           0.492859    0.189186   -1.211666
   Point Group: c1    Number of degrees of freedom:  15


   Energy is   -242.742166724

 Hessian Updated using BFGS Update

 15 Hessian modes will be used to form the next step
  Hessian Eigenvalues:
     0.010473    0.010740    0.100344    0.106544    0.157804    0.160052
     0.160468    0.293503    0.341829    0.343531    0.348328    0.351938
     0.477144    0.620900    1.018918

 Minimum Search - Taking Simple RFO Step
 Searching for Lamda that Minimizes Along All modes
 Value Taken    Lamda =  -0.00003362
 Step Taken.  Stepsize is  0.043953

                             Maximum     Tolerance    Cnvgd?
         Gradient           0.001395      0.000300      NO
         Displacement       0.033235      0.001200      NO
         Energy change     -0.000029      0.000001      NO


 New Cartesian Coordinates Obtained by Inverse Iteration

 Displacement from previous Coordinates is:  0.067807
 Writing REM_CC_EA            7
 ----------------------------------------------------
       Standard Nuclear Orientation (Angstroms)
    I     Atom         X            Y            Z
 ----------------------------------------------------
    1      C      -0.298614    -1.090443     0.722045
    2      O      -0.308241     0.323029     0.740908
    3      H      -0.686262    -1.388487     1.698530
    4      H       0.719622    -1.470771     0.576064
    5      H      -0.937095    -1.474238    -0.082843
    6      N       0.140238     0.923389    -0.369617
    7      O       0.516040     0.189233    -1.201567
 ----------------------------------------------------
 Nuclear Repulsion Energy =   125.6906693846 hartrees
 There are       16 alpha and       16 beta electrons
 Applying Cartesian multipole field
    Component          Value
    ---------          -----
     (2,0,0)        1.00000E-11
     (0,2,0)        2.00000E-11
     (0,0,2)       -3.00000E-11
 Nucleus-field energy     =    -0.0000000008 hartrees
 Requested basis set is G3large
 There are 58 shells and 198 basis functions
 A cutoff of  1.0D-11 yielded   1632 shell pairs
 There are  19110 function pairs ( 24116 Cartesian)
Evaluating contribution to one-electron hamiltonian from nuclear
 Smallest overlap matrix eigenvalue = 4.34E-04
 Multipole matrices computed through 2nd order
 Guess MOs from SCF MO coefficient file
Reading MOs from coefficient file
Reading MOs from coefficient file
 A restricted hybrid HF-DFT SCF calculation will be
 performed using Pulay DIIS extrapolation
 Exchange:     1.0000 Hartree-Fock + 1.0000 BNL
 Correlation:  1.0000 LYP
 Using SG-1 standard quadrature grid
 SCF converges when DIIS error is below 1.0E-08
 ---------------------------------------
  Cycle       Energy         DIIS Error
 ---------------------------------------
    1    -242.7411926215      9.13E-04
    2    -242.7419701302      1.09E-04
    3    -242.7420900556      8.05E-05
    4    -242.7421157203      4.71E-05
    5    -242.7421302654      1.63E-05
    6    -242.7421353196      7.59E-06
    7    -242.7421363626      4.40E-06
    8    -242.7421368144      2.16E-06
    9    -242.7421367946      6.78E-07
   10    -242.7421368529      2.69E-07
   11    -242.7421368425      7.88E-08
   12    -242.7421368466      1.95E-08
   13    -242.7421368457      4.40E-09 Convergence criterion met
 ---------------------------------------
 One-Electron    Energy =  -582.4302687829
 Total Coulomb   Energy =   242.0671379329
 Alpha Exchange  Energy =    -3.3751827515
 Beta  Exchange  Energy =    -3.3751827515
 DFT   Exchange  Energy =   -20.1961608223
 DFT Correlation Energy =    -1.1231490542
 Nuclear Repu.   Energy =   125.6906693838
 Nuclear Attr.   Energy =  -824.3027530671
 Kinetic         Energy =   241.8724842841
 SCF time:  CPU 157.26 s  wall 158.70 s
 Final Alpha MO Eigenvalues
            1           2           3           4           5           6
    1 -18.8863673 -18.8713892 -14.2432242 -10.0545941  -1.3860125  -1.2157265
            7           8           9          10          11          12
    1  -0.9285771  -0.7600460  -0.7042060  -0.6842224  -0.6653793  -0.5753580
           13          14          15          16          17          18
    1  -0.5548070  -0.5043180  -0.4591076  -0.4065116   0.0250082   0.0295137
           19          20          21
    1   0.0595010   0.0623752   0.0803615
 Analysis of SCF Wavefunction
 
 --------------------------------------------------------------
                    Orbital Energies (a.u.)
 --------------------------------------------------------------
 
 Alpha MOs
 -- Occupied --
-18.886 -18.871 -14.243 -10.055  -1.386  -1.216  -0.929  -0.760
 -0.704  -0.684  -0.665  -0.575  -0.555  -0.504  -0.459  -0.407
 -- Virtual --
  0.025   0.030   0.060   0.062   0.080   0.127   0.136   0.152
  0.160   0.166   0.174   0.209   0.223   0.236   0.245   0.253
  0.286   0.296   0.323   0.324   0.332   0.364   0.381   0.432
  0.449   0.492   0.543   0.558   0.621   0.623   0.629   0.672
  0.699   0.770   0.808   0.838   0.881   0.891   0.932   0.985
  0.994   1.074   1.088   1.104   1.131   1.144   1.169   1.183
  1.233   1.262   1.277   1.296   1.309   1.342   1.417   1.426
  1.476   1.507   1.556   1.606   1.625   1.674   1.717   1.800
  1.855   1.984   2.022   2.110   2.120   2.245   2.300   2.411
  2.522   2.552   2.574   2.673   2.838   3.019   3.113   3.163
  3.189   3.207   3.328   3.371   3.444   3.450   3.528   3.550
  3.654   3.675   3.719   3.742   3.798   3.823   3.903   3.962
  3.982   4.020   4.067   4.177   4.226   4.264   4.362   4.403
  4.412   4.431   4.533   4.620   4.727   4.761   4.800   4.888
  4.962   5.042   5.088   5.103   5.133   5.143   5.233   5.243
  5.287   5.404   5.486   5.542   5.633   5.683   5.714   5.823
  5.862   6.144   6.270   6.516   6.693   6.753   6.837   6.955
  7.076   7.121   7.245   7.248   7.316   7.368   7.483   7.731
  7.845   7.967  24.474  28.068  28.095  28.174  35.980  37.344
 37.764  38.254  40.366  40.393  40.477  40.563  40.794  40.915
 40.977  41.199  41.234  41.286  43.631  43.657  43.704  43.731
 43.767  43.786  43.809  43.897  43.939  43.994  45.719  45.760
 45.869  46.029  46.468  46.653  50.141  50.351
 --------------------------------------------------------------
 
          Ground-State Mulliken Net Atomic Charges

     Atom                 Charge (a.u.)
  ----------------------------------------
      1 C                    -0.307184
      2 O                     0.082380
      3 H                     0.144233
      4 H                     0.152066
      5 H                     0.153696
      6 N                    -0.113397
      7 O                    -0.111795
  ----------------------------------------
  Sum of atomic charges =     0.000000

 -----------------------------------------------------------------
                    Cartesian Multipole Moments
 -----------------------------------------------------------------
    Charge (ESU x 10^10)
                 0.0000
    Dipole Moment (Debye)
         X      -0.4683      Y      -2.1977      Z       1.1215
       Tot       2.5113
    Quadrupole Moments (Debye-Ang)
        XX     -22.9380     XY       0.6657     YY     -23.3703
        XZ       1.0546     YZ      -1.4662     ZZ     -24.9490
    Octapole Moments (Debye-Ang^2)
       XXX       1.5264    XXY      -0.0372    XYY      -0.2060
       YYY      -1.9335    XXZ      -0.5632    XYZ       0.8775
       YYZ       0.6003    XZZ      -2.0515    YZZ      -1.8248
       ZZZ       1.5690
    Hexadecapole Moments (Debye-Ang^3)
      XXXX     -44.3460   XXXY      -9.9023   XXYY     -26.1488
      XYYY      -9.6021   YYYY    -124.8280   XXXZ      20.4011
      XXYZ       7.7252   XYYZ       6.3888   YYYZ      24.0785
      XXZZ     -27.8059   XYZZ      -1.6970   YYZZ     -38.7612
      XZZZ      19.2627   YZZZ      20.9039   ZZZZ    -121.6725
 -----------------------------------------------------------------
 Calculating analytic gradient of the SCF energy
 Gradient of AOints
            1           2           3           4           5           6
    1   1.2202293   4.1185120   1.2540626  -3.2330377   2.2368953   0.8765227
    2   5.1357182  -3.4776471   1.4549901   2.0851340   2.0996364 -13.9628819
    3  -2.9426881 -10.0342170  -3.1746382   0.1906410   2.3584653  -1.0738099
            7
    1  -6.4731843
    2   6.6650503
    3  14.6762469
 Gradient of XC Energy
            1           2           3           4           5           6
    1  -0.0028306  -0.0822508  -0.0547194   0.1410202  -0.0892170  -0.0587866
    2  -0.0209785   0.0680551  -0.0449631  -0.0603588  -0.0610999   0.3878211
    3   0.0061469   0.2039849   0.1382532  -0.0195570  -0.1109716   0.1080736
            7
    1   0.1467842
    2  -0.2684758
    3  -0.3259299
 Gradient of SCF Energy
            1           2           3           4           5           6
    1  -0.0009760   0.0013424   0.0000628   0.0001917  -0.0000327  -0.0014936
    2   0.0007454  -0.0001173   0.0000584   0.0001954  -0.0001812  -0.0006279
    3  -0.0009977   0.0011296  -0.0000135  -0.0001412   0.0001057  -0.0006500
            7
    1   0.0009055
    2  -0.0000727
    3   0.0005670
 Max gradient component =       1.494E-03
 RMS gradient           =       6.879E-04
 Gradient time:  CPU 81.68 s  wall 82.13 s
 Geometry Optimization Parameters
   NAtoms,    NIC,     NZ,  NCons,   NDum,   NFix, NCnnct, MaxDiis
        7      32       0       0       0       0       0       0

 Cartesian Hessian Update
 Hessian Updated using BFGS Update


** GEOMETRY OPTIMIZATION IN DELOCALIZED INTERNAL COORDINATES **
   Searching for a Minimum

   Optimization Cycle:   6

                       Coordinates (Angstroms)
     ATOM              X           Y           Z
    1  C          -0.298614   -1.090443    0.722045
    2  O          -0.308241    0.323029    0.740908
    3  H          -0.686262   -1.388487    1.698530
    4  H           0.719622   -1.470771    0.576064
    5  H          -0.937095   -1.474238   -0.082843
    6  N           0.140238    0.923389   -0.369617
    7  O           0.516040    0.189233   -1.201567
   Point Group: c1    Number of degrees of freedom:  15


   Energy is   -242.742136846

 Hessian Updated using BFGS Update

 15 Hessian modes will be used to form the next step
  Hessian Eigenvalues:
     0.010477    0.059467    0.099901    0.107124    0.157408    0.160286
     0.166428    0.209936    0.342215    0.343639    0.348299    0.352543
     0.444531    0.617024    1.015445

 Minimum Search - Taking Simple RFO Step
 Searching for Lamda that Minimizes Along All modes
 Value Taken    Lamda =  -0.00008570
 Step Taken.  Stepsize is  0.034923

                             Maximum     Tolerance    Cnvgd?
         Gradient           0.001910      0.000300      NO
         Displacement       0.026256      0.001200      NO
         Energy change      0.000030      0.000001      NO


 New Cartesian Coordinates Obtained by Inverse Iteration

 Displacement from previous Coordinates is:  0.056266
 Writing REM_CC_EA            7
 ----------------------------------------------------
       Standard Nuclear Orientation (Angstroms)
    I     Atom         X            Y            Z
 ----------------------------------------------------
    1      C      -0.297169    -1.092108     0.723619
    2      O      -0.304569     0.321898     0.739307
    3      H      -0.694221    -1.387873     1.697145
    4      H       0.721442    -1.474892     0.587547
    5      H      -0.929070    -1.476160    -0.086268
    6      N       0.150612     0.926177    -0.366038
    7      O       0.498663     0.194669    -1.211791
 ----------------------------------------------------
 Nuclear Repulsion Energy =   125.6298293059 hartrees
 There are       16 alpha and       16 beta electrons
 Applying Cartesian multipole field
    Component          Value
    ---------          -----
     (2,0,0)        1.00000E-11
     (0,2,0)        2.00000E-11
     (0,0,2)       -3.00000E-11
 Nucleus-field energy     =    -0.0000000009 hartrees
 Requested basis set is G3large
 There are 58 shells and 198 basis functions
 A cutoff of  1.0D-11 yielded   1631 shell pairs
 There are  19101 function pairs ( 24107 Cartesian)
Evaluating contribution to one-electron hamiltonian from nuclear
 Smallest overlap matrix eigenvalue = 4.37E-04
 Multipole matrices computed through 2nd order
 Guess MOs from SCF MO coefficient file
Reading MOs from coefficient file
Reading MOs from coefficient file
 A restricted hybrid HF-DFT SCF calculation will be
 performed using Pulay DIIS extrapolation
 Exchange:     1.0000 Hartree-Fock + 1.0000 BNL
 Correlation:  1.0000 LYP
 Using SG-1 standard quadrature grid
 SCF converges when DIIS error is below 1.0E-08
 ---------------------------------------
  Cycle       Energy         DIIS Error
 ---------------------------------------
    1    -242.7409426230      7.26E-04
    2    -242.7420759204      7.98E-05
    3    -242.7421551495      4.11E-05
    4    -242.7421683402      2.59E-05
    5    -242.7421735227      1.70E-05
    6    -242.7421763058      5.91E-06
    7    -242.7421768183      3.38E-06
    8    -242.7421770767      1.50E-06
    9    -242.7421771437      5.46E-07
   10    -242.7421772048      1.77E-07
   11    -242.7421771823      5.56E-08
   12    -242.7421771881      1.36E-08
   13    -242.7421771868      3.46E-09 Convergence criterion met
 ---------------------------------------
 One-Electron    Energy =  -582.3101769761
 Total Coulomb   Energy =   242.0076493332
 Alpha Exchange  Energy =    -3.3751746203
 Beta  Exchange  Energy =    -3.3751746203
 DFT   Exchange  Energy =   -20.1960405731
 DFT Correlation Energy =    -1.1230890352
 Nuclear Repu.   Energy =   125.6298293051
 Nuclear Attr.   Energy =  -824.1819017424
 Kinetic         Energy =   241.8717247662
 SCF time:  CPU 155.42 s  wall 156.95 s
 Final Alpha MO Eigenvalues
            1           2           3           4           5           6
    1 -18.8860840 -18.8712720 -14.2432642 -10.0547848  -1.3860035  -1.2155657
            7           8           9          10          11          12
    1  -0.9287689  -0.7600285  -0.7039491  -0.6840807  -0.6653088  -0.5755783
           13          14          15          16          17          18
    1  -0.5553142  -0.5036871  -0.4589645  -0.4064900   0.0252470   0.0294372
           19          20          21
    1   0.0595091   0.0623494   0.0803618
 Analysis of SCF Wavefunction
 
 --------------------------------------------------------------
                    Orbital Energies (a.u.)
 --------------------------------------------------------------
 
 Alpha MOs
 -- Occupied --
-18.886 -18.871 -14.243 -10.055  -1.386  -1.216  -0.929  -0.760
 -0.704  -0.684  -0.665  -0.576  -0.555  -0.504  -0.459  -0.406
 -- Virtual --
  0.025   0.029   0.060   0.062   0.080   0.127   0.136   0.152
  0.160   0.167   0.174   0.209   0.223   0.236   0.245   0.253
  0.286   0.296   0.323   0.324   0.332   0.363   0.381   0.432
  0.449   0.492   0.543   0.558   0.621   0.623   0.629   0.672
  0.699   0.770   0.807   0.838   0.881   0.890   0.932   0.984
  0.994   1.074   1.088   1.104   1.132   1.143   1.170   1.183
  1.233   1.261   1.276   1.296   1.310   1.341   1.416   1.426
  1.476   1.507   1.556   1.607   1.625   1.673   1.717   1.798
  1.854   1.983   2.022   2.113   2.115   2.246   2.300   2.410
  2.522   2.551   2.574   2.673   2.836   3.019   3.113   3.163
  3.188   3.207   3.326   3.370   3.444   3.450   3.527   3.551
  3.653   3.676   3.718   3.742   3.798   3.824   3.903   3.959
  3.982   4.021   4.068   4.177   4.226   4.264   4.364   4.403
  4.412   4.432   4.532   4.620   4.726   4.761   4.799   4.888
  4.960   5.042   5.088   5.103   5.133   5.142   5.234   5.240
  5.286   5.404   5.486   5.542   5.633   5.683   5.713   5.821
  5.861   6.146   6.272   6.514   6.694   6.755   6.836   6.954
  7.077   7.120   7.246   7.247   7.317   7.368   7.482   7.731
  7.846   7.968  24.473  28.069  28.095  28.172  35.981  37.344
 37.765  38.255  40.366  40.394  40.477  40.562  40.793  40.915
 40.977  41.199  41.234  41.286  43.631  43.658  43.703  43.730
 43.766  43.787  43.809  43.897  43.939  43.994  45.719  45.761
 45.869  46.027  46.469  46.654  50.141  50.351
 --------------------------------------------------------------
 
          Ground-State Mulliken Net Atomic Charges

     Atom                 Charge (a.u.)
  ----------------------------------------
      1 C                    -0.306356
      2 O                     0.082106
      3 H                     0.144314
      4 H                     0.152639
      5 H                     0.152891
      6 N                    -0.113086
      7 O                    -0.112507
  ----------------------------------------
  Sum of atomic charges =     0.000000

 -----------------------------------------------------------------
                    Cartesian Multipole Moments
 -----------------------------------------------------------------
    Charge (ESU x 10^10)
                 0.0000
    Dipole Moment (Debye)
         X      -0.4628      Y      -2.2040      Z       1.1283
       Tot       2.5189
    Quadrupole Moments (Debye-Ang)
        XX     -22.9090     XY       0.6139     YY     -23.3620
        XZ       1.0268     YZ      -1.4944     ZZ     -24.9759
    Octapole Moments (Debye-Ang^2)
       XXX       1.5613    XXY      -0.0675    XYY      -0.2569
       YYY      -2.0363    XXZ      -0.5313    XYZ       0.8869
       YYZ       0.6154    XZZ      -2.0507    YZZ      -1.8606
       ZZZ       1.7012
    Hexadecapole Moments (Debye-Ang^3)
      XXXX     -43.7627   XXXY     -10.1055   XXYY     -26.1327
      XYYY      -9.9236   YYYY    -125.2233   XXXZ      20.0964
      XXYZ       7.7405   XYYZ       6.3330   YYYZ      24.1619
      XXZZ     -27.7512   XYZZ      -1.7503   YYZZ     -38.9192
      XZZZ      18.9558   YZZZ      21.1127   ZZZZ    -122.5808
 -----------------------------------------------------------------
 Calculating analytic gradient of the SCF energy
 Gradient of AOints
            1           2           3           4           5           6
    1   1.2078035   4.1201367   1.2897791  -3.2359046   2.2073426   0.5199297
    2   5.1299666  -3.4243335   1.4501202   2.0943679   2.0963875 -13.9776922
    3  -2.9470347  -9.9935808  -3.1639232   0.1494471   2.3722883  -1.2636045
            7
    1  -6.1090870
    2   6.6311835
    3  14.8464078
 Gradient of XC Energy
            1           2           3           4           5           6
    1  -0.0026097  -0.0834498  -0.0562110   0.1411762  -0.0881951  -0.0470172
    2  -0.0207202   0.0667225  -0.0447235  -0.0608445  -0.0609857   0.3883470
    3   0.0064243   0.2024381   0.1378106  -0.0180238  -0.1116653   0.1142729
            7
    1   0.1363066
    2  -0.2677954
    3  -0.3312568
 Gradient of SCF Energy
            1           2           3           4           5           6
    1  -0.0000827   0.0002103  -0.0000164  -0.0000104  -0.0000035   0.0001855
    2   0.0002863  -0.0004807  -0.0000818  -0.0000146  -0.0000074  -0.0001511
    3   0.0002118  -0.0005097   0.0000446   0.0000023   0.0000077  -0.0004283
            7
    1  -0.0002828
    2   0.0004492
    3   0.0006715
 Max gradient component =       6.715E-04
 RMS gradient           =       2.804E-04
 Gradient time:  CPU 80.79 s  wall 81.23 s
 Geometry Optimization Parameters
   NAtoms,    NIC,     NZ,  NCons,   NDum,   NFix, NCnnct, MaxDiis
        7      32       0       0       0       0       0       0

 Cartesian Hessian Update
 Hessian Updated using BFGS Update


** GEOMETRY OPTIMIZATION IN DELOCALIZED INTERNAL COORDINATES **
   Searching for a Minimum

   Optimization Cycle:   7

                       Coordinates (Angstroms)
     ATOM              X           Y           Z
    1  C          -0.297169   -1.092108    0.723619
    2  O          -0.304569    0.321898    0.739307
    3  H          -0.694221   -1.387873    1.697145
    4  H           0.721442   -1.474892    0.587547
    5  H          -0.929070   -1.476160   -0.086268
    6  N           0.150612    0.926177   -0.366038
    7  O           0.498663    0.194669   -1.211791
   Point Group: c1    Number of degrees of freedom:  15


   Energy is   -242.742177187

 Hessian Updated using BFGS Update

 15 Hessian modes will be used to form the next step
  Hessian Eigenvalues:
     0.010477    0.056724    0.099927    0.107053    0.157387    0.160332
     0.165641    0.223258    0.342619    0.343632    0.348306    0.362395
     0.452552    0.618421    1.016078

 Minimum Search - Taking Simple RFO Step
 Searching for Lamda that Minimizes Along All modes
 Value Taken    Lamda =  -0.00000293
 Step Taken.  Stepsize is  0.003070

                             Maximum     Tolerance    Cnvgd?
         Gradient           0.000795      0.000300      NO
         Displacement       0.002016      0.001200      NO
         Energy change     -0.000040      0.000001      NO


 New Cartesian Coordinates Obtained by Inverse Iteration

 Displacement from previous Coordinates is:  0.005957
 Writing REM_CC_EA            7
 ----------------------------------------------------
       Standard Nuclear Orientation (Angstroms)
    I     Atom         X            Y            Z
 ----------------------------------------------------
    1      C      -0.297048    -1.091775     0.723410
    2      O      -0.305060     0.322625     0.740600
    3      H      -0.694138    -1.388207     1.696599
    4      H       0.721751    -1.473976     0.587157
    5      H      -0.928730    -1.475215    -0.086925
    6      N       0.150734     0.925452    -0.365837
    7      O       0.498180     0.192806    -1.211486
 ----------------------------------------------------
 Nuclear Repulsion Energy =   125.6167892625 hartrees
 There are       16 alpha and       16 beta electrons
 Applying Cartesian multipole field
    Component          Value
    ---------          -----
     (2,0,0)        1.00000E-11
     (0,2,0)        2.00000E-11
     (0,0,2)       -3.00000E-11
 Nucleus-field energy     =    -0.0000000009 hartrees
 Requested basis set is G3large
 There are 58 shells and 198 basis functions
 A cutoff of  1.0D-11 yielded   1631 shell pairs
 There are  19101 function pairs ( 24107 Cartesian)
Evaluating contribution to one-electron hamiltonian from nuclear
 Smallest overlap matrix eigenvalue = 4.36E-04
 Multipole matrices computed through 2nd order
 Guess MOs from SCF MO coefficient file
Reading MOs from coefficient file
Reading MOs from coefficient file
 A restricted hybrid HF-DFT SCF calculation will be
 performed using Pulay DIIS extrapolation
 Exchange:     1.0000 Hartree-Fock + 1.0000 BNL
 Correlation:  1.0000 LYP
 Using SG-1 standard quadrature grid
 SCF converges when DIIS error is below 1.0E-08
 ---------------------------------------
  Cycle       Energy         DIIS Error
 ---------------------------------------
    1    -242.7419293364      4.88E-05
    2    -242.7421775840      7.86E-06
    3    -242.7421777839      7.89E-06
    4    -242.7421781274      1.52E-06
    5    -242.7421781207      6.57E-07
    6    -242.7421781911      4.53E-07
    7    -242.7421781495      9.19E-08
    8    -242.7421781464      4.83E-08
    9    -242.7421781278      1.67E-08
   10    -242.7421781278      6.96E-09 Convergence criterion met
 ---------------------------------------
 One-Electron    Energy =  -582.2854945627
 Total Coulomb   Energy =   241.9951624042
 Alpha Exchange  Energy =    -3.3751196918
 Beta  Exchange  Energy =    -3.3751196918
 DFT   Exchange  Energy =   -20.1953343576
 DFT Correlation Energy =    -1.1230614898
 Nuclear Repu.   Energy =   125.6167892617
 Nuclear Attr.   Energy =  -824.1541672769
 Kinetic         Energy =   241.8686727142
 SCF time:  CPU 115.54 s  wall 116.68 s
 Final Alpha MO Eigenvalues
            1           2           3           4           5           6
    1 -18.8862319 -18.8713758 -14.2433031 -10.0547538  -1.3856922  -1.2154491
            7           8           9          10          11          12
    1  -0.9285567  -0.7601016  -0.7039331  -0.6839493  -0.6652174  -0.5754503
           13          14          15          16          17          18
    1  -0.5550998  -0.5039877  -0.4590509  -0.4065280   0.0250540   0.0294467
           19          20          21
    1   0.0595056   0.0623515   0.0803452
 Analysis of SCF Wavefunction
 
 --------------------------------------------------------------
                    Orbital Energies (a.u.)
 --------------------------------------------------------------
 
 Alpha MOs
 -- Occupied --
-18.886 -18.871 -14.243 -10.055  -1.386  -1.215  -0.929  -0.760
 -0.704  -0.684  -0.665  -0.575  -0.555  -0.504  -0.459  -0.407
 -- Virtual --
  0.025   0.029   0.060   0.062   0.080   0.127   0.136   0.152
  0.160   0.167   0.174   0.209   0.223   0.236   0.245   0.253
  0.286   0.296   0.323   0.324   0.332   0.363   0.381   0.432
  0.449   0.492   0.543   0.558   0.621   0.623   0.629   0.672
  0.699   0.770   0.808   0.838   0.881   0.891   0.932   0.985
  0.994   1.074   1.088   1.104   1.132   1.143   1.170   1.183
  1.233   1.261   1.276   1.296   1.309   1.341   1.416   1.426
  1.476   1.507   1.556   1.607   1.625   1.673   1.717   1.799
  1.854   1.983   2.021   2.112   2.116   2.246   2.300   2.410
  2.522   2.551   2.574   2.673   2.837   3.019   3.112   3.163
  3.189   3.207   3.327   3.370   3.444   3.450   3.527   3.551
  3.653   3.675   3.718   3.741   3.798   3.823   3.903   3.960
  3.982   4.020   4.068   4.177   4.226   4.264   4.363   4.403
  4.412   4.431   4.533   4.619   4.727   4.761   4.800   4.888
  4.960   5.042   5.088   5.102   5.133   5.142   5.234   5.240
  5.287   5.404   5.486   5.541   5.632   5.683   5.713   5.821
  5.860   6.144   6.269   6.513   6.692   6.753   6.836   6.954
  7.076   7.120   7.245   7.247   7.316   7.368   7.481   7.731
  7.846   7.967  24.473  28.068  28.095  28.172  35.979  37.344
 37.764  38.254  40.366  40.394  40.477  40.562  40.793  40.915
 40.977  41.199  41.234  41.286  43.631  43.658  43.703  43.730
 43.766  43.787  43.809  43.897  43.938  43.994  45.718  45.760
 45.868  46.028  46.468  46.653  50.140  50.350
 --------------------------------------------------------------
 
          Ground-State Mulliken Net Atomic Charges

     Atom                 Charge (a.u.)
  ----------------------------------------
      1 C                    -0.306499
      2 O                     0.081790
      3 H                     0.144303
      4 H                     0.152752
      5 H                     0.152984
      6 N                    -0.113106
      7 O                    -0.112224
  ----------------------------------------
  Sum of atomic charges =     0.000000

 -----------------------------------------------------------------
                    Cartesian Multipole Moments
 -----------------------------------------------------------------
    Charge (ESU x 10^10)
                 0.0000
    Dipole Moment (Debye)
         X      -0.4622      Y      -2.2031      Z       1.1272
       Tot       2.5175
    Quadrupole Moments (Debye-Ang)
        XX     -22.9099     XY       0.6124     YY     -23.3642
        XZ       1.0266     YZ      -1.4935     ZZ     -24.9782
    Octapole Moments (Debye-Ang^2)
       XXX       1.5722    XXY      -0.0616    XYY      -0.2540
       YYY      -2.0120    XXZ      -0.5402    XYZ       0.8853
       YYZ       0.6064    XZZ      -2.0436    YZZ      -1.8511
       ZZZ       1.6705
    Hexadecapole Moments (Debye-Ang^3)
[...]
    1  -0.1412087  -0.0464216  -0.1205561   0.0212437  -0.0212889   0.0120126
    2  -0.0517683  -0.0746687  -0.0647596  -0.0205383  -0.0436040   0.0499787
    3  -0.1183124  -0.0593564  -0.1987858   0.0120245   0.0517021  -0.0032090
    4   0.0029030  -0.0239466   0.0047338  -0.0515732  -0.0159530   0.0237041
    5  -0.0028592  -0.0287275  -0.0055703  -0.0217875  -0.2120793   0.0527638
    6   0.0061413  -0.0248830   0.0044985   0.0237578   0.0387368  -0.0993858
    7   0.0083654   0.0063746  -0.0161464   0.0004143   0.0010695   0.0006908
    8   0.0055061   0.0042081  -0.0080428   0.0020942  -0.0091351  -0.0050736
    9   0.0090540   0.0052532  -0.0150844   0.0006440  -0.0025980  -0.0008758
   10  -0.0147635   0.0049779   0.0036216  -0.0026429  -0.0014006   0.0023229
   11  -0.0092214   0.0055358   0.0022221  -0.0003231   0.0007664  -0.0087257
   12  -0.0209243   0.0079928   0.0029419  -0.0003918   0.0023768   0.0037668
   13   0.1435688   0.0563816   0.1279574   0.0014238  -0.0006689  -0.0045544
   14   0.0563816   0.0907832   0.0735730   0.0063923   0.0007226  -0.0059196
   15   0.1279574   0.0735730   0.2070131  -0.0018892   0.0026875  -0.0003627
   16   0.0014238   0.0063923  -0.0018892   0.1210082  -0.0983974  -0.1950863
   17  -0.0006689   0.0007226   0.0026875  -0.0983974   0.7476257   0.2388174
   18  -0.0045544  -0.0059196  -0.0003627  -0.1950863   0.2388174   0.5149188
   19  -0.0002889  -0.0037576   0.0022808  -0.0898506   0.1366424   0.1609224
   20   0.0026273   0.0021435  -0.0001120   0.1325730  -0.4842851  -0.3218558
   21   0.0006379   0.0033412  -0.0002234   0.1608652  -0.3317203  -0.4148663
           19          20          21
    1  -0.0141152  -0.0020780  -0.0071363
    2   0.0066259  -0.0022640  -0.0161091
    3  -0.0071574   0.0051803   0.0003177
    4  -0.0062541   0.0144360   0.0723727
    5   0.0042800   0.0739033  -0.0102155
    6   0.0723834  -0.0348833  -0.1522716
    7   0.0006722  -0.0010955  -0.0000281
    8   0.0005142   0.0052698  -0.0012301
    9  -0.0000304   0.0025920   0.0007337
   10   0.0011719  -0.0018225   0.0007841
   11   0.0003271   0.0020173   0.0050726
   12  -0.0008689  -0.0018079  -0.0018396
   13  -0.0002889   0.0026273   0.0006379
   14  -0.0037576   0.0021435   0.0033412
   15   0.0022808  -0.0001120  -0.0002234
   16  -0.0898506   0.1325730   0.1608652
   17   0.1366424  -0.4842851  -0.3317203
   18   0.1609224  -0.3218558  -0.4148663
   19   0.1086650  -0.1446426  -0.2275002
   20  -0.1446426   0.4032184   0.3508755
   21  -0.2275002   0.3508755   0.5681570
 Writing REM_CC_EA            7
 ----------------------------------------------------
       Standard Nuclear Orientation (Angstroms)
    I     Atom         X            Y            Z
 ----------------------------------------------------
    1      C      -0.297048    -1.091775     0.723410
    2      O      -0.305060     0.322625     0.740600
    3      H      -0.694138    -1.388207     1.696599
    4      H       0.721751    -1.473976     0.587157
    5      H      -0.928730    -1.475215    -0.086925
    6      N       0.150734     0.925452    -0.365837
    7      O       0.498180     0.192806    -1.211486
 ----------------------------------------------------
 Nuclear Repulsion Energy =   125.6167892625 hartrees
 There are       16 alpha and       16 beta electrons
 old dipole drv.
            1           2           3           4           5           6
    1   0.2065150   0.0293554   0.0171987  -0.3299466  -0.2209236   0.3463202
    2   0.0115857   0.4485095  -0.0281897  -0.1008788  -0.6939100   0.2447157
    3   0.0175621  -0.0710039   0.1719636   0.3471181   0.5363350  -1.0290817
            7           8           9          10          11          12
    1   0.1007857  -0.0072444   0.0433854  -0.0342556  -0.0337829   0.0273557
    2  -0.0183003   0.0695038   0.0451273   0.0481660   0.0191949  -0.0128671
    3   0.0431533   0.0172946   0.0121397   0.0003944   0.0397677   0.0904413
           13          14          15          16          17          18
    1   0.0406915  -0.0040940  -0.0759675   0.2517655  -0.0117896  -0.6907359
    2  -0.0254978   0.0189324  -0.0430243   0.1534759   0.3319434  -0.3715714
    3  -0.0492727   0.0519482   0.0151003  -0.6910173   0.0299701   1.6460439
           19          20          21
    1  -0.2355391   0.2483812   0.3323241
    2  -0.0683877  -0.1943615   0.1658769
    3   0.3319995  -0.6041666  -0.9068241
 New transposed dipole drv.
            1           2           3
    1   0.2065150   0.0115857   0.0175621
    2   0.0293554   0.4485095  -0.0710039
    3   0.0171987  -0.0281897   0.1719636
    4  -0.3299466  -0.1008788   0.3471181
    5  -0.2209236  -0.6939100   0.5363350
    6   0.3463202   0.2447157  -1.0290817
    7   0.1007857  -0.0183003   0.0431533
    8  -0.0072444   0.0695038   0.0172946
    9   0.0433854   0.0451273   0.0121397
   10  -0.0342556   0.0481660   0.0003944
   11  -0.0337829   0.0191949   0.0397677
   12   0.0273557  -0.0128671   0.0904413
   13   0.0406915  -0.0254978  -0.0492727
   14  -0.0040940   0.0189324   0.0519482
   15  -0.0759675  -0.0430243   0.0151003
   16   0.2517655   0.1534759  -0.6910173
   17  -0.0117896   0.3319434   0.0299701
   18  -0.6907359  -0.3715714   1.6460439
   19  -0.2355391  -0.0683877   0.3319995
   20   0.2483812  -0.1943615  -0.6041666
   21   0.3323241   0.1658769  -0.9068241
FINAL TENSOR RESULT:
Order 2, Length 21
Order 1, Length 21
   0.5903486   0.0038592  -0.0177204  -0.0795636   0.0144007   0.0079518  -0.0877447  -0.0229785   0.0933202  -0.2889615   0.0745048   0.0321354  -0.1412087  -0.0464216  -0.1205561   0.0212437  -0.0212889   0.0120126  -0.0141152  -0.0020780  -0.0071363
Order 1, Length 21
   0.0038592   0.4713130  -0.0089308   0.0078218  -0.2175642  -0.0187813  -0.0280934  -0.0586221   0.0686129   0.0820889  -0.0745892  -0.0100104  -0.0517683  -0.0746687  -0.0647596  -0.0205383  -0.0436040   0.0499787   0.0066259  -0.0022640  -0.0161091
Order 1, Length 21
  -0.0177204  -0.0089308   0.6260801   0.0079726  -0.0346361  -0.0953402   0.0932821   0.0560326  -0.2780253   0.0299095  -0.0099892  -0.0510343  -0.1183124  -0.0593564  -0.1987858   0.0120245   0.0517021  -0.0032090  -0.0071574   0.0051803   0.0003177
Order 1, Length 21
  -0.0795636   0.0078218   0.0079726   0.1255969  -0.0006853  -0.1068125  -0.0001663  -0.0161478  -0.0017785   0.0090362   0.0344770  -0.0001511   0.0029030  -0.0239466   0.0047338  -0.0515732  -0.0159530   0.0237041  -0.0062541   0.0144360   0.0723727
Order 1, Length 21
   0.0144007  -0.2175642  -0.0346361  -0.0006853   0.4377736   0.0012538   0.0006605  -0.0247390  -0.0015526   0.0059899  -0.0285768  -0.0020352  -0.0028592  -0.0287275  -0.0055703  -0.0217875  -0.2120793   0.0527638   0.0042800   0.0739033  -0.0102155
Order 1, Length 21
   0.0079518  -0.0187813  -0.0953402  -0.1068125   0.0012538   0.3407872  -0.0018232   0.0394918   0.0034580  -0.0016050  -0.0009392  -0.0017389   0.0061413  -0.0248830   0.0044985   0.0237578   0.0387368  -0.0993858   0.0723834  -0.0348833  -0.1522716
Order 1, Length 21
  -0.0877447  -0.0280934   0.0932821  -0.0001663   0.0006605  -0.0018232   0.0851609   0.0293177  -0.1004252  -0.0067017  -0.0082353   0.0244503   0.0083654   0.0063746  -0.0161464   0.0004143   0.0010695   0.0006908   0.0006722  -0.0010955  -0.0000281
Order 1, Length 21
  -0.0229785  -0.0586221   0.0560326  -0.0161478  -0.0247390   0.0394918   0.0293177   0.0788167  -0.0716012   0.0016953   0.0042029  -0.0095756   0.0055061   0.0042081  -0.0080428   0.0020942  -0.0091351  -0.0050736   0.0005142   0.0052698  -0.0012301
Order 1, Length 21
   0.0933202   0.0686129  -0.2780253  -0.0017785  -0.0015526   0.0034580  -0.1004252  -0.0716012   0.2898626  -0.0007844  -0.0007020  -0.0000699   0.0090540   0.0052532  -0.0150844   0.0006440  -0.0025980  -0.0008758  -0.0000304   0.0025920   0.0007337
Order 1, Length 21
  -0.2889615   0.0820889   0.0299095   0.0090362   0.0059899  -0.0016050  -0.0067017   0.0016953  -0.0007844   0.3028605  -0.0915265  -0.0342511  -0.0147635   0.0049779   0.0036216  -0.0026429  -0.0014006   0.0023229   0.0011719  -0.0018225   0.0007841
Order 1, Length 21
   0.0745048  -0.0745892  -0.0099892   0.0344770  -0.0285768  -0.0009392  -0.0082353   0.0042029  -0.0007020  -0.0915265   0.0906400   0.0130594  -0.0092214   0.0055358   0.0022221  -0.0003231   0.0007664  -0.0087257   0.0003271   0.0020173   0.0050726
Order 1, Length 21
   0.0321354  -0.0100104  -0.0510343  -0.0001511  -0.0020352  -0.0017389   0.0244503  -0.0095756  -0.0000699  -0.0342511   0.0130594   0.0479745  -0.0209243   0.0079928   0.0029419  -0.0003918   0.0023768   0.0037668  -0.0008689  -0.0018079  -0.0018396
Order 1, Length 21
  -0.1412087  -0.0517683  -0.1183124   0.0029030  -0.0028592   0.0061413   0.0083654   0.0055061   0.0090540  -0.0147635  -0.0092214  -0.0209243   0.1435688   0.0563816   0.1279574   0.0014238  -0.0006689  -0.0045544  -0.0002889   0.0026273   0.0006379
Order 1, Length 21
  -0.0464216  -0.0746687  -0.0593564  -0.0239466  -0.0287275  -0.0248830   0.0063746   0.0042081   0.0052532   0.0049779   0.0055358   0.0079928   0.0563816   0.0907832   0.0735730   0.0063923   0.0007226  -0.0059196  -0.0037576   0.0021435   0.0033412
Order 1, Length 21
  -0.1205561  -0.0647596  -0.1987858   0.0047338  -0.0055703   0.0044985  -0.0161464  -0.0080428  -0.0150844   0.0036216   0.0022221   0.0029419   0.1279574   0.0735730   0.2070131  -0.0018892   0.0026875  -0.0003627   0.0022808  -0.0001120  -0.0002234
Order 1, Length 21
   0.0212437  -0.0205383   0.0120245  -0.0515732  -0.0217875   0.0237578   0.0004143   0.0020942   0.0006440  -0.0026429  -0.0003231  -0.0003918   0.0014238   0.0063923  -0.0018892   0.1210082  -0.0983974  -0.1950863  -0.0898506   0.1325730   0.1608652
Order 1, Length 21
  -0.0212889  -0.0436040   0.0517021  -0.0159530  -0.2120793   0.0387368   0.0010695  -0.0091351  -0.0025980  -0.0014006   0.0007664   0.0023768  -0.0006689   0.0007226   0.0026875  -0.0983974   0.7476257   0.2388174   0.1366424  -0.4842851  -0.3317203
Order 1, Length 21
   0.0120126   0.0499787  -0.0032090   0.0237041   0.0527638  -0.0993858   0.0006908  -0.0050736  -0.0008758   0.0023229  -0.0087257   0.0037668  -0.0045544  -0.0059196  -0.0003627  -0.1950863   0.2388174   0.5149188   0.1609224  -0.3218558  -0.4148663
Order 1, Length 21
  -0.0141152   0.0066259  -0.0071574  -0.0062541   0.0042800   0.0723834   0.0006722   0.0005142  -0.0000304   0.0011719   0.0003271  -0.0008689  -0.0002889  -0.0037576   0.0022808  -0.0898506   0.1366424   0.1609224   0.1086650  -0.1446426  -0.2275002
Order 1, Length 21
  -0.0020780  -0.0022640   0.0051803   0.0144360   0.0739033  -0.0348833  -0.0010955   0.0052698   0.0025920  -0.0018225   0.0020173  -0.0018079   0.0026273   0.0021435  -0.0001120   0.1325730  -0.4842851  -0.3218558  -0.1446426   0.4032184   0.3508755
Order 1, Length 21
  -0.0071363  -0.0161091   0.0003177   0.0723727  -0.0102155  -0.1522716  -0.0000281  -0.0012301   0.0007337   0.0007841   0.0050726  -0.0018396   0.0006379   0.0033412  -0.0002234   0.1608652  -0.3317203  -0.4148663  -0.2275002   0.3508755   0.5681570


 # Finishing finite difference calculation for IDERIV #
 ######################################################
 ######################################################
 Requested basis set is G3large
 There are 58 shells and 198 basis functions
 **********************************************************************
 **                                                                  **
 **                       VIBRATIONAL ANALYSIS                       **
 **                       --------------------                       **
 **                                                                  **
 **        VIBRATIONAL FREQUENCIES (CM**-1) AND NORMAL MODES         **
 **     FORCE CONSTANTS (mDYN/ANGSTROM) AND REDUCED MASSES (AMU)     **
 **                  INFRARED INTENSITIES (KM/MOL)                   **
 **                                                                  **
 **********************************************************************
 

 Mode:                 1                      2                      3
 Frequency:       217.71                 383.23                 390.08
 Force Cnst:      0.0304                 0.3322                 0.5575
 Red. Mass:       1.0872                 3.8392                 6.2181
 IR Active:          YES                    YES                    YES
 IR Intens:        0.058                  4.802                  1.788
 Raman Active:       YES                    YES                    YES
               X      Y      Z        X      Y      Z        X      Y      Z
 C          0.007  0.000  0.001   -0.112 -0.128  0.277    0.113  0.002  0.042
 O          0.046  0.001  0.019    0.028 -0.114 -0.074   -0.291  0.002 -0.119
 H         -0.538  0.000 -0.222   -0.158  0.210  0.366    0.217 -0.002  0.083
 H          0.075 -0.025  0.566   -0.151 -0.292  0.432    0.291  0.423  0.148
 H          0.451  0.027 -0.354   -0.177 -0.298  0.406    0.317 -0.416  0.087
 N         -0.002  0.000 -0.001    0.016  0.007 -0.028    0.425  0.000  0.175
 O         -0.049 -0.001 -0.019    0.073  0.227 -0.185   -0.218 -0.003 -0.086
 TransDip  -0.007  0.000 -0.003   -0.022 -0.039  0.054    0.040  0.001  0.016

 Mode:                 4                      5                      6
 Frequency:       809.03                 956.96                1120.22
 Force Cnst:      1.6051                 3.5281                 5.5966
 Red. Mass:       4.1622                 6.5388                 7.5695
 IR Active:          YES                    YES                    YES
 IR Intens:       39.975                119.242                186.722
 Raman Active:       YES                    YES                    YES
               X      Y      Z        X      Y      Z        X      Y      Z
 C         -0.022  0.103  0.052   -0.008 -0.362  0.020   -0.025 -0.377  0.063
 O         -0.128 -0.012  0.310   -0.070  0.111  0.170    0.038  0.468 -0.092
 H          0.057 -0.622 -0.139    0.004 -0.509 -0.008   -0.001 -0.565  0.002
 H          0.051  0.371 -0.216   -0.011 -0.387  0.053    0.071  0.075 -0.291
 H          0.118  0.367 -0.192   -0.029 -0.386  0.045    0.153  0.077 -0.258
 N          0.044 -0.137 -0.106    0.134  0.348 -0.325   -0.091 -0.204  0.221
 O          0.091  0.047 -0.223   -0.039 -0.063  0.094    0.047  0.020 -0.114
 TransDip   0.076  0.031 -0.185    0.133  0.017 -0.323   -0.132 -0.267  0.321

 Mode:                 7                      8                      9
 Frequency:      1155.45                1193.39                1434.69
 Force Cnst:      1.0470                 1.4651                 1.4160
 Red. Mass:       1.3310                 1.7460                 1.1676
 IR Active:          YES                    YES                    YES
 IR Intens:        0.227                  0.641                  6.936
 Raman Active:       YES                    YES                    YES
               X      Y      Z        X      Y      Z        X      Y      Z
 C         -0.137  0.000 -0.054    0.063 -0.027 -0.158   -0.009 -0.104  0.023
 O          0.068  0.000  0.027   -0.047  0.067  0.116   -0.010 -0.027  0.024
 H          0.304 -0.005  0.124   -0.008  0.677  0.029   -0.097  0.669  0.216
 H          0.128  0.629  0.142    0.019 -0.315  0.372    0.135  0.387 -0.280
 H          0.198 -0.627 -0.016   -0.271 -0.329  0.253    0.094  0.379 -0.287
 N         -0.016  0.001 -0.007   -0.007 -0.064  0.017    0.005  0.026 -0.013
 O          0.009  0.000  0.004    0.022  0.007 -0.053    0.004 -0.009 -0.009
 TransDip  -0.014  0.000 -0.006    0.002 -0.025 -0.006    0.010  0.079 -0.028

 Mode:                10                     11                     12
 Frequency:      1449.21                1464.39                1776.29
 Force Cnst:      1.2856                 1.3325                25.9241
 Red. Mass:       1.0390                 1.0546                13.9452
 IR Active:          YES                    YES                    YES
 IR Intens:       17.650                 14.095                178.278
 Raman Active:       YES                    YES                    YES
               X      Y      Z        X      Y      Z        X      Y      Z
 C         -0.046 -0.002 -0.019   -0.014  0.045  0.032   -0.003  0.038  0.006
 O         -0.014  0.000 -0.006   -0.009  0.010  0.020   -0.017 -0.079  0.041
 H          0.657  0.005  0.271   -0.016  0.194  0.064    0.015 -0.166 -0.035
 H         -0.088 -0.299  0.381   -0.242 -0.415 -0.496   -0.053 -0.088  0.089
 H          0.190  0.318 -0.335    0.526 -0.404 -0.195   -0.025 -0.088  0.100
 N          0.003  0.000  0.001   -0.001 -0.008  0.002   -0.180  0.553  0.438
 O         -0.001  0.000 -0.001    0.003  0.002 -0.007    0.180 -0.412 -0.438
 TransDip   0.124  0.001  0.052    0.047  0.003 -0.110   -0.163  0.013  0.395

 Mode:                13                     14                     15
 Frequency:      3053.26                3134.15                3181.02
 Force Cnst:      5.6707                 6.4058                 6.6000
 Red. Mass:       1.0324                 1.1068                 1.1070
 IR Active:          YES                    YES                    YES
 IR Intens:        6.183                  3.968                  0.475
 Raman Active:       YES                    YES                    YES
               X      Y      Z        X      Y      Z        X      Y      Z
 C         -0.005  0.045  0.013   -0.088  0.000 -0.036    0.036  0.005 -0.088
 O          0.000  0.002 -0.001    0.000  0.000  0.000    0.000  0.000  0.000
 H         -0.154 -0.115  0.377   -0.012  0.000 -0.005   -0.331 -0.242  0.809
 H          0.596 -0.218 -0.073    0.655 -0.241 -0.097   -0.272  0.098  0.024
 H         -0.375 -0.219 -0.471    0.398  0.241  0.526    0.177  0.098  0.207
 N         -0.001 -0.001  0.002   -0.001  0.000  0.000    0.000 -0.001  0.000
 O          0.000 -0.001  0.000    0.000  0.000  0.000    0.000  0.000  0.000
 TransDip   0.005  0.078 -0.013   -0.059  0.000 -0.024    0.008  0.008 -0.019

 STANDARD THERMODYNAMIC QUANTITIES AT   298.18 K  AND     1.00 ATM

   This Molecule has  0 Imaginary Frequencies
   Zero point vibrational energy:       31.049 kcal/mol

   Atom    1 Element C  Has Mass   12.00000
   Atom    2 Element O  Has Mass   15.99491
   Atom    3 Element H  Has Mass    1.00783
   Atom    4 Element H  Has Mass    1.00783
   Atom    5 Element H  Has Mass    1.00783
   Atom    6 Element N  Has Mass   14.00307
   Atom    7 Element O  Has Mass   15.99491
   Molecular Mass:    61.016380 amu
   Principal axes and moments of inertia in atomic units:
                             1           2           3
    Eigenvalues --       86.01835   230.26856   304.84745
          X              -0.31789    -0.20900     0.92481
          Y              -0.54883     0.83593     0.00026
          Z               0.77313     0.50748     0.38044
   Rotational Symmetry Number is   1
   The Molecule is an Asymmetric Top
   Translational Enthalpy:        0.889 kcal/mol
   Rotational Enthalpy:           0.889 kcal/mol
   Vibrational Enthalpy:         31.914 kcal/mol
   gas constant (RT):             0.593 kcal/mol
   Translational Entropy:        38.246  cal/mol.K
   Rotational Entropy:           23.317  cal/mol.K
   Vibrational Entropy:           4.513  cal/mol.K

   Total Enthalpy:               34.284 kcal/mol
   Total Entropy:                66.076  cal/mol.K
 Total job time:  7270.74s(wall), 7217.85s(cpu) 
 Sun Apr 24 00:10:35 2011

        *************************************************************
        *                                                           *
        *  Thank you very much for using Q-Chem.  Have a nice day.  *
        *                                                           *
        *************************************************************


0 sent ACK to 0 
now end server 0 ... 
