Process 0 of 1 is on cl091.stfx.acenet.ca - thread support 1
initial socket setup ...start
initial socket setup ...done 
now start server 0 ... 

cmd = /usr/bin/ssh clhead /usr/local/qchem/bin/get_hostid 1090848721 > /scratch/tmp/5998579.1.short.q/qchem31633/lic.dat
                  Welcome to Q-Chem
     A Quantum Leap Into The Future Of Chemistry

 Y. Shao, L. Fusti-Molnar, Y. Jung, J. Kussmann, C. Ochsenfeld,
 S. T. Brown, A. T. B. Gilbert, L. V. Slipchenko,S. V. Levchenko,
 D. P. O'Neill, R. A. DiStasio Jr., R. C. Lochan, T. Wang,
 G. J. O. Beran, N. A. Besley, J. M. Herbert, C. Y. Lin,
 T. Van Voorhis, S. H. Chien, A. Sodt, R. P. Steele, 
 V. A. Rassolov, P. E. Maslen, P. P. Korambath, R. D. Adamson,
 B. Austin, J. Baker, E. F. C. Byrd, H. Dachsel, R. J. Doerksen,
 A. Dreuw, B. D. Dunietz, A. D. Dutoi, T. R. Furlani,
 S. R. Gwaltney, A. Heyden, S. Hirata, C.-P. Hsu, G. Kedziora,
 R. Z. Khaliullin, P. Klunzinger, A. M. Lee, M. S. Lee, W. Liang,
 I. Lotan, N. Nair, B. Peters, E. I. Proynov, P. A. Pieniazek, 
 Y. M. Rhee, J. Ritchie, E. Rosta, C. D. Sherrill, 
 A. C. Simmonett, J. E. Subotnik, H. L. Woodcock III,
 W. Zhang, A. T. Bell, A. K. Chakraborty, D. M. Chipman,
 F. J. Keil, A. Warshel, W. J. Hehre, H. F. Schaefer III,
 J. Kong, A. I. Krylov, P. M. W. Gill, M. Head-Gordon,
 Q-Chem, Version 3.1, Q-Chem, Inc., Pittsburgh, PA (2007).

 Additional authors for Version 3.1: 
 Z. Gan, Y. Zhao, N. E. Schultz, D. Truhlar, E. Epifanovsky and M. Oana.

 Additional authors for Version 3.2: 
 R. Baer, B. R. Brooks, D. Casanova, J.-D. Chai, C.-L. Cheng, 
 C. Cramer, D. Crittenden, A. Ghysels, G. Hawkins, E. G. Hohenstein, 
 C. Kelley, W. Kurlancheek, D. Liotard, E. Livshits, P. Manohar, 
 A. Marenich, D. Neuhauser, R. Olson, M. A. Rohrdanz, K. S. Thanthiriwatte, 
 A. J. W. Thom, V. Vanovschi, C. F. Williams, Q. Wu and Z.-Q. You. 


 Intel X86 Linux Version

 Q-chem begins on Wed May 22 11:39:37 2013  

 Parallel job on  1  processors
Processing $rem in /usr/local/qchem/config/preferences.

theFileMan(): MAXOPENFILES=974 MAX_SUB_FILE_NUM=16
Maximum size of a physical file is 2.0 GB, maximum size of a tmp-file is 32.0 GB


--------------------------------------------------------------
User input:
--------------------------------------------------------------

$molecule
-1,2
S          0.02132        0.00000        0.02065
C          0.00874        0.00000        1.72264
C          1.72227        0.00000       -0.03662
C          1.27432        0.00000        2.23274
C          2.26555        0.00000        1.21503
H         -0.92902        0.00000        2.26361
H          2.23827        0.00000       -0.98836
H          1.49097        0.00000        3.29599
H          3.33415        0.00000        1.40349
$end

$comment
negative
$end

$xc_functional
C PBE   1.00
X wPBE  1.00
$end

$rem
SYMMETRY_DECOMPOSITION	0
exchange 		general
LRC_DFT                 true
BASIS                   g3large
omega			600
mem_static              760
max_scf_cycles          200
scf_final_print         1
sym_ignore              true
$end

--------------------------------------------------------------
 Writing REM_CC_EA            9
 ----------------------------------------------------
       Standard Nuclear Orientation (Angstroms)
    I     Atom         X            Y            Z
 ----------------------------------------------------
    1      S       0.021320     0.000000     0.020650
    2      C       0.008740     0.000000     1.722640
    3      C       1.722270     0.000000    -0.036620
    4      C       1.274320     0.000000     2.232740
    5      C       2.265550     0.000000     1.215030
    6      H      -0.929020     0.000000     2.263610
    7      H       2.238270     0.000000    -0.988360
    8      H       1.490970     0.000000     3.295990
    9      H       3.334150     0.000000     1.403490
 ----------------------------------------------------
 Nuclear Repulsion Energy =   203.8492968182 hartrees
 There are       23 alpha and       22 beta electrons
 Requested basis set is G3large
 There are 83 shells and 274 basis functions

Total QAlloc Memory Limit   2000 MB
Mega-Array Size       743 MB
MEM_STATIC part       760 MB

                       Distance Matrix (Angstroms)
             S (  1)   C (  2)   C (  3)   C (  4)   C (  5)   H (  6)
   C (  2)  1.702036
   C (  3)  1.701914  2.455846
   C (  4)  2.542312  1.364513  2.313148
   C (  5)  2.542265  2.313192  1.364471  1.420658
   H (  6)  2.435984  1.082609  3.510042  2.203556  3.362261
   H (  7)  2.435769  3.510032  1.082620  3.362244  2.203559  4.539497
   H (  8)  3.589948  2.161582  3.340627  1.085098  2.220443  2.631000
   H (  9)  3.589859  3.340690  2.161498  2.220485  1.085091  4.349072
             H (  7)   H (  8)
   H (  8)  4.349036
   H (  9)  2.630950  2.641755
 
 A cutoff of  1.0D-08 yielded   3145 shell pairs
 There are  34992 function pairs ( 45301 Cartesian)
Evaluating contribution to one-electron hamiltonian from nuclear
 Smallest overlap matrix eigenvalue = 5.57E-06

 Q-Chem warning in module mkSTV.C, line 194:

 Overlap eigenvalue is smaller than square root of threshold

 Multipole matrices computed through 2nd order

  Scale SEOQF with 1.000000e-01/1.000000e-01/1.000000e-01

 Standard Electronic Orientation quadrupole field applied
 Nucleus-field energy     =    -0.0000000053 hartrees
 Guess from superposition of atomic densities
 Warning:  Energy on first SCF cycle will be non-variational
 Long-range K will be added via erf
 Coulomb attenuation parameter = 0.6 bohr**(-1)
 An unrestricted Kohn-Sham SCF calculation will be
 performed using Pulay DIIS extrapolation
 Exchange:  wPBE + LR-HF      Correlation:  PBE
 Using SG-1 standard quadrature grid
 SCF converges when DIIS error is below 1.0E-05
 Requested basis set is G3large
 There are 83 shells and 274 basis functions
 A cutoff of  1.0D-08 yielded   3145 shell pairs
 There are  34992 function pairs ( 45301 Cartesian)
 Warning!  Inaccurate integrated density:
   Number of electrons =    45
   Numerical integral  =    44.000380800378
   Relative error      =    -2.2213759992 %
 ---------------------------------------
  Cycle       Energy         DIIS Error
 ---------------------------------------
    1    -554.8179384518      2.93E-02
    2    -552.6608204141      2.89E-03
    3    -552.7432889635      1.95E-03
    4    -552.7811005945      4.12E-04
    5    -552.7853802508      1.33E-04
    6    -552.7862709567      5.12E-05
    7    -552.7865983046      3.14E-05
    8    -552.7867727759      1.84E-05
    9    -552.7868831555      1.30E-05
   10    -552.7869529318      6.48E-06 Convergence criterion met
 ---------------------------------------
 One-Electron    Energy = -1171.6395065145
 Total Coulomb   Energy =   463.9771497890
 Alpha Exchange  Energy =    -6.3245180203
 Beta  Exchange  Energy =    -6.0762021320
 DFT   Exchange  Energy =   -34.9942508351
 DFT Correlation Energy =    -1.5789220318
 Nuclear Repu.   Energy =   203.8492968129
 Nuclear Attr.   Energy = -1723.3899510886
 Kinetic         Energy =   551.7504445741
 <S^2> = 0.7929
 SCF time:  CPU 428.40 s  wall 431.35 s
 Final Alpha MO Eigenvalues
            1           2           3           4           5           6
    1 -88.1727225 -10.0052619 -10.0043427 -10.0019451 -10.0011619  -7.8119677
            7           8           9          10          11          12
    1  -5.8166977  -5.8117718  -5.8090078  -0.8988050  -0.7308356  -0.7234050
           13          14          15          16          17          18
    1  -0.5375069  -0.5229744  -0.4823603  -0.3544474  -0.3485597  -0.3322205
           19          20          21          22          23          24
    1  -0.3200239  -0.2751733  -0.1898021  -0.1863276   0.0234576   0.1526260
           25          26          27          28
    1   0.1529245   0.1612236   0.1687247   0.2210042
 Final Beta MO Eigenvalues
            1           2           3           4           5           6
    1 -88.1721607 -10.0057856 -10.0047560  -9.9954935  -9.9946728  -7.8113472
            7           8           9          10          11          12
    1  -5.8166170  -5.8116669  -5.8066946  -0.8918535  -0.7256142  -0.7105694
           13          14          15          16          17          18
    1  -0.5196089  -0.5183421  -0.4787193  -0.3517236  -0.3295059  -0.3205535
           19          20          21          22          23          24
    1  -0.3162510  -0.2660436  -0.1583869  -0.1257269   0.1530073   0.1531609
           25          26          27
    1   0.1616157   0.1688579   0.2220951
 Analysis of SCF Wavefunction
 
 --------------------------------------------------------------
                    Orbital Energies (a.u.)
 --------------------------------------------------------------
 
 Alpha MOs
 -- Occupied --
-88.173 -10.005 -10.004 -10.002 -10.001  -7.812  -5.817  -5.812
 -5.809  -0.899  -0.731  -0.723  -0.538  -0.523  -0.482  -0.354
 -0.349  -0.332  -0.320  -0.275  -0.190  -0.186   0.023
 -- Virtual --
  0.153   0.153   0.161   0.169   0.221   0.249   0.251   0.256
  0.280   0.282   0.287   0.291   0.301   0.311   0.315   0.322
  0.324   0.324   0.335   0.359   0.361   0.382   0.391   0.392
  0.415   0.416   0.448   0.477   0.536   0.544   0.549   0.553
  0.574   0.609   0.629   0.633   0.663   0.697   0.701   0.714
  0.745   0.791   0.815   0.824   0.833   0.837   0.870   0.893
  0.913   0.925   0.930   0.945   0.966   0.986   0.991   1.004
  1.033   1.035   1.035   1.053   1.066   1.091   1.101   1.140
  1.177   1.180   1.195   1.233   1.247   1.285   1.302   1.338
  1.341   1.362   1.407   1.425   1.432   1.446   1.450   1.477
  1.528   1.532   1.578   1.581   1.582   1.618   1.666   1.673
  1.685   1.685   1.705   1.747   1.753   1.773   1.773   1.817
  1.832   1.862   1.866   1.953   2.018   2.051   2.133   2.161
  2.215   2.228   2.256   2.281   2.547   2.690   2.872   2.960
  2.977   3.046   3.046   3.075   3.085   3.087   3.131   3.146
  3.203   3.220   3.227   3.228   3.272   3.278   3.296   3.317
  3.321   3.388   3.398   3.492   3.533   3.546   3.566   3.586
  3.600   3.636   3.637   3.637   3.667   3.733   3.748   3.773
  3.793   3.798   3.812   3.886   3.898   3.950   3.977   3.979
  3.996   4.003   4.012   4.017   4.078   4.079   4.116   4.122
  4.136   4.186   4.206   4.231   4.254   4.265   4.425   4.448
  4.472   4.491   4.532   4.534   4.595   4.649   4.701   4.815
  4.820   4.852   4.895   4.951   4.982   5.011   5.054   5.140
  5.203   5.217   5.310   5.386   5.403   5.452   5.674   5.740
  5.860   5.982   6.056   6.213   6.260   6.646   9.047  17.430
 17.854  17.923  23.878  23.910  23.916  24.072  24.098  24.144
 24.468  24.832  25.108  27.556  27.631  27.746  27.899  28.279
 28.430  28.465  28.537  28.637  28.739  28.879  28.930  31.221
 31.228  31.233  31.235  31.241  31.272  31.274  41.195  41.238
 41.269  41.293  41.327  41.384  41.388  41.451  41.459  41.472
 41.474  41.486  41.494  41.514  41.537  41.545  41.560  41.656
 41.727  41.836 189.630
 
 Beta MOs
 -- Occupied --
-88.172 -10.006 -10.005  -9.995  -9.995  -7.811  -5.817  -5.812
 -5.807  -0.892  -0.726  -0.711  -0.520  -0.518  -0.479  -0.352
 -0.330  -0.321  -0.316  -0.266  -0.158  -0.126
 -- Virtual --
  0.153   0.153   0.162   0.169   0.222   0.250   0.250   0.257
  0.273   0.284   0.286   0.291   0.292   0.302   0.312   0.315
  0.323   0.324   0.338   0.361   0.364   0.364   0.383   0.394
  0.405   0.415   0.418   0.456   0.479   0.539   0.546   0.550
  0.557   0.589   0.610   0.637   0.650   0.668   0.703   0.704
  0.715   0.748   0.800   0.822   0.829   0.833   0.852   0.877
  0.915   0.919   0.932   0.949   0.949   0.969   0.989   0.997
  1.013   1.036   1.039   1.046   1.059   1.070   1.094   1.105
  1.143   1.188   1.189   1.200   1.241   1.248   1.290   1.306
  1.339   1.348   1.369   1.412   1.428   1.434   1.449   1.451
  1.482   1.529   1.539   1.585   1.586   1.589   1.626   1.668
  1.683   1.687   1.690   1.709   1.750   1.766   1.776   1.781
  1.820   1.836   1.868   1.871   1.954   2.023   2.054   2.136
  2.165   2.224   2.231   2.260   2.285   2.548   2.691   2.875
  2.962   2.985   3.051   3.056   3.085   3.089   3.091   3.136
  3.161   3.206   3.229   3.231   3.246   3.284   3.293   3.300
  3.330   3.330   3.393   3.412   3.502   3.540   3.553   3.572
  3.594   3.604   3.641   3.644   3.645   3.671   3.746   3.750
  3.788   3.796   3.807   3.816   3.900   3.905   3.962   3.984
  3.996   4.004   4.006   4.023   4.024   4.081   4.089   4.120
  4.131   4.141   4.190   4.214   4.238   4.256   4.268   4.429
  4.452   4.474   4.499   4.536   4.539   4.600   4.651   4.706
  4.816   4.822   4.854   4.905   4.953   4.983   5.013   5.064
  5.142   5.207   5.221   5.313   5.388   5.404   5.453   5.678
  5.744   5.861   5.983   6.058   6.215   6.262   6.647   9.049
 17.434  17.854  17.923  23.880  23.912  23.917  24.072  24.098
 24.147  24.472  24.835  25.110  27.562  27.643  27.756  27.903
 28.279  28.434  28.467  28.540  28.639  28.742  28.881  28.930
 31.221  31.228  31.234  31.235  31.242  31.272  31.274  41.200
 41.246  41.276  41.298  41.328  41.384  41.391  41.455  41.460
 41.477  41.478  41.494  41.503  41.516  41.544  41.551  41.561
 41.658  41.728  41.836 189.630
 --------------------------------------------------------------
 
          Ground-State Mulliken Net Atomic Charges

     Atom                 Charge (a.u.)    Spin (a.u.)
  --------------------------------------------------------
      1 S                    -0.444587       0.224088
      2 C                    -0.148788       0.386713
      3 C                    -0.149648       0.388600
      4 C                    -0.309046       0.037844
      5 C                    -0.311393       0.047990
      6 H                     0.087974      -0.038186
      7 H                     0.086249      -0.036937
      8 H                     0.094530      -0.004357
      9 H                     0.094709      -0.005755
  --------------------------------------------------------
  Sum of atomic charges =    -1.000000
  Sum of spin   charges =     1.000000

 -----------------------------------------------------------------
                    Cartesian Multipole Moments
 -----------------------------------------------------------------
    Charge (ESU x 10^10)
                -4.8032
    Dipole Moment (Debye)
         X      -4.0641      Y       0.0299      Z      -3.9258
       Tot       5.6507
    Quadrupole Moments (Debye-Ang)
        XX     -49.1274     XY       0.0483     YY     -47.3732
        XZ      -6.1978     YZ       0.1267     ZZ     -48.7068
    Octapole Moments (Debye-Ang^2)
       XXX    -125.2420    XXY       0.2139    XYY     -43.0380
       YYY       0.2506    XXZ     -44.4963    XYZ       0.4729
       YYZ     -41.8380    XZZ     -45.4101    YZZ       0.3650
       ZZZ    -121.2427
    Hexadecapole Moments (Debye-Ang^3)
      XXXX    -521.4927   XXXY       0.8722   XXYY    -115.6576
      XYYY       0.4030   YYYY     -78.8630   XXXZ    -134.3489
      XXYZ       1.5732   XYYZ     -47.6470   YYYZ       0.8647
      XXZZ    -180.9614   XYZZ       0.8072   YYZZ    -112.9211
      XZZZ    -133.3107   YZZZ       1.5851   ZZZZ    -505.9513
 -----------------------------------------------------------------
 Total job time:  431.80s(wall), 428.83s(cpu) 
 Wed May 22 11:46:49 2013

        *************************************************************
        *                                                           *
        *  Thank you very much for using Q-Chem.  Have a nice day.  *
        *                                                           *
        *************************************************************


0 sent ACK to 0 
now end server 0 ... 
 
**********************************************************************
Job 2 of 3 
**********************************************************************
 
Process 0 of 1 is on cl091.stfx.acenet.ca - thread support 1
initial socket setup ...start
initial socket setup ...done 
now start server 0 ... 

cmd = /usr/bin/ssh clhead /usr/local/qchem/bin/get_hostid 864364915 > /scratch/tmp/5998579.1.short.q/qchem31633/lic.dat
                  Welcome to Q-Chem
     A Quantum Leap Into The Future Of Chemistry

 Y. Shao, L. Fusti-Molnar, Y. Jung, J. Kussmann, C. Ochsenfeld,
 S. T. Brown, A. T. B. Gilbert, L. V. Slipchenko,S. V. Levchenko,
 D. P. O'Neill, R. A. DiStasio Jr., R. C. Lochan, T. Wang,
 G. J. O. Beran, N. A. Besley, J. M. Herbert, C. Y. Lin,
 T. Van Voorhis, S. H. Chien, A. Sodt, R. P. Steele, 
 V. A. Rassolov, P. E. Maslen, P. P. Korambath, R. D. Adamson,
 B. Austin, J. Baker, E. F. C. Byrd, H. Dachsel, R. J. Doerksen,
 A. Dreuw, B. D. Dunietz, A. D. Dutoi, T. R. Furlani,
 S. R. Gwaltney, A. Heyden, S. Hirata, C.-P. Hsu, G. Kedziora,
 R. Z. Khaliullin, P. Klunzinger, A. M. Lee, M. S. Lee, W. Liang,
 I. Lotan, N. Nair, B. Peters, E. I. Proynov, P. A. Pieniazek, 
 Y. M. Rhee, J. Ritchie, E. Rosta, C. D. Sherrill, 
 A. C. Simmonett, J. E. Subotnik, H. L. Woodcock III,
 W. Zhang, A. T. Bell, A. K. Chakraborty, D. M. Chipman,
 F. J. Keil, A. Warshel, W. J. Hehre, H. F. Schaefer III,
 J. Kong, A. I. Krylov, P. M. W. Gill, M. Head-Gordon,
 Q-Chem, Version 3.1, Q-Chem, Inc., Pittsburgh, PA (2007).

 Additional authors for Version 3.1: 
 Z. Gan, Y. Zhao, N. E. Schultz, D. Truhlar, E. Epifanovsky and M. Oana.

 Additional authors for Version 3.2: 
 R. Baer, B. R. Brooks, D. Casanova, J.-D. Chai, C.-L. Cheng, 
 C. Cramer, D. Crittenden, A. Ghysels, G. Hawkins, E. G. Hohenstein, 
 C. Kelley, W. Kurlancheek, D. Liotard, E. Livshits, P. Manohar, 
 A. Marenich, D. Neuhauser, R. Olson, M. A. Rohrdanz, K. S. Thanthiriwatte, 
 A. J. W. Thom, V. Vanovschi, C. F. Williams, Q. Wu and Z.-Q. You. 


 Intel X86 Linux Version

 Q-chem begins on Wed May 22 11:46:52 2013  

 Parallel job on  1  processors
Processing $rem in /usr/local/qchem/config/preferences.

theFileMan(): MAXOPENFILES=974 MAX_SUB_FILE_NUM=16
Maximum size of a physical file is 2.0 GB, maximum size of a tmp-file is 32.0 GB


--------------------------------------------------------------
User input:
--------------------------------------------------------------

$molecule
0,1
S          0.02132        0.00000        0.02065
C          0.00874        0.00000        1.72264
C          1.72227        0.00000       -0.03662
C          1.27432        0.00000        2.23274
C          2.26555        0.00000        1.21503
H         -0.92902        0.00000        2.26361
H          2.23827        0.00000       -0.98836
H          1.49097        0.00000        3.29599
H          3.33415        0.00000        1.40349
$end

$comment
neutral
$end

$xc_functional
C PBE   1.00
X wPBE  1.00
$end


$rem
SYMMETRY_DECOMPOSITION	0
LRC_DFT                 true
exchange 		general
BASIS                   g3large
omega			600
mem_static              760
max_scf_cycles          200
scf_final_print         1
sym_ignore              true
$end

--------------------------------------------------------------
 Writing REM_CC_EA            9
 ----------------------------------------------------
       Standard Nuclear Orientation (Angstroms)
    I     Atom         X            Y            Z
 ----------------------------------------------------
    1      S       0.021320     0.000000     0.020650
    2      C       0.008740     0.000000     1.722640
    3      C       1.722270     0.000000    -0.036620
    4      C       1.274320     0.000000     2.232740
    5      C       2.265550     0.000000     1.215030
    6      H      -0.929020     0.000000     2.263610
    7      H       2.238270     0.000000    -0.988360
    8      H       1.490970     0.000000     3.295990
    9      H       3.334150     0.000000     1.403490
 ----------------------------------------------------
 Nuclear Repulsion Energy =   203.8492968182 hartrees
 There are       22 alpha and       22 beta electrons
 Requested basis set is G3large
 There are 83 shells and 274 basis functions

Total QAlloc Memory Limit   2000 MB
Mega-Array Size       743 MB
MEM_STATIC part       760 MB

                       Distance Matrix (Angstroms)
             S (  1)   C (  2)   C (  3)   C (  4)   C (  5)   H (  6)
   C (  2)  1.702036
   C (  3)  1.701914  2.455846
   C (  4)  2.542312  1.364513  2.313148
   C (  5)  2.542265  2.313192  1.364471  1.420658
   H (  6)  2.435984  1.082609  3.510042  2.203556  3.362261
   H (  7)  2.435769  3.510032  1.082620  3.362244  2.203559  4.539497
   H (  8)  3.589948  2.161582  3.340627  1.085098  2.220443  2.631000
   H (  9)  3.589859  3.340690  2.161498  2.220485  1.085091  4.349072
             H (  7)   H (  8)
   H (  8)  4.349036
   H (  9)  2.630950  2.641755
 
 A cutoff of  1.0D-08 yielded   3145 shell pairs
 There are  34992 function pairs ( 45301 Cartesian)
Evaluating contribution to one-electron hamiltonian from nuclear
 Smallest overlap matrix eigenvalue = 5.57E-06

 Q-Chem warning in module mkSTV.C, line 194:

 Overlap eigenvalue is smaller than square root of threshold

 Multipole matrices computed through 2nd order

  Scale SEOQF with 1.000000e-01/1.000000e-01/1.000000e-01

 Standard Electronic Orientation quadrupole field applied
 Nucleus-field energy     =    -0.0000000053 hartrees
 Guess from superposition of atomic densities
 Warning:  Energy on first SCF cycle will be non-variational
 Long-range K will be added via erf
 Coulomb attenuation parameter = 0.6 bohr**(-1)
 A restricted Kohn-Sham SCF calculation will be
 performed using Pulay DIIS extrapolation
 Exchange:  wPBE + LR-HF      Correlation:  PBE
 Using SG-1 standard quadrature grid
 SCF converges when DIIS error is below 1.0E-05
 Requested basis set is G3large
 There are 83 shells and 274 basis functions
 A cutoff of  1.0D-08 yielded   3145 shell pairs
 There are  34992 function pairs ( 45301 Cartesian)
 ---------------------------------------
  Cycle       Energy         DIIS Error
 ---------------------------------------
    1    -554.8179384518      2.93E-02
    2    -552.7534423062      2.25E-03
    3    -552.8145358299      1.19E-03
    4    -552.8284914509      4.83E-04
    5    -552.8321243785      1.30E-04
    6    -552.8324615345      4.18E-05
    7    -552.8325108535      1.71E-05
    8    -552.8325190886      6.09E-06 Convergence criterion met
 ---------------------------------------
 One-Electron    Energy = -1162.0362880477
 Total Coulomb   Energy =   454.0400762455
 Alpha Exchange  Energy =    -6.1056371779
 Beta  Exchange  Energy =    -6.1056371779
 DFT   Exchange  Energy =   -34.9252229872
 DFT Correlation Energy =    -1.5491067563
 Nuclear Repu.   Energy =   203.8492968129
 Nuclear Attr.   Energy = -1713.4577773560
 Kinetic         Energy =   551.4214893083
 SCF time:  CPU 266.10 s  wall 267.35 s
 Final Alpha MO Eigenvalues
            1           2           3           4           5           6
    1 -88.3996725 -10.2436476 -10.2435703 -10.2213197 -10.2207501  -8.0384575
            7           8           9          10          11          12
    1  -6.0430886  -6.0377986  -6.0359400  -1.1185906  -0.9468806  -0.9381482
           13          14          15          16          17          18
    1  -0.7461811  -0.7348137  -0.6929068  -0.5689164  -0.5503790  -0.5466617
           19          20          21          22          23          24
    1  -0.5350835  -0.4867705  -0.3760291  -0.3645167   0.0404303   0.0465774
           25          26          27
    1   0.0555519   0.0658725   0.0674829
 Analysis of SCF Wavefunction
 
 --------------------------------------------------------------
                    Orbital Energies (a.u.)
 --------------------------------------------------------------
 
 Alpha MOs
 -- Occupied --
-88.400 -10.244 -10.244 -10.221 -10.221  -8.038  -6.043  -6.038
 -6.036  -1.119  -0.947  -0.938  -0.746  -0.735  -0.693  -0.569
 -0.550  -0.547  -0.535  -0.487  -0.376  -0.365
 -- Virtual --
  0.040   0.047   0.056   0.066   0.067   0.095   0.111   0.114
  0.115   0.126   0.142   0.147   0.157   0.162   0.177   0.184
  0.184   0.188   0.196   0.199   0.213   0.216   0.223   0.224
  0.251   0.260   0.273   0.275   0.311   0.371   0.371   0.386
  0.387   0.397   0.437   0.442   0.455   0.484   0.514   0.525
  0.532   0.556   0.601   0.626   0.640   0.646   0.650   0.689
  0.711   0.726   0.740   0.740   0.759   0.779   0.795   0.805
  0.810   0.843   0.854   0.859   0.860   0.873   0.893   0.907
  0.944   0.979   0.985   1.001   1.036   1.059   1.087   1.106
  1.139   1.141   1.163   1.204   1.225   1.244   1.244   1.261
  1.281   1.330   1.332   1.378   1.382   1.388   1.417   1.465
  1.468   1.485   1.485   1.511   1.548   1.552   1.572   1.580
  1.628   1.629   1.663   1.669   1.754   1.819   1.851   1.933
  1.960   2.004   2.026   2.052   2.078   2.333   2.480   2.668
  2.754   2.760   2.829   2.832   2.859   2.875   2.878   2.916
  2.929   2.989   3.003   3.011   3.018   3.055   3.062   3.081
  3.102   3.104   3.169   3.180   3.277   3.318   3.333   3.351
  3.371   3.383   3.423   3.424   3.427   3.453   3.518   3.535
  3.556   3.586   3.587   3.600   3.671   3.683   3.733   3.760
  3.763   3.779   3.790   3.796   3.802   3.861   3.867   3.903
  3.905   3.921   3.976   3.989   4.012   4.039   4.053   4.207
  4.231   4.267   4.278   4.321   4.321   4.385   4.434   4.490
  4.602   4.602   4.636   4.676   4.735   4.767   4.800   4.835
  4.928   4.979   4.994   5.092   5.170   5.188   5.241   5.460
  5.522   5.644   5.768   5.841   5.999   6.041   6.435   8.824
 17.205  17.628  17.697  23.651  23.684  23.690  23.846  23.870
 23.917  24.236  24.604  24.885  27.329  27.399  27.517  27.676
 28.059  28.192  28.234  28.302  28.410  28.510  28.649  28.714
 30.994  31.001  31.006  31.008  31.014  31.046  31.048  40.967
 41.006  41.031  41.056  41.106  41.159  41.168  41.221  41.233
 41.240  41.244  41.247  41.262  41.296  41.308  41.318  41.330
 41.420  41.497  41.616 189.403
 --------------------------------------------------------------
 
          Ground-State Mulliken Net Atomic Charges

     Atom                 Charge (a.u.)
  ----------------------------------------
      1 S                    -0.200796
      2 C                    -0.000987
      3 C                    -0.001531
      4 C                    -0.187294
      5 C                    -0.187114
      6 H                     0.146408
      7 H                     0.146360
      8 H                     0.142550
      9 H                     0.142402
  ----------------------------------------
  Sum of atomic charges =     0.000000

 -----------------------------------------------------------------
                    Cartesian Multipole Moments
 -----------------------------------------------------------------
    Charge (ESU x 10^10)
                 0.0000
    Dipole Moment (Debye)
         X       0.4335      Y       0.0004      Z       0.4220
       Tot       0.6050
    Quadrupole Moments (Debye-Ang)
        XX     -31.7178     XY       0.0008     YY     -40.1222
        XZ      -1.0617     YZ      -0.0003     ZZ     -31.6621
    Octapole Moments (Debye-Ang^2)
       XXX     -83.1496    XXY       0.0003    XYY     -36.2417
       YYY      -0.0005    XXZ     -26.4457    XYZ       0.0007
       YYZ     -35.2980    XZZ     -27.1980    YZZ       0.0010
       ZZZ     -81.0263
    Hexadecapole Moments (Debye-Ang^3)
      XXXX    -370.8073   XXXY       0.0029   XXYY     -88.2998
      XYYY       0.0002   YYYY     -49.4287   XXXZ     -86.4029
      XXYZ       0.0014   XYYZ     -36.9234   YYYZ      -0.0005
      XXZZ    -118.1636   XYZZ      -0.0002   YYZZ     -86.3538
      XZZZ     -86.7169   YZZZ      -0.0018   ZZZZ    -361.6839
 -----------------------------------------------------------------
 Total job time:  267.80s(wall), 266.52s(cpu) 
 Wed May 22 11:51:20 2013

        *************************************************************
        *                                                           *
        *  Thank you very much for using Q-Chem.  Have a nice day.  *
        *                                                           *
        *************************************************************


0 sent ACK to 0 
now end server 0 ... 
 
**********************************************************************
Job 3 of 3 
**********************************************************************
 
Process 0 of 1 is on cl091.stfx.acenet.ca - thread support 1
initial socket setup ...start
initial socket setup ...done 
now start server 0 ... 

cmd = /usr/bin/ssh clhead /usr/local/qchem/bin/get_hostid 823397072 > /scratch/tmp/5998579.1.short.q/qchem31633/lic.dat
                  Welcome to Q-Chem
     A Quantum Leap Into The Future Of Chemistry

 Y. Shao, L. Fusti-Molnar, Y. Jung, J. Kussmann, C. Ochsenfeld,
 S. T. Brown, A. T. B. Gilbert, L. V. Slipchenko,S. V. Levchenko,
 D. P. O'Neill, R. A. DiStasio Jr., R. C. Lochan, T. Wang,
 G. J. O. Beran, N. A. Besley, J. M. Herbert, C. Y. Lin,
 T. Van Voorhis, S. H. Chien, A. Sodt, R. P. Steele, 
 V. A. Rassolov, P. E. Maslen, P. P. Korambath, R. D. Adamson,
 B. Austin, J. Baker, E. F. C. Byrd, H. Dachsel, R. J. Doerksen,
 A. Dreuw, B. D. Dunietz, A. D. Dutoi, T. R. Furlani,
 S. R. Gwaltney, A. Heyden, S. Hirata, C.-P. Hsu, G. Kedziora,
 R. Z. Khaliullin, P. Klunzinger, A. M. Lee, M. S. Lee, W. Liang,
 I. Lotan, N. Nair, B. Peters, E. I. Proynov, P. A. Pieniazek, 
 Y. M. Rhee, J. Ritchie, E. Rosta, C. D. Sherrill, 
 A. C. Simmonett, J. E. Subotnik, H. L. Woodcock III,
 W. Zhang, A. T. Bell, A. K. Chakraborty, D. M. Chipman,
 F. J. Keil, A. Warshel, W. J. Hehre, H. F. Schaefer III,
 J. Kong, A. I. Krylov, P. M. W. Gill, M. Head-Gordon,
 Q-Chem, Version 3.1, Q-Chem, Inc., Pittsburgh, PA (2007).

 Additional authors for Version 3.1: 
 Z. Gan, Y. Zhao, N. E. Schultz, D. Truhlar, E. Epifanovsky and M. Oana.

 Additional authors for Version 3.2: 
 R. Baer, B. R. Brooks, D. Casanova, J.-D. Chai, C.-L. Cheng, 
 C. Cramer, D. Crittenden, A. Ghysels, G. Hawkins, E. G. Hohenstein, 
 C. Kelley, W. Kurlancheek, D. Liotard, E. Livshits, P. Manohar, 
 A. Marenich, D. Neuhauser, R. Olson, M. A. Rohrdanz, K. S. Thanthiriwatte, 
 A. J. W. Thom, V. Vanovschi, C. F. Williams, Q. Wu and Z.-Q. You. 


 Intel X86 Linux Version

 Q-chem begins on Wed May 22 11:51:24 2013  

 Parallel job on  1  processors
Processing $rem in /usr/local/qchem/config/preferences.

theFileMan(): MAXOPENFILES=974 MAX_SUB_FILE_NUM=16
Maximum size of a physical file is 2.0 GB, maximum size of a tmp-file is 32.0 GB


--------------------------------------------------------------
User input:
--------------------------------------------------------------

$molecule
1,2
S          0.02132        0.00000        0.02065
C          0.00874        0.00000        1.72264
C          1.72227        0.00000       -0.03662
C          1.27432        0.00000        2.23274
C          2.26555        0.00000        1.21503
H         -0.92902        0.00000        2.26361
H          2.23827        0.00000       -0.98836
H          1.49097        0.00000        3.29599
H          3.33415        0.00000        1.40349
$end

$comment
positive
$end

$xc_functional
C PBE   1.00
X wPBE  1.00
$end

$rem
SYMMETRY_DECOMPOSITION	0
LRC_DFT                 true
exchange 		general
BASIS                   g3large
omega			600
mem_static              760
max_scf_cycles          200
scf_final_print         1
sym_ignore              true
$end

--------------------------------------------------------------
 Writing REM_CC_EA            9
 ----------------------------------------------------
       Standard Nuclear Orientation (Angstroms)
    I     Atom         X            Y            Z
 ----------------------------------------------------
    1      S       0.021320     0.000000     0.020650
    2      C       0.008740     0.000000     1.722640
    3      C       1.722270     0.000000    -0.036620
    4      C       1.274320     0.000000     2.232740
    5      C       2.265550     0.000000     1.215030
    6      H      -0.929020     0.000000     2.263610
    7      H       2.238270     0.000000    -0.988360
    8      H       1.490970     0.000000     3.295990
    9      H       3.334150     0.000000     1.403490
 ----------------------------------------------------
 Nuclear Repulsion Energy =   203.8492968182 hartrees
 There are       22 alpha and       21 beta electrons
 Requested basis set is G3large
 There are 83 shells and 274 basis functions

Total QAlloc Memory Limit   2000 MB
Mega-Array Size       743 MB
MEM_STATIC part       760 MB

                       Distance Matrix (Angstroms)
             S (  1)   C (  2)   C (  3)   C (  4)   C (  5)   H (  6)
   C (  2)  1.702036
   C (  3)  1.701914  2.455846
   C (  4)  2.542312  1.364513  2.313148
   C (  5)  2.542265  2.313192  1.364471  1.420658
   H (  6)  2.435984  1.082609  3.510042  2.203556  3.362261
   H (  7)  2.435769  3.510032  1.082620  3.362244  2.203559  4.539497
   H (  8)  3.589948  2.161582  3.340627  1.085098  2.220443  2.631000
   H (  9)  3.589859  3.340690  2.161498  2.220485  1.085091  4.349072
             H (  7)   H (  8)
   H (  8)  4.349036
   H (  9)  2.630950  2.641755
 
 A cutoff of  1.0D-08 yielded   3145 shell pairs
 There are  34992 function pairs ( 45301 Cartesian)
Evaluating contribution to one-electron hamiltonian from nuclear
 Smallest overlap matrix eigenvalue = 5.57E-06

 Q-Chem warning in module mkSTV.C, line 194:

 Overlap eigenvalue is smaller than square root of threshold

 Multipole matrices computed through 2nd order

  Scale SEOQF with 1.000000e-01/1.000000e-01/1.000000e-01

 Standard Electronic Orientation quadrupole field applied
 Nucleus-field energy     =    -0.0000000053 hartrees
 Guess from superposition of atomic densities
 Warning:  Energy on first SCF cycle will be non-variational
 Long-range K will be added via erf
 Coulomb attenuation parameter = 0.6 bohr**(-1)
 An unrestricted Kohn-Sham SCF calculation will be
 performed using Pulay DIIS extrapolation
 Exchange:  wPBE + LR-HF      Correlation:  PBE
 Using SG-1 standard quadrature grid
 SCF converges when DIIS error is below 1.0E-05
 Requested basis set is G3large
 There are 83 shells and 274 basis functions
 A cutoff of  1.0D-08 yielded   3145 shell pairs
 There are  34992 function pairs ( 45301 Cartesian)
 Warning!  Inaccurate integrated density:
   Number of electrons =    43
   Numerical integral  =    44.000380800378
   Relative error      =     2.3264669776 %
 ---------------------------------------
  Cycle       Energy         DIIS Error
 ---------------------------------------
    1    -554.8179384518      2.93E-02
    2    -552.3882847128      2.37E-03
    3    -552.4775918331      1.21E-03
    4    -552.4944158267      3.80E-04
    5    -552.4991469010      1.23E-04
    6    -552.4999698175      5.51E-05
    7    -552.5002571710      2.77E-05
    8    -552.5003461360      1.46E-05
    9    -552.5003766864      7.85E-06 Convergence criterion met
 ---------------------------------------
 One-Electron    Energy = -1151.4211346352
 Total Coulomb   Energy =   443.4778191444
 Alpha Exchange  Energy =    -6.1354084969
 Beta  Exchange  Energy =    -5.8877570839
 DFT   Exchange  Energy =   -34.8749934390
 DFT Correlation Energy =    -1.5081989887
 Nuclear Repu.   Energy =   203.8492968129
 Nuclear Attr.   Energy = -1702.7423083439
 Kinetic         Energy =   551.3211737086
 <S^2> = 0.7930
 SCF time:  CPU 377.23 s  wall 379.20 s
 Final Alpha MO Eigenvalues
            1           2           3           4           5           6
    1 -88.6305216 -10.5213245 -10.5166722 -10.4708018 -10.4631506  -8.2693984
            7           8           9          10          11          12
    1  -6.2746488  -6.2685079  -6.2660539  -1.3758864  -1.2048017  -1.1840328
           13          14          15          16          17          18
    1  -0.9928802  -0.9768035  -0.9267371  -0.8147379  -0.8109712  -0.7863507
           19          20          21          22          23          24
    1  -0.7733829  -0.7142584  -0.6501374  -0.5991945  -0.1800285  -0.0897993
           25          26          27
    1  -0.0890446  -0.0875337  -0.0661830
 Final Beta MO Eigenvalues
            1           2           3           4           5           6
    1 -88.6311595 -10.5138117 -10.5089545 -10.4695921 -10.4633913  -8.2699826
            7           8           9          10          11          12
    1  -6.2752569  -6.2690739  -6.2673030  -1.3597097  -1.1839046  -1.1684838
           13          14          15          16          17          18
    1  -0.9807060  -0.9677937  -0.9249885  -0.8082629  -0.7841996  -0.7691203
           19          20          21          22          23          24
    1  -0.7408799  -0.7133164  -0.6062275  -0.3007594  -0.1150457  -0.0892595
           25          26
    1  -0.0855280  -0.0646556
 Analysis of SCF Wavefunction
 
 --------------------------------------------------------------
                    Orbital Energies (a.u.)
 --------------------------------------------------------------
 
 Alpha MOs
 -- Occupied --
-88.631 -10.521 -10.517 -10.471 -10.463  -8.269  -6.275  -6.269
 -6.266  -1.376  -1.205  -1.184  -0.993  -0.977  -0.927  -0.815
 -0.811  -0.786  -0.773  -0.714  -0.650  -0.599
 -- Virtual --
 -0.180  -0.090  -0.089  -0.088  -0.066  -0.062  -0.048  -0.042
 -0.041  -0.035  -0.005  -0.001   0.013   0.015   0.025   0.034
  0.042   0.045   0.047   0.050   0.060   0.062   0.063   0.083
  0.087   0.108   0.132   0.133   0.134   0.172   0.174   0.190
  0.224   0.227   0.235   0.260   0.275   0.298   0.325   0.337
  0.344   0.351   0.392   0.414   0.429   0.438   0.443   0.489
  0.494   0.512   0.519   0.533   0.560   0.579   0.581   0.585
  0.612   0.617   0.646   0.656   0.660   0.670   0.682   0.699
  0.732   0.752   0.771   0.791   0.820   0.856   0.874   0.896
  0.922   0.938   0.950   0.983   1.016   1.026   1.041   1.059
  1.069   1.102   1.117   1.166   1.170   1.183   1.194   1.238
  1.248   1.264   1.265   1.295   1.323   1.331   1.350   1.373
  1.408   1.425   1.438   1.454   1.544   1.600   1.636   1.710
  1.742   1.784   1.799   1.827   1.853   2.104   2.260   2.439
  2.501   2.524   2.574   2.586   2.601   2.635   2.648   2.659
  2.661   2.734   2.743   2.759   2.781   2.792   2.800   2.835
  2.847   2.853   2.925   2.927   3.024   3.072   3.088   3.108
  3.126   3.140   3.171   3.183   3.187   3.216   3.265   3.294
  3.300   3.342   3.354   3.361   3.413   3.446   3.475   3.516
  3.528   3.529   3.537   3.554   3.560   3.618   3.630   3.657
  3.672   3.684   3.738   3.742   3.768   3.800   3.817   3.969
  3.991   4.029   4.041   4.080   4.090   4.148   4.199   4.256
  4.360   4.366   4.393   4.413   4.491   4.532   4.556   4.585
  4.689   4.746   4.757   4.853   4.936   4.948   5.010   5.217
  5.281   5.409   5.531   5.602   5.763   5.802   6.201   8.595
 16.976  17.398  17.467  23.414  23.453  23.459  23.610  23.632
 23.668  23.976  24.345  24.632  27.063  27.123  27.252  27.421
 27.810  27.923  27.969  28.037  28.150  28.255  28.390  28.468
 30.762  30.771  30.775  30.777  30.784  30.815  30.817  40.699
 40.732  40.762  40.790  40.853  40.902  40.921  40.951  40.960
 40.966  40.971  40.984  41.007  41.047  41.050  41.064  41.072
 41.154  41.239  41.367 189.173
 
 Beta MOs
 -- Occupied --
-88.631 -10.514 -10.509 -10.470 -10.463  -8.270  -6.275  -6.269
 -6.267  -1.360  -1.184  -1.168  -0.981  -0.968  -0.925  -0.808
 -0.784  -0.769  -0.741  -0.713  -0.606
 -- Virtual --
 -0.301  -0.115  -0.089  -0.086  -0.065  -0.062  -0.054  -0.047
 -0.040  -0.039  -0.034  -0.001   0.003   0.014   0.015   0.026
  0.035   0.044   0.046   0.052   0.056   0.061   0.066   0.070
  0.083   0.087   0.111   0.132   0.133   0.135   0.180   0.183
  0.192   0.225   0.237   0.238   0.264   0.276   0.299   0.325
  0.339   0.346   0.359   0.402   0.423   0.438   0.451   0.457
  0.498   0.502   0.524   0.535   0.542   0.562   0.583   0.589
  0.590   0.617   0.633   0.650   0.664   0.666   0.673   0.687
  0.704   0.735   0.768   0.777   0.793   0.826   0.860   0.877
  0.897   0.925   0.939   0.951   0.989   1.019   1.027   1.044
  1.059   1.073   1.117   1.118   1.167   1.173   1.185   1.202
  1.247   1.249   1.267   1.269   1.302   1.335   1.335   1.357
  1.376   1.412   1.429   1.448   1.459   1.546   1.607   1.641
  1.716   1.745   1.784   1.805   1.832   1.860   2.107   2.261
  2.445   2.518   2.527   2.590   2.594   2.622   2.642   2.652
  2.677   2.685   2.752   2.764   2.769   2.788   2.813   2.822
  2.842   2.866   2.866   2.931   2.944   3.041   3.081   3.098
  3.115   3.137   3.145   3.187   3.191   3.195   3.219   3.283
  3.300   3.319   3.354   3.360   3.368   3.435   3.449   3.498
  3.524   3.533   3.542   3.557   3.558   3.566   3.625   3.634
  3.667   3.677   3.688   3.743   3.750   3.775   3.803   3.821
  3.973   3.995   4.042   4.044   4.088   4.094   4.156   4.201
  4.262   4.363   4.368   4.397   4.432   4.495   4.533   4.568
  4.596   4.692   4.748   4.760   4.856   4.937   4.950   5.011
  5.223   5.285   5.410   5.532   5.605   5.765   5.804   6.202
  8.595  16.974  17.398  17.466  23.414  23.452  23.458  23.610
 23.633  23.670  23.981  24.349  24.635  27.076  27.140  27.263
 27.427  27.811  27.928  27.973  28.041  28.154  28.257  28.393
 28.469  30.762  30.770  30.775  30.777  30.784  30.814  30.817
 40.712  40.748  40.767  40.793  40.856  40.905  40.922  40.962
 40.973  40.979  40.984  40.988  41.011  41.050  41.055  41.067
 41.073  41.157  41.241  41.367 189.172
 --------------------------------------------------------------
 
          Ground-State Mulliken Net Atomic Charges

     Atom                 Charge (a.u.)    Spin (a.u.)
  --------------------------------------------------------
      1 S                    -0.132410      -0.083279
      2 C                     0.270008       0.524915
      3 C                     0.272418       0.539574
      4 C                    -0.096874       0.085493
      5 C                    -0.127015      -0.018867
      6 H                     0.209368      -0.019867
      7 H                     0.208095      -0.020862
      8 H                     0.199354      -0.005719
      9 H                     0.197055      -0.001388
  --------------------------------------------------------
  Sum of atomic charges =     1.000000
  Sum of spin   charges =     1.000000

 -----------------------------------------------------------------
                    Cartesian Multipole Moments
 -----------------------------------------------------------------
    Charge (ESU x 10^10)
                 4.8032
    Dipole Moment (Debye)
         X       5.1791      Y      -0.0001      Z       5.1872
       Tot       7.3301
    Quadrupole Moments (Debye-Ang)
        XX     -16.7753     XY       0.0001     YY     -35.1820
        XZ       2.3008     YZ       0.0000     ZZ     -16.3041
    Octapole Moments (Debye-Ang^2)
       XXX     -47.4869    XXY      -0.0002    XYY     -31.6067
       YYY      -0.0002    XXZ     -14.7555    XYZ       0.0009
       YYZ     -30.6612    XZZ     -14.8569    YZZ      -0.0003
       ZZZ     -44.5947
    Hexadecapole Moments (Debye-Ang^3)
      XXXX    -254.1075   XXXY      -0.0004   XXYY     -74.9980
      XYYY      -0.0004   YYYY     -37.9062   XXXZ     -58.1546
      XXYZ      -0.0001   XYYZ     -33.7593   YYYZ       0.0002
      XXZZ     -81.2205   XYZZ       0.0036   YYZZ     -72.6250
      XZZZ     -56.7936   YZZZ       0.0012   ZZZZ    -243.0288
 -----------------------------------------------------------------
 Total job time:  379.63s(wall), 377.65s(cpu) 
 Wed May 22 11:57:44 2013

        *************************************************************
        *                                                           *
        *  Thank you very much for using Q-Chem.  Have a nice day.  *
        *                                                           *
        *************************************************************


0 sent ACK to 0 
now end server 0 ... 
