Process 0 of 1 is on cl239.stfx.acenet.ca - thread support 1
initial socket setup ...start
initial socket setup ...done 
now start server 0 ... 

cmd = /usr/bin/ssh clhead /usr/local/qchem/bin/get_hostid 1601834914 > /globalscratch/itamblyn/bnl/g297_b3lyp_neut_g03Large_worked/g2g71042/omega600/qchem10750/lic.dat
                  Welcome to Q-Chem
     A Quantum Leap Into The Future Of Chemistry

 Y. Shao, L. Fusti-Molnar, Y. Jung, J. Kussmann, C. Ochsenfeld,
 S. T. Brown, A. T. B. Gilbert, L. V. Slipchenko,S. V. Levchenko,
 D. P. O'Neill, R. A. DiStasio Jr., R. C. Lochan, T. Wang,
 G. J. O. Beran, N. A. Besley, J. M. Herbert, C. Y. Lin,
 T. Van Voorhis, S. H. Chien, A. Sodt, R. P. Steele, 
 V. A. Rassolov, P. E. Maslen, P. P. Korambath, R. D. Adamson,
 B. Austin, J. Baker, E. F. C. Byrd, H. Dachsel, R. J. Doerksen,
 A. Dreuw, B. D. Dunietz, A. D. Dutoi, T. R. Furlani,
 S. R. Gwaltney, A. Heyden, S. Hirata, C.-P. Hsu, G. Kedziora,
 R. Z. Khaliullin, P. Klunzinger, A. M. Lee, M. S. Lee, W. Liang,
 I. Lotan, N. Nair, B. Peters, E. I. Proynov, P. A. Pieniazek, 
 Y. M. Rhee, J. Ritchie, E. Rosta, C. D. Sherrill, 
 A. C. Simmonett, J. E. Subotnik, H. L. Woodcock III,
 W. Zhang, A. T. Bell, A. K. Chakraborty, D. M. Chipman,
 F. J. Keil, A. Warshel, W. J. Hehre, H. F. Schaefer III,
 J. Kong, A. I. Krylov, P. M. W. Gill, M. Head-Gordon,
 Q-Chem, Version 3.1, Q-Chem, Inc., Pittsburgh, PA (2007).

 Additional authors for Version 3.1: 
 Z. Gan, Y. Zhao, N. E. Schultz, D. Truhlar, E. Epifanovsky and M. Oana.

 Additional authors for Version 3.2: 
 R. Baer, B. R. Brooks, D. Casanova, J.-D. Chai, C.-L. Cheng, 
 C. Cramer, D. Crittenden, A. Ghysels, G. Hawkins, E. G. Hohenstein, 
 C. Kelley, W. Kurlancheek, D. Liotard, E. Livshits, P. Manohar, 
 A. Marenich, D. Neuhauser, R. Olson, M. A. Rohrdanz, K. S. Thanthiriwatte, 
 A. J. W. Thom, V. Vanovschi, C. F. Williams, Q. Wu and Z.-Q. You. 


 Intel X86 Linux Version

 Q-chem begins on Tue Apr 12 21:01:28 2011  

 Parallel job on  1  processors
Processing $rem in /usr/local/qchem/config/preferences.

theFileMan(): MAXOPENFILES=974 MAX_SUB_FILE_NUM=16
Maximum size of a physical file is 2.0 GB, maximum size of a tmp-file is 32.0 GB


--------------------------------------------------------------
User input:
--------------------------------------------------------------

$molecule
-1,2
S
S,1,R

R=1.92739053

$end

$comment
negative
$end

$xc_functional
   X HF 1.0
   X BNL 1.0
   C LYP 1.0
$end

$rem
SYMMETRY_DECOMPOSITION	0
exchange 		general
BASIS                   g3large
omega			600
separate_jk		true
mem_static              760
max_scf_cycles          200
scf_final_print         1
sym_ignore              true
$end

--------------------------------------------------------------
 Writing REM_CC_EA            2
 ----------------------------------------------------
       Standard Nuclear Orientation (Angstroms)
    I     Atom         X            Y            Z
 ----------------------------------------------------
    1      S       0.000000     0.000000     0.000000
    2      S       0.000000     0.000000     1.927391
 ----------------------------------------------------
 Nuclear Repulsion Energy =    70.2864125647 hartrees
 There are       17 alpha and       16 beta electrons
 Requested basis set is G3large
 There are 38 shells and 132 basis functions

Total QAlloc Memory Limit   2000 MB
Mega-Array Size       743 MB
MEM_STATIC part       760 MB

                       Distance Matrix (Angstroms)
             S (  1)
   S (  2)  1.927391
 
 A cutoff of  1.0D-08 yielded    673 shell pairs
 There are   8434 function pairs ( 12149 Cartesian)
Evaluating contribution to one-electron hamiltonian from nuclear
 Smallest overlap matrix eigenvalue = 9.12E-04
 Multipole matrices computed through 2nd order

  Scale SEOQF with 1.000000e-01/1.000000e-01/1.000000e-01

 Standard Electronic Orientation quadrupole field applied
 Nucleus-field energy     =    -0.0000000064 hartrees
 Guess from superposition of atomic densities
 Warning:  Energy on first SCF cycle will be non-variational
 An unrestricted hybrid HF-DFT SCF calculation will be
 performed using Pulay DIIS extrapolation
 Exchange:     1.0000 Hartree-Fock + 1.0000 BNL
 Correlation:  1.0000 LYP
 Using SG-1 standard quadrature grid
 SCF converges when DIIS error is below 1.0E-05
 Warning!  Inaccurate integrated density:
   Number of electrons =    33
   Numerical integral  =    32.000061255662
   Relative error      =    -3.0301174071 %
 ---------------------------------------
  Cycle       Energy         DIIS Error
 ---------------------------------------
    1    -793.1565551174      2.96E-02
    2    -793.1514381592      2.35E-03
    3    -793.1753647574      1.15E-03
    4    -793.1778235817      2.94E-04
    5    -793.1782418272      9.08E-05
    6    -793.1783552501      2.64E-05
    7    -793.1783678589      7.12E-06 Convergence criterion met
 ---------------------------------------
 One-Electron    Energy = -1247.7004249227
 Total Coulomb   Energy =   432.4676808339
 Alpha Exchange  Energy =    -4.8922727089
 Beta  Exchange  Energy =    -4.6230364756
 DFT   Exchange  Energy =   -37.3792523245
 DFT Correlation Energy =    -1.3374748195
 Nuclear Repu.   Energy =    70.2864125583
 Nuclear Attr.   Energy = -2039.4674458377
 Kinetic         Energy =   791.7670209150
 <S^2> = 0.7649
 SCF time:  CPU 33.41 s  wall 50.83 s
 Final Alpha MO Eigenvalues
            1           2           3           4           5           6
    1 -87.7821395 -87.7821371  -7.7303259  -7.7301217  -5.7692111  -5.7687393
            7           8           9          10          11          12
    1  -5.7687117  -5.7685049  -5.7587930  -5.7587635  -0.7757927  -0.5472956
           13          14          15          16          17          18
    1  -0.2721827  -0.2717365  -0.2467926  -0.1249018  -0.0943556   0.2009169
           19          20          21          22
    1   0.2237849   0.2406880   0.2445465   0.2641725
 Final Beta MO Eigenvalues
            1           2           3           4           5           6
    1 -87.7790799 -87.7790762  -7.7271242  -7.7268612  -5.7671846  -5.7664674
            7           8           9          10          11          12
    1  -5.7615332  -5.7614765  -5.7561301  -5.7560991  -0.7572529  -0.5035410
           13          14          15          16          17          18
    1  -0.2581102  -0.2408770  -0.1922366  -0.0851334   0.1793772   0.2006797
           19          20          21
    1   0.2230331   0.2414495   0.2449181
 Analysis of SCF Wavefunction
 
 --------------------------------------------------------------
                    Orbital Energies (a.u.)
 --------------------------------------------------------------
 
 Alpha MOs
 -- Occupied --
-87.782 -87.782  -7.730  -7.730  -5.769  -5.769  -5.769  -5.769
 -5.759  -5.759  -0.776  -0.547  -0.272  -0.272  -0.247  -0.125
 -0.094
 -- Virtual --
  0.201   0.224   0.241   0.245   0.264   0.267   0.281   0.325
  0.364   0.495   0.495   0.513   0.527   0.563   0.597   0.627
  0.628   0.684   0.696   0.698   0.710   0.753   0.821   0.834
  0.866   1.007   1.167   1.168   1.178   1.179   1.179   1.194
  1.266   1.327   1.327   1.359   1.361   1.385   1.386   1.398
  1.405   1.421   1.481   1.574   1.574   1.636   1.653   1.694
  1.700   1.710   1.783   2.118   2.138   2.358   2.376   2.471
  2.701   3.724   3.863   3.864   3.891   3.897   3.898   3.905
  3.905   3.908   3.949   3.949   4.059   4.076   4.153   4.869
  4.895   4.906   4.907   4.910   4.945   4.947   5.108   5.121
  5.856   8.628   8.658  17.383  17.393  17.491  17.502  17.646
 17.736  23.781  23.797  23.816  23.904  23.909  23.912  23.927
 24.000  24.008  24.231  31.283  31.294  31.296  31.299  31.300
 31.302  31.302  31.304  31.308  31.308  31.310  31.312  31.319
 31.337 189.774 189.796
 
 Beta MOs
 -- Occupied --
-87.779 -87.779  -7.727  -7.727  -5.767  -5.766  -5.762  -5.761
 -5.756  -5.756  -0.757  -0.504  -0.258  -0.241  -0.192  -0.085
 -- Virtual --
  0.179   0.201   0.223   0.241   0.245   0.267   0.279   0.280
  0.325   0.372   0.506   0.507   0.528   0.540   0.567   0.601
  0.651   0.651   0.700   0.703   0.712   0.718   0.758   0.835
  0.835   0.872   1.011   1.175   1.175   1.183   1.183   1.191
  1.196   1.275   1.337   1.337   1.379   1.379   1.402   1.403
  1.404   1.421   1.424   1.487   1.581   1.581   1.650   1.655
  1.706   1.707   1.713   1.789   2.138   2.143   2.374   2.380
  2.473   2.705   3.734   3.885   3.885   3.906   3.911   3.911
  3.912   3.926   3.926   3.963   3.963   4.075   4.081   4.162
  4.874   4.903   4.909   4.914   4.917   4.954   4.956   5.117
  5.123   5.862   8.634   8.664  17.392  17.397  17.501  17.506
 17.648  17.738  23.785  23.804  23.822  23.910  23.914  23.915
 23.933  24.006  24.010  24.234  31.285  31.297  31.298  31.302
 31.303  31.304  31.305  31.306  31.310  31.310  31.311  31.314
 31.320  31.338 189.777 189.799
 --------------------------------------------------------------
 
          Ground-State Mulliken Net Atomic Charges

     Atom                 Charge (a.u.)    Spin (a.u.)
  --------------------------------------------------------
      1 S                    -0.499999       0.499999
      2 S                    -0.500001       0.500001
  --------------------------------------------------------
  Sum of atomic charges =    -1.000000
  Sum of spin   charges =     1.000000

 -----------------------------------------------------------------
                    Cartesian Multipole Moments
 -----------------------------------------------------------------
    Charge (ESU x 10^10)
                -4.8032
    Dipole Moment (Debye)
         X       0.0000      Y       0.0000      Z      -4.6288
       Tot       4.6288
    Quadrupole Moments (Debye-Ang)
        XX     -32.1216     XY       1.4975     YY     -32.1501
        XZ      -0.0022     YZ      -0.0014     ZZ     -40.9765
    Octapole Moments (Debye-Ang^2)
       XXX       0.0000    XXY       0.0000    XYY       0.0000
       YYY       0.0000    XXZ     -30.9555    XYZ       1.4431
       YYZ     -30.9829    XZZ      -0.0042    YZZ      -0.0026
       ZZZ    -109.8689
    Hexadecapole Moments (Debye-Ang^3)
      XXXX     -56.5198   XXXY       2.6850   XXYY     -18.8565
      XYYY       2.6850   YYYY     -56.6220   XXXZ      -0.0055
      XXYZ      -0.0003   XYYZ      -0.0018   YYYZ      -0.0005
      XXZZ     -81.6419   XYZZ       5.5353   YYZZ     -81.7472
      XZZZ      -0.0154   YZZZ      -0.0120   ZZZZ    -430.4537
 -----------------------------------------------------------------
 Total job time:  52.48s(wall), 33.59s(cpu) 
 Tue Apr 12 21:02:20 2011

        *************************************************************
        *                                                           *
        *  Thank you very much for using Q-Chem.  Have a nice day.  *
        *                                                           *
        *************************************************************


0 sent ACK to 0 
now end server 0 ... 
 
**********************************************************************
Job 2 of 3 
**********************************************************************
 
Process 0 of 1 is on cl239.stfx.acenet.ca - thread support 1
initial socket setup ...start
initial socket setup ...done 
now start server 0 ... 

cmd = /usr/bin/ssh clhead /usr/local/qchem/bin/get_hostid 1753408493 > /globalscratch/itamblyn/bnl/g297_b3lyp_neut_g03Large_worked/g2g71042/omega600/qchem10750/lic.dat
                  Welcome to Q-Chem
     A Quantum Leap Into The Future Of Chemistry

 Y. Shao, L. Fusti-Molnar, Y. Jung, J. Kussmann, C. Ochsenfeld,
 S. T. Brown, A. T. B. Gilbert, L. V. Slipchenko,S. V. Levchenko,
 D. P. O'Neill, R. A. DiStasio Jr., R. C. Lochan, T. Wang,
 G. J. O. Beran, N. A. Besley, J. M. Herbert, C. Y. Lin,
 T. Van Voorhis, S. H. Chien, A. Sodt, R. P. Steele, 
 V. A. Rassolov, P. E. Maslen, P. P. Korambath, R. D. Adamson,
 B. Austin, J. Baker, E. F. C. Byrd, H. Dachsel, R. J. Doerksen,
 A. Dreuw, B. D. Dunietz, A. D. Dutoi, T. R. Furlani,
 S. R. Gwaltney, A. Heyden, S. Hirata, C.-P. Hsu, G. Kedziora,
 R. Z. Khaliullin, P. Klunzinger, A. M. Lee, M. S. Lee, W. Liang,
 I. Lotan, N. Nair, B. Peters, E. I. Proynov, P. A. Pieniazek, 
 Y. M. Rhee, J. Ritchie, E. Rosta, C. D. Sherrill, 
 A. C. Simmonett, J. E. Subotnik, H. L. Woodcock III,
 W. Zhang, A. T. Bell, A. K. Chakraborty, D. M. Chipman,
 F. J. Keil, A. Warshel, W. J. Hehre, H. F. Schaefer III,
 J. Kong, A. I. Krylov, P. M. W. Gill, M. Head-Gordon,
 Q-Chem, Version 3.1, Q-Chem, Inc., Pittsburgh, PA (2007).

 Additional authors for Version 3.1: 
 Z. Gan, Y. Zhao, N. E. Schultz, D. Truhlar, E. Epifanovsky and M. Oana.

 Additional authors for Version 3.2: 
 R. Baer, B. R. Brooks, D. Casanova, J.-D. Chai, C.-L. Cheng, 
 C. Cramer, D. Crittenden, A. Ghysels, G. Hawkins, E. G. Hohenstein, 
 C. Kelley, W. Kurlancheek, D. Liotard, E. Livshits, P. Manohar, 
 A. Marenich, D. Neuhauser, R. Olson, M. A. Rohrdanz, K. S. Thanthiriwatte, 
 A. J. W. Thom, V. Vanovschi, C. F. Williams, Q. Wu and Z.-Q. You. 


 Intel X86 Linux Version

 Q-chem begins on Tue Apr 12 21:02:25 2011  

 Parallel job on  1  processors
Processing $rem in /usr/local/qchem/config/preferences.

theFileMan(): MAXOPENFILES=974 MAX_SUB_FILE_NUM=16
Maximum size of a physical file is 2.0 GB, maximum size of a tmp-file is 32.0 GB


--------------------------------------------------------------
User input:
--------------------------------------------------------------

$molecule
0,3
S
S,1,R

R=1.92739053

$end

$comment
neutral
$end

$xc_functional
   X HF 1.0
   X BNL 1.0
   C LYP 1.0
$end

$rem
SYMMETRY_DECOMPOSITION	0
exchange 		general
BASIS                   g3large
omega			600
separate_jk		true
mem_static              760
max_scf_cycles          200
scf_final_print         1
sym_ignore              true
$end

--------------------------------------------------------------
 Writing REM_CC_EA            2
 ----------------------------------------------------
       Standard Nuclear Orientation (Angstroms)
    I     Atom         X            Y            Z
 ----------------------------------------------------
    1      S       0.000000     0.000000     0.000000
    2      S       0.000000     0.000000     1.927391
 ----------------------------------------------------
 Nuclear Repulsion Energy =    70.2864125647 hartrees
 There are       17 alpha and       15 beta electrons
 Requested basis set is G3large
 There are 38 shells and 132 basis functions

Total QAlloc Memory Limit   2000 MB
Mega-Array Size       743 MB
MEM_STATIC part       760 MB

                       Distance Matrix (Angstroms)
             S (  1)
   S (  2)  1.927391
 
 A cutoff of  1.0D-08 yielded    673 shell pairs
 There are   8434 function pairs ( 12149 Cartesian)
Evaluating contribution to one-electron hamiltonian from nuclear
 Smallest overlap matrix eigenvalue = 9.12E-04
 Multipole matrices computed through 2nd order

  Scale SEOQF with 1.000000e-01/1.000000e-01/1.000000e-01

 Standard Electronic Orientation quadrupole field applied
 Nucleus-field energy     =    -0.0000000064 hartrees
 Guess from superposition of atomic densities
 Warning:  Energy on first SCF cycle will be non-variational
 An unrestricted hybrid HF-DFT SCF calculation will be
 performed using Pulay DIIS extrapolation
 Exchange:     1.0000 Hartree-Fock + 1.0000 BNL
 Correlation:  1.0000 LYP
 Using SG-1 standard quadrature grid
 SCF converges when DIIS error is below 1.0E-05
 ---------------------------------------
  Cycle       Energy         DIIS Error
 ---------------------------------------
    1    -793.1565551174      2.96E-02
    2    -793.0932182626      2.29E-03
    3    -793.1099007753      1.21E-03
    4    -793.1127765576      1.60E-04
    5    -793.1134223709      4.94E-05
    6    -793.1135320948      1.63E-05
    7    -793.1135480429      8.36E-06 Convergence criterion met
 ---------------------------------------
 One-Electron    Energy = -1238.9566741497
 Total Coulomb   Energy =   423.5091848015
 Alpha Exchange  Energy =    -4.9382150279
 Beta  Exchange  Energy =    -4.3884273426
 DFT   Exchange  Energy =   -37.3197529217
 DFT Correlation Energy =    -1.3060759607
 Nuclear Repu.   Energy =    70.2864125583
 Nuclear Attr.   Energy = -2030.4298092471
 Kinetic         Energy =   791.4731350974
 <S^2> = 2.0294
 SCF time:  CPU 33.57 s  wall 45.73 s
 Final Alpha MO Eigenvalues
            1           2           3           4           5           6
    1 -88.0688799 -88.0688681  -8.0138763  -8.0136702  -6.0505407  -6.0498567
            7           8           9          10          11          12
    1  -6.0497087  -6.0496997  -6.0496837  -6.0496808  -1.0478531  -0.8279263
           13          14          15          16          17          18
    1  -0.5355682  -0.5299148  -0.5299102  -0.3848779  -0.3848705   0.0479918
           19          20          21          22
    1   0.0711649   0.0921813   0.0921844   0.1108551
 Final Beta MO Eigenvalues
            1           2           3           4           5           6
    1 -88.0621910 -88.0621775  -8.0069036  -8.0065673  -6.0461370  -6.0454184
            7           8           9          10          11          12
    1  -6.0389578  -6.0389565  -6.0388998  -6.0388984  -1.0098280  -0.7378193
           13          14          15          16          17          18
    1  -0.5078232  -0.4400528  -0.4400398  -0.0484349  -0.0484330   0.0525063
           19          20
    1   0.0694075   0.0924721
 Analysis of SCF Wavefunction
 
 --------------------------------------------------------------
                    Orbital Energies (a.u.)
 --------------------------------------------------------------
 
 Alpha MOs
 -- Occupied --
-88.069 -88.069  -8.014  -8.014  -6.051  -6.050  -6.050  -6.050
 -6.050  -6.050  -1.048  -0.828  -0.536  -0.530  -0.530  -0.385
 -0.385
 -- Virtual --
  0.048   0.071   0.092   0.092   0.111   0.124   0.124   0.132
  0.183   0.259   0.259   0.283   0.283   0.348   0.389   0.389
  0.400   0.473   0.473   0.489   0.489   0.539   0.602   0.602
  0.636   0.767   0.926   0.926   0.938   0.938   0.938   0.938
  1.016   1.083   1.083   1.087   1.087   1.117   1.118   1.157
  1.160   1.160   1.240   1.331   1.331   1.388   1.388   1.443
  1.460   1.460   1.540   1.866   1.866   2.108   2.108   2.213
  2.446   3.454   3.579   3.579   3.619   3.619   3.620   3.620
  3.628   3.628   3.672   3.672   3.794   3.794   3.880   4.596
  4.624   4.625   4.625   4.626   4.662   4.665   4.838   4.838
  5.582   8.348   8.380  17.103  17.103  17.212  17.212  17.366
 17.456  23.499  23.511  23.529  23.622  23.625  23.625  23.641
 23.721  23.721  23.949  31.003  31.010  31.010  31.015  31.015
 31.019  31.020  31.024  31.024  31.025  31.026  31.034  31.034
 31.055 189.488 189.510
 
 Beta MOs
 -- Occupied --
-88.062 -88.062  -8.007  -8.007  -6.046  -6.045  -6.039  -6.039
 -6.039  -6.039  -1.010  -0.738  -0.508  -0.440  -0.440
 -- Virtual --
 -0.048  -0.048   0.053   0.069   0.092   0.092   0.110   0.129
  0.129   0.146   0.184   0.281   0.281   0.314   0.314   0.358
  0.405   0.435   0.435   0.491   0.491   0.511   0.511   0.547
  0.617   0.617   0.648   0.774   0.939   0.939   0.945   0.945
  0.953   0.953   1.033   1.103   1.103   1.128   1.128   1.153
  1.154   1.168   1.179   1.179   1.253   1.346   1.346   1.405
  1.405   1.457   1.475   1.475   1.552   1.892   1.892   2.128
  2.128   2.218   2.455   3.474   3.624   3.624   3.649   3.649
  3.649   3.649   3.664   3.664   3.702   3.702   3.817   3.817
  3.900   4.604   4.635   4.635   4.642   4.645   4.682   4.685
  4.849   4.849   5.594   8.362   8.393  17.117  17.117  17.226
 17.226  17.370  17.461  23.506  23.525  23.543  23.633  23.633
 23.635  23.654  23.730  23.730  23.956  31.006  31.016  31.016
 31.021  31.021  31.024  31.025  31.028  31.028  31.030  31.030
 31.037  31.037  31.059 189.495 189.517
 --------------------------------------------------------------
 
          Ground-State Mulliken Net Atomic Charges

     Atom                 Charge (a.u.)    Spin (a.u.)
  --------------------------------------------------------
      1 S                     0.000003       1.000013
      2 S                    -0.000003       0.999987
  --------------------------------------------------------
  Sum of atomic charges =     0.000000
  Sum of spin   charges =     2.000000

 -----------------------------------------------------------------
                    Cartesian Multipole Moments
 -----------------------------------------------------------------
    Charge (ESU x 10^10)
                 0.0000
    Dipole Moment (Debye)
         X       0.0000      Y       0.0000      Z       0.0000
       Tot       0.0001
    Quadrupole Moments (Debye-Ang)
        XX     -26.0681     XY       0.0000     YY     -26.0681
        XZ       0.0038     YZ      -0.0054     ZZ     -23.7866
    Octapole Moments (Debye-Ang^2)
       XXX       0.0000    XXY       0.0000    XYY       0.0000
       YYY      -0.0001    XXZ     -25.1218    XYZ       0.0001
       YYZ     -25.1218    XZZ       0.0074    YZZ      -0.0105
       ZZZ     -68.7689
    Hexadecapole Moments (Debye-Ang^3)
      XXXX     -35.1871   XXXY       0.0002   XXYY     -11.7289
      XYYY       0.0002   YYYY     -35.1871   XXXZ       0.0050
      XXYZ      -0.0024   XYYZ       0.0017   YYYZ      -0.0071
      XXZZ     -59.3556   XYZZ       0.0003   YYZZ     -59.3555
      XZZZ       0.0264   YZZZ      -0.0369   ZZZZ    -294.7397
 -----------------------------------------------------------------
 Total job time:  48.60s(wall), 33.75s(cpu) 
 Tue Apr 12 21:03:13 2011

        *************************************************************
        *                                                           *
        *  Thank you very much for using Q-Chem.  Have a nice day.  *
        *                                                           *
        *************************************************************


0 sent ACK to 0 
now end server 0 ... 
 
**********************************************************************
Job 3 of 3 
**********************************************************************
 
Process 0 of 1 is on cl239.stfx.acenet.ca - thread support 1
initial socket setup ...start
initial socket setup ...done 
now start server 0 ... 

cmd = /usr/bin/ssh clhead /usr/local/qchem/bin/get_hostid 977050568 > /globalscratch/itamblyn/bnl/g297_b3lyp_neut_g03Large_worked/g2g71042/omega600/qchem10750/lic.dat
                  Welcome to Q-Chem
     A Quantum Leap Into The Future Of Chemistry

 Y. Shao, L. Fusti-Molnar, Y. Jung, J. Kussmann, C. Ochsenfeld,
 S. T. Brown, A. T. B. Gilbert, L. V. Slipchenko,S. V. Levchenko,
 D. P. O'Neill, R. A. DiStasio Jr., R. C. Lochan, T. Wang,
 G. J. O. Beran, N. A. Besley, J. M. Herbert, C. Y. Lin,
 T. Van Voorhis, S. H. Chien, A. Sodt, R. P. Steele, 
 V. A. Rassolov, P. E. Maslen, P. P. Korambath, R. D. Adamson,
 B. Austin, J. Baker, E. F. C. Byrd, H. Dachsel, R. J. Doerksen,
 A. Dreuw, B. D. Dunietz, A. D. Dutoi, T. R. Furlani,
 S. R. Gwaltney, A. Heyden, S. Hirata, C.-P. Hsu, G. Kedziora,
 R. Z. Khaliullin, P. Klunzinger, A. M. Lee, M. S. Lee, W. Liang,
 I. Lotan, N. Nair, B. Peters, E. I. Proynov, P. A. Pieniazek, 
 Y. M. Rhee, J. Ritchie, E. Rosta, C. D. Sherrill, 
 A. C. Simmonett, J. E. Subotnik, H. L. Woodcock III,
 W. Zhang, A. T. Bell, A. K. Chakraborty, D. M. Chipman,
 F. J. Keil, A. Warshel, W. J. Hehre, H. F. Schaefer III,
 J. Kong, A. I. Krylov, P. M. W. Gill, M. Head-Gordon,
 Q-Chem, Version 3.1, Q-Chem, Inc., Pittsburgh, PA (2007).

 Additional authors for Version 3.1: 
 Z. Gan, Y. Zhao, N. E. Schultz, D. Truhlar, E. Epifanovsky and M. Oana.

 Additional authors for Version 3.2: 
 R. Baer, B. R. Brooks, D. Casanova, J.-D. Chai, C.-L. Cheng, 
 C. Cramer, D. Crittenden, A. Ghysels, G. Hawkins, E. G. Hohenstein, 
 C. Kelley, W. Kurlancheek, D. Liotard, E. Livshits, P. Manohar, 
 A. Marenich, D. Neuhauser, R. Olson, M. A. Rohrdanz, K. S. Thanthiriwatte, 
 A. J. W. Thom, V. Vanovschi, C. F. Williams, Q. Wu and Z.-Q. You. 


 Intel X86 Linux Version

 Q-chem begins on Tue Apr 12 21:03:17 2011  

 Parallel job on  1  processors
Processing $rem in /usr/local/qchem/config/preferences.

theFileMan(): MAXOPENFILES=974 MAX_SUB_FILE_NUM=16
Maximum size of a physical file is 2.0 GB, maximum size of a tmp-file is 32.0 GB


--------------------------------------------------------------
User input:
--------------------------------------------------------------

$molecule
1,2
S
S,1,R

R=1.92739053

$end

$comment
positive
$end

$xc_functional
   X HF 1.0
   X BNL 1.0
   C LYP 1.0
$end

$rem
SYMMETRY_DECOMPOSITION	0
exchange 		general
BASIS                   g3large
omega			600
separate_jk		true
mem_static              760
max_scf_cycles          200
scf_final_print         1
sym_ignore              true
$end

--------------------------------------------------------------
 Writing REM_CC_EA            2
 ----------------------------------------------------
       Standard Nuclear Orientation (Angstroms)
    I     Atom         X            Y            Z
 ----------------------------------------------------
    1      S       0.000000     0.000000     0.000000
    2      S       0.000000     0.000000     1.927391
 ----------------------------------------------------
 Nuclear Repulsion Energy =    70.2864125647 hartrees
 There are       16 alpha and       15 beta electrons
 Requested basis set is G3large
 There are 38 shells and 132 basis functions

Total QAlloc Memory Limit   2000 MB
Mega-Array Size       743 MB
MEM_STATIC part       760 MB

                       Distance Matrix (Angstroms)
             S (  1)
   S (  2)  1.927391
 
 A cutoff of  1.0D-08 yielded    673 shell pairs
 There are   8434 function pairs ( 12149 Cartesian)
Evaluating contribution to one-electron hamiltonian from nuclear
 Smallest overlap matrix eigenvalue = 9.12E-04
 Multipole matrices computed through 2nd order

  Scale SEOQF with 1.000000e-01/1.000000e-01/1.000000e-01

 Standard Electronic Orientation quadrupole field applied
 Nucleus-field energy     =    -0.0000000064 hartrees
 Guess from superposition of atomic densities
 Warning:  Energy on first SCF cycle will be non-variational
 An unrestricted hybrid HF-DFT SCF calculation will be
 performed using Pulay DIIS extrapolation
 Exchange:     1.0000 Hartree-Fock + 1.0000 BNL
 Correlation:  1.0000 LYP
 Using SG-1 standard quadrature grid
 SCF converges when DIIS error is below 1.0E-05
 Warning!  Inaccurate integrated density:
   Number of electrons =    31
   Numerical integral  =    32.000061255662
   Relative error      =     3.2260040505 %
 ---------------------------------------
  Cycle       Energy         DIIS Error
 ---------------------------------------
    1    -793.1565551174      2.96E-02
    2    -792.6858126748      4.16E-03
    3    -792.7331909347      2.24E-03
    4    -792.7390189003      2.49E-04
    5    -792.7394808113      6.42E-05
    6    -792.7395766685      2.26E-05
    7    -792.7395944199      1.11E-05
    8    -792.7395997681      5.85E-06 Convergence criterion met
 ---------------------------------------
 One-Electron    Energy = -1228.9761327608
 Total Coulomb   Energy =   413.5276584204
 Alpha Exchange  Energy =    -4.6871765360
 Beta  Exchange  Energy =    -4.4071094342
 DFT   Exchange  Energy =   -37.2024757826
 DFT Correlation Energy =    -1.2807762332
 Nuclear Repu.   Energy =    70.2864125583
 Nuclear Attr.   Energy = -2019.8731482489
 Kinetic         Energy =   790.8970154881
 <S^2> = 0.7646
 SCF time:  CPU 37.94 s  wall 54.39 s
 Final Alpha MO Eigenvalues
            1           2           3           4           5           6
    1 -88.4003896 -88.4003365  -8.3386094  -8.3383218  -6.3792593  -6.3791935
            7           8           9          10          11          12
    1  -6.3740585  -6.3733691  -6.3720913  -6.3720452  -1.3333993  -1.0945362
           13          14          15          16          17          18
    1  -0.8171049  -0.8114717  -0.7547600  -0.6655613  -0.3641137  -0.1766633
           19          20          21
    1  -0.1131763  -0.0701340  -0.0658261
 Final Beta MO Eigenvalues
            1           2           3           4           5           6
    1 -88.3967340 -88.3966819  -8.3348096  -8.3344507  -6.3761408  -6.3760732
            7           8           9          10          11          12
    1  -6.3716700  -6.3709647  -6.3634754  -6.3634066  -1.3138456  -1.0480055
           13          14          15          16          17          18
    1  -0.8026712  -0.7488923  -0.7225031  -0.3545489  -0.3226185  -0.1669595
           19          20
    1  -0.1138572  -0.0702381
 Analysis of SCF Wavefunction
 
 --------------------------------------------------------------
                    Orbital Energies (a.u.)
 --------------------------------------------------------------
 
 Alpha MOs
 -- Occupied --
-88.400 -88.400  -8.339  -8.338  -6.379  -6.379  -6.374  -6.373
 -6.372  -6.372  -1.333  -1.095  -0.817  -0.811  -0.755  -0.666
 -- Virtual --
 -0.364  -0.177  -0.113  -0.070  -0.066  -0.056  -0.055  -0.022
 -0.022   0.012   0.012   0.030   0.031   0.045   0.130   0.152
  0.153   0.204   0.255   0.256   0.272   0.276   0.320   0.367
  0.369   0.396   0.508   0.671   0.671   0.673   0.679   0.681
  0.682   0.752   0.805   0.806   0.830   0.830   0.839   0.840
  0.889   0.893   0.899   0.987   1.077   1.077   1.112   1.118
  1.169   1.204   1.210   1.284   1.587   1.593   1.829   1.835
  1.927   2.169   3.160   3.280   3.280   3.321   3.321   3.322
  3.322   3.330   3.337   3.376   3.376   3.496   3.502   3.583
  4.287   4.311   4.311   4.314   4.319   4.350   4.353   4.524
  4.531   5.275   8.035   8.067  16.777  16.784  16.886  16.893
 17.045  17.136  23.177  23.186  23.204  23.297  23.299  23.304
 23.315  23.395  23.400  23.627  30.678  30.682  30.684  30.687
 30.688  30.694  30.696  30.696  30.700  30.700  30.703  30.706
 30.713  30.732 189.158 189.181
 
 Beta MOs
 -- Occupied --
-88.397 -88.397  -8.335  -8.334  -6.376  -6.376  -6.372  -6.371
 -6.363  -6.363  -1.314  -1.048  -0.803  -0.749  -0.723
 -- Virtual --
 -0.355  -0.323  -0.167  -0.114  -0.070  -0.066  -0.056  -0.054
 -0.022  -0.019   0.024   0.024   0.030   0.047   0.065   0.136
  0.176   0.176   0.205   0.256   0.269   0.277   0.290   0.323
  0.368   0.382   0.402   0.512   0.673   0.677   0.680   0.684
  0.685   0.691   0.759   0.826   0.828   0.840   0.840   0.857
  0.858   0.892   0.905   0.909   0.993   1.085   1.085   1.114
  1.132   1.177   1.206   1.223   1.290   1.592   1.615   1.833
  1.853   1.930   2.173   3.170   3.303   3.303   3.336   3.338
  3.339   3.345   3.345   3.356   3.391   3.392   3.501   3.522
  3.594   4.290   4.313   4.321   4.326   4.328   4.361   4.364
  4.526   4.542   5.282   8.043   8.075  16.782  16.795  16.890
 16.904  17.047  17.138  23.180  23.193  23.212  23.302  23.304
 23.311  23.322  23.398  23.407  23.631  30.679  30.685  30.687
 30.690  30.692  30.697  30.697  30.699  30.702  30.702  30.707
 30.707  30.716  30.734 189.162 189.185
 --------------------------------------------------------------
 
          Ground-State Mulliken Net Atomic Charges

     Atom                 Charge (a.u.)    Spin (a.u.)
  --------------------------------------------------------
      1 S                     0.500055       0.500022
      2 S                     0.499945       0.499978
  --------------------------------------------------------
  Sum of atomic charges =     1.000000
  Sum of spin   charges =     1.000000

 -----------------------------------------------------------------
                    Cartesian Multipole Moments
 -----------------------------------------------------------------
    Charge (ESU x 10^10)
                 4.8032
    Dipole Moment (Debye)
         X       0.0000      Y       0.0000      Z       4.6283
       Tot       4.6283
    Quadrupole Moments (Debye-Ang)
        XX     -21.7742     XY       1.0007     YY     -21.7930
        XZ       0.0021     YZ      -0.0022     ZZ      -9.0366
    Octapole Moments (Debye-Ang^2)
       XXX       0.0000    XXY       0.0000    XYY       0.0000
       YYY       0.0000    XXZ     -20.9838    XYZ       0.9643
       YYZ     -21.0019    XZZ       0.0041    YZZ      -0.0042
       ZZZ     -34.7225
    Hexadecapole Moments (Debye-Ang^3)
      XXXX     -24.9415   XXXY       0.8851   XXYY      -8.3191
      XYYY       0.8851   YYYY     -24.9748   XXXZ       0.0025
      XXYZ      -0.0007   XYYZ       0.0007   YYYZ      -0.0025
      XXZZ     -46.4956   XYZZ       2.7943   YYZZ     -46.5480
      XZZZ       0.0133   YZZZ      -0.0137   ZZZZ    -195.3215
 -----------------------------------------------------------------
 Total job time:  57.31s(wall), 38.12s(cpu) 
 Tue Apr 12 21:04:14 2011

        *************************************************************
        *                                                           *
        *  Thank you very much for using Q-Chem.  Have a nice day.  *
        *                                                           *
        *************************************************************


0 sent ACK to 0 
now end server 0 ... 
