Process 0 of 1 is on cl231.stfx.acenet.ca - thread support 1
initial socket setup ...start
initial socket setup ...done 
now start server 0 ... 

cmd = /usr/bin/ssh clhead /usr/local/qchem/bin/get_hostid 281639991 > /scratch/tmp/6063692.1.long.q/qchem19328/lic.dat
                  Welcome to Q-Chem
     A Quantum Leap Into The Future Of Chemistry

 Y. Shao, L. Fusti-Molnar, Y. Jung, J. Kussmann, C. Ochsenfeld,
 S. T. Brown, A. T. B. Gilbert, L. V. Slipchenko,S. V. Levchenko,
 D. P. O'Neill, R. A. DiStasio Jr., R. C. Lochan, T. Wang,
 G. J. O. Beran, N. A. Besley, J. M. Herbert, C. Y. Lin,
 T. Van Voorhis, S. H. Chien, A. Sodt, R. P. Steele, 
 V. A. Rassolov, P. E. Maslen, P. P. Korambath, R. D. Adamson,
 B. Austin, J. Baker, E. F. C. Byrd, H. Dachsel, R. J. Doerksen,
 A. Dreuw, B. D. Dunietz, A. D. Dutoi, T. R. Furlani,
 S. R. Gwaltney, A. Heyden, S. Hirata, C.-P. Hsu, G. Kedziora,
 R. Z. Khaliullin, P. Klunzinger, A. M. Lee, M. S. Lee, W. Liang,
 I. Lotan, N. Nair, B. Peters, E. I. Proynov, P. A. Pieniazek, 
 Y. M. Rhee, J. Ritchie, E. Rosta, C. D. Sherrill, 
 A. C. Simmonett, J. E. Subotnik, H. L. Woodcock III,
 W. Zhang, A. T. Bell, A. K. Chakraborty, D. M. Chipman,
 F. J. Keil, A. Warshel, W. J. Hehre, H. F. Schaefer III,
 J. Kong, A. I. Krylov, P. M. W. Gill, M. Head-Gordon,
 Q-Chem, Version 3.1, Q-Chem, Inc., Pittsburgh, PA (2007).

 Additional authors for Version 3.1: 
 Z. Gan, Y. Zhao, N. E. Schultz, D. Truhlar, E. Epifanovsky and M. Oana.

 Additional authors for Version 3.2: 
 R. Baer, B. R. Brooks, D. Casanova, J.-D. Chai, C.-L. Cheng, 
 C. Cramer, D. Crittenden, A. Ghysels, G. Hawkins, E. G. Hohenstein, 
 C. Kelley, W. Kurlancheek, D. Liotard, E. Livshits, P. Manohar, 
 A. Marenich, D. Neuhauser, R. Olson, M. A. Rohrdanz, K. S. Thanthiriwatte, 
 A. J. W. Thom, V. Vanovschi, C. F. Williams, Q. Wu and Z.-Q. You. 


 Intel X86 Linux Version

 Q-chem begins on Sun Jul  7 08:39:49 2013  

 Parallel job on  1  processors
Processing $rem in /usr/local/qchem/config/preferences.

theFileMan(): MAXOPENFILES=974 MAX_SUB_FILE_NUM=16
Maximum size of a physical file is 2.0 GB, maximum size of a tmp-file is 32.0 GB


--------------------------------------------------------------
User input:
--------------------------------------------------------------

$molecule
-1,2
N          0.00000        0.00000        1.83618
C          0.00000        0.00000        0.69391
C          0.00000        0.00000       -0.69391
N          0.00000        0.00000       -1.83618
$end

$comment
negative
$end

$xc_functional
C PBE   1.00
X wPBE  1.00
$end

$rem
SYMMETRY_DECOMPOSITION	0
exchange 		general
LRC_DFT                 true
BASIS                   g3large
omega			1000
mem_static              760
max_scf_cycles          200
scf_final_print         1
sym_ignore              true
$end

--------------------------------------------------------------
 Writing REM_CC_EA            4
 ----------------------------------------------------
       Standard Nuclear Orientation (Angstroms)
    I     Atom         X            Y            Z
 ----------------------------------------------------
    1      N       0.000000     0.000000     1.836180
    2      C       0.000000     0.000000     0.693910
    3      C       0.000000     0.000000    -0.693910
    4      N       0.000000     0.000000    -1.836180
 ----------------------------------------------------
 Nuclear Repulsion Energy =    77.2710182365 hartrees
 There are       14 alpha and       13 beta electrons
 Requested basis set is G3large
 There are 40 shells and 168 basis functions

Total QAlloc Memory Limit   2000 MB
Mega-Array Size       743 MB
MEM_STATIC part       760 MB

                       Distance Matrix (Angstroms)
             N (  1)   C (  2)   C (  3)
   C (  2)  1.142270
   C (  3)  2.530090  1.387820
   N (  4)  3.672360  2.530090  1.142270
 
 A cutoff of  1.0D-08 yielded    716 shell pairs
 There are  12995 function pairs ( 17001 Cartesian)
Evaluating contribution to one-electron hamiltonian from nuclear
 Smallest overlap matrix eigenvalue = 9.69E-06

 Q-Chem warning in module mkSTV.C, line 194:

 Overlap eigenvalue is smaller than square root of threshold

 Multipole matrices computed through 2nd order

  Scale SEOQF with 1.000000e-01/1.000000e-01/1.000000e-01

 Standard Electronic Orientation quadrupole field applied
 Nucleus-field energy     =    -0.0000000057 hartrees
 Guess from superposition of atomic densities
 Warning:  Energy on first SCF cycle will be non-variational
 Long-range K will be added via erf
 Coulomb attenuation parameter = 1 bohr**(-1)
 An unrestricted Kohn-Sham SCF calculation will be
 performed using Pulay DIIS extrapolation
 Exchange:  wPBE + LR-HF      Correlation:  PBE
 Using SG-1 standard quadrature grid
 SCF converges when DIIS error is below 1.0E-05
 Requested basis set is G3large
 There are 40 shells and 168 basis functions
 A cutoff of  1.0D-08 yielded    716 shell pairs
 There are  12995 function pairs ( 17001 Cartesian)
 Warning!  Inaccurate integrated density:
   Number of electrons =    27
   Numerical integral  =    26.000074941606
   Relative error      =    -3.7034261422 %
 ---------------------------------------
  Cycle       Energy         DIIS Error
 ---------------------------------------
    1    -186.3739514973      3.88E-02
    2    -185.3453312946      5.84E-03
    3    -185.3973566977      5.66E-03
    4    -185.4903247287      6.40E-04
    5    -185.4957393120      2.75E-04
    6    -185.4967708227      9.37E-05
    7    -185.4969857058      2.36E-05
    8    -185.4970069183      6.91E-06 Convergence criterion met
 ---------------------------------------
 One-Electron    Energy =  -409.4526230985
 Total Coulomb   Energy =   171.3484342172
 Alpha Exchange  Energy =    -5.3743724397
 Beta  Exchange  Energy =    -5.0036939170
 DFT   Exchange  Energy =   -13.4067561303
 DFT Correlation Energy =    -0.8790137808
 Nuclear Repu.   Energy =    77.2710182308
 Nuclear Attr.   Energy =  -594.5661983316
 Kinetic         Energy =   185.1135752331
 <S^2> = 0.7838
 SCF time:  CPU 54.41 s  wall 56.28 s
 Final Alpha MO Eigenvalues
            1           2           3           4           5           6
    1 -14.2942168 -14.2941656 -10.2605728 -10.2593289  -1.0270088  -1.0010110
            7           8           9          10          11          12
    1  -0.7189202  -0.4171851  -0.3959022  -0.3786134  -0.3716311  -0.3308636
           13          14          15          16          17          18
    1  -0.2757987  -0.0458489   0.1956033   0.2056894   0.2520470   0.2626010
           19
    1   0.2745864
 Final Beta MO Eigenvalues
            1           2           3           4           5           6
    1 -14.2855463 -14.2854922 -10.2603156 -10.2592418  -1.0097966  -0.9835183
            7           8           9          10          11          12
    1  -0.6849507  -0.3734047  -0.3681501  -0.3589667  -0.3499245  -0.2683389
           13          14          15          16          17          18
    1  -0.2468912   0.1961939   0.2061912   0.2556832   0.2619249   0.2746643
 Analysis of SCF Wavefunction
 
 --------------------------------------------------------------
                    Orbital Energies (a.u.)
 --------------------------------------------------------------
 
 Alpha MOs
 -- Occupied --
-14.294 -14.294 -10.261 -10.259  -1.027  -1.001  -0.719  -0.417
 -0.396  -0.379  -0.372  -0.331  -0.276  -0.046
 -- Virtual --
  0.196   0.206   0.252   0.263   0.275   0.275   0.277   0.315
  0.320   0.414   0.425   0.430   0.432   0.440   0.443   0.452
  0.502   0.523   0.575   0.605   0.815   0.827   0.831   0.870
  0.870   0.933   0.940   0.955   0.998   1.094   1.094   1.126
  1.134   1.154   1.161   1.161   1.219   1.230   1.301   1.319
  1.345   1.496   1.497   1.623   1.687   1.688   1.696   1.788
  1.792   1.946   2.110   2.111   2.431   2.440   2.441   2.447
  2.467   2.798   3.072   3.072   3.089   3.089   3.105   3.105
  3.112   3.222   3.228   3.317   3.318   3.319   3.325   3.555
  3.556   3.571   3.571   3.653   3.656   3.656   3.692   3.884
  3.885   3.956   3.957   4.112   4.112   4.151   4.151   4.322
  4.324   4.419   4.468   4.470   4.606   4.697   4.697   4.887
  5.053   5.056   5.140   5.167   5.168   5.282   5.283   5.346
  5.347   5.535   5.605   5.605   5.750   5.751   6.252   6.437
  6.441   7.026   7.416   7.420   7.455   8.734  24.950  25.335
 27.818  27.820  28.013  28.014  29.202  30.675  36.656  37.512
 37.987  37.987  38.354  38.354  38.819  38.953  41.000  41.009
 41.099  41.105  41.109  41.178  41.179  41.342  41.355  41.369
 41.369  41.573  41.586  41.603  41.759  41.760  41.835  41.836
 42.202  42.240
 
 Beta MOs
 -- Occupied --
-14.286 -14.285 -10.260 -10.259  -1.010  -0.984  -0.685  -0.373
 -0.368  -0.359  -0.350  -0.268  -0.247
 -- Virtual --
  0.196   0.206   0.256   0.262   0.275   0.277   0.280   0.299
  0.317   0.320   0.428   0.433   0.437   0.442   0.443   0.446
  0.452   0.502   0.580   0.598   0.612   0.823   0.831   0.840
  0.882   0.883   0.932   0.940   0.957   1.003   1.095   1.095
  1.130   1.140   1.165   1.167   1.179   1.235   1.249   1.324
  1.343   1.353   1.522   1.522   1.631   1.703   1.707   1.707
  1.795   1.811   1.950   2.114   2.129   2.435   2.442   2.453
  2.455   2.473   2.807   3.077   3.077   3.098   3.099   3.106
  3.120   3.123   3.221   3.233   3.318   3.320   3.320   3.330
  3.560   3.560   3.571   3.571   3.654   3.662   3.666   3.696
  3.894   3.894   3.959   3.974   4.131   4.131   4.169   4.169
  4.334   4.357   4.427   4.478   4.500   4.617   4.708   4.709
  4.895   5.057   5.075   5.150   5.178   5.179   5.318   5.319
  5.380   5.380   5.542   5.611   5.630   5.754   5.771   6.257
  6.441   6.458   7.032   7.421   7.438   7.461   8.738  24.951
 25.335  27.818  27.822  28.012  28.016  29.203  30.676  36.666
 37.523  37.993  38.006  38.360  38.373  38.824  38.958  41.017
 41.026  41.106  41.119  41.125  41.181  41.193  41.343  41.356
 41.372  41.383  41.574  41.587  41.604  41.759  41.763  41.835
 41.838  42.205  42.242
 --------------------------------------------------------------
 
          Ground-State Mulliken Net Atomic Charges

     Atom                 Charge (a.u.)    Spin (a.u.)
  --------------------------------------------------------
      1 N                    -0.601931       0.417916
      2 C                     0.101931       0.082085
      3 C                     0.101952       0.082073
      4 N                    -0.601951       0.417925
  --------------------------------------------------------
  Sum of atomic charges =    -1.000000
  Sum of spin   charges =     1.000000

 -----------------------------------------------------------------
                    Cartesian Multipole Moments
 -----------------------------------------------------------------
    Charge (ESU x 10^10)
                -4.8032
    Dipole Moment (Debye)
         X       0.0000      Y       0.0000      Z       0.0001
       Tot       0.0001
    Quadrupole Moments (Debye-Ang)
        XX     -24.5576     XY      -0.9590     YY     -24.5564
        XZ       0.0000     YZ      -0.0001     ZZ     -46.6653
    Octapole Moments (Debye-Ang^2)
       XXX       0.0000    XXY       0.0000    XYY       0.0000
       YYY       0.0000    XXZ       0.0000    XYZ       0.0000
       YYZ       0.0000    XZZ       0.0000    YZZ       0.0000
       ZZZ       0.0003
    Hexadecapole Moments (Debye-Ang^3)
      XXXX     -28.8925   XXXY      -1.3647   XXYY      -9.6306
      XYYY      -1.3647   YYYY     -28.8893   XXXZ      -0.0001
      XXYZ      -0.0001   XYYZ       0.0000   YYYZ      -0.0002
      XXZZ     -61.6442   XYZZ      -2.3711   YYZZ     -61.6414
      XZZZ      -0.0003   YZZZ      -0.0006   ZZZZ    -434.2911
 -----------------------------------------------------------------
 Total job time:  56.51s(wall), 54.60s(cpu) 
 Sun Jul  7 08:40:45 2013

        *************************************************************
        *                                                           *
        *  Thank you very much for using Q-Chem.  Have a nice day.  *
        *                                                           *
        *************************************************************


0 sent ACK to 0 
now end server 0 ... 
 
**********************************************************************
Job 2 of 3 
**********************************************************************
 
Process 0 of 1 is on cl231.stfx.acenet.ca - thread support 1
initial socket setup ...start
initial socket setup ...done 
now start server 0 ... 

cmd = /usr/bin/ssh clhead /usr/local/qchem/bin/get_hostid 299080872 > /scratch/tmp/6063692.1.long.q/qchem19328/lic.dat
                  Welcome to Q-Chem
     A Quantum Leap Into The Future Of Chemistry

 Y. Shao, L. Fusti-Molnar, Y. Jung, J. Kussmann, C. Ochsenfeld,
 S. T. Brown, A. T. B. Gilbert, L. V. Slipchenko,S. V. Levchenko,
 D. P. O'Neill, R. A. DiStasio Jr., R. C. Lochan, T. Wang,
 G. J. O. Beran, N. A. Besley, J. M. Herbert, C. Y. Lin,
 T. Van Voorhis, S. H. Chien, A. Sodt, R. P. Steele, 
 V. A. Rassolov, P. E. Maslen, P. P. Korambath, R. D. Adamson,
 B. Austin, J. Baker, E. F. C. Byrd, H. Dachsel, R. J. Doerksen,
 A. Dreuw, B. D. Dunietz, A. D. Dutoi, T. R. Furlani,
 S. R. Gwaltney, A. Heyden, S. Hirata, C.-P. Hsu, G. Kedziora,
 R. Z. Khaliullin, P. Klunzinger, A. M. Lee, M. S. Lee, W. Liang,
 I. Lotan, N. Nair, B. Peters, E. I. Proynov, P. A. Pieniazek, 
 Y. M. Rhee, J. Ritchie, E. Rosta, C. D. Sherrill, 
 A. C. Simmonett, J. E. Subotnik, H. L. Woodcock III,
 W. Zhang, A. T. Bell, A. K. Chakraborty, D. M. Chipman,
 F. J. Keil, A. Warshel, W. J. Hehre, H. F. Schaefer III,
 J. Kong, A. I. Krylov, P. M. W. Gill, M. Head-Gordon,
 Q-Chem, Version 3.1, Q-Chem, Inc., Pittsburgh, PA (2007).

 Additional authors for Version 3.1: 
 Z. Gan, Y. Zhao, N. E. Schultz, D. Truhlar, E. Epifanovsky and M. Oana.

 Additional authors for Version 3.2: 
 R. Baer, B. R. Brooks, D. Casanova, J.-D. Chai, C.-L. Cheng, 
 C. Cramer, D. Crittenden, A. Ghysels, G. Hawkins, E. G. Hohenstein, 
 C. Kelley, W. Kurlancheek, D. Liotard, E. Livshits, P. Manohar, 
 A. Marenich, D. Neuhauser, R. Olson, M. A. Rohrdanz, K. S. Thanthiriwatte, 
 A. J. W. Thom, V. Vanovschi, C. F. Williams, Q. Wu and Z.-Q. You. 


 Intel X86 Linux Version

 Q-chem begins on Sun Jul  7 08:40:49 2013  

 Parallel job on  1  processors
Processing $rem in /usr/local/qchem/config/preferences.

theFileMan(): MAXOPENFILES=974 MAX_SUB_FILE_NUM=16
Maximum size of a physical file is 2.0 GB, maximum size of a tmp-file is 32.0 GB


--------------------------------------------------------------
User input:
--------------------------------------------------------------

$molecule
0,1
N          0.00000        0.00000        1.83618
C          0.00000        0.00000        0.69391
C          0.00000        0.00000       -0.69391
N          0.00000        0.00000       -1.83618
$end

$comment
neutral
$end

$xc_functional
C PBE   1.00
X wPBE  1.00
$end


$rem
SYMMETRY_DECOMPOSITION	0
LRC_DFT                 true
exchange 		general
BASIS                   g3large
omega			1000
mem_static              760
max_scf_cycles          200
scf_final_print         1
sym_ignore              true
$end

--------------------------------------------------------------
 Writing REM_CC_EA            4
 ----------------------------------------------------
       Standard Nuclear Orientation (Angstroms)
    I     Atom         X            Y            Z
 ----------------------------------------------------
    1      N       0.000000     0.000000     1.836180
    2      C       0.000000     0.000000     0.693910
    3      C       0.000000     0.000000    -0.693910
    4      N       0.000000     0.000000    -1.836180
 ----------------------------------------------------
 Nuclear Repulsion Energy =    77.2710182365 hartrees
 There are       13 alpha and       13 beta electrons
 Requested basis set is G3large
 There are 40 shells and 168 basis functions

Total QAlloc Memory Limit   2000 MB
Mega-Array Size       743 MB
MEM_STATIC part       760 MB

                       Distance Matrix (Angstroms)
             N (  1)   C (  2)   C (  3)
   C (  2)  1.142270
   C (  3)  2.530090  1.387820
   N (  4)  3.672360  2.530090  1.142270
 
 A cutoff of  1.0D-08 yielded    716 shell pairs
 There are  12995 function pairs ( 17001 Cartesian)
Evaluating contribution to one-electron hamiltonian from nuclear
 Smallest overlap matrix eigenvalue = 9.69E-06

 Q-Chem warning in module mkSTV.C, line 194:

 Overlap eigenvalue is smaller than square root of threshold

 Multipole matrices computed through 2nd order

  Scale SEOQF with 1.000000e-01/1.000000e-01/1.000000e-01

 Standard Electronic Orientation quadrupole field applied
 Nucleus-field energy     =    -0.0000000057 hartrees
 Guess from superposition of atomic densities
 Warning:  Energy on first SCF cycle will be non-variational
 Long-range K will be added via erf
 Coulomb attenuation parameter = 1 bohr**(-1)
 A restricted Kohn-Sham SCF calculation will be
 performed using Pulay DIIS extrapolation
 Exchange:  wPBE + LR-HF      Correlation:  PBE
 Using SG-1 standard quadrature grid
 SCF converges when DIIS error is below 1.0E-05
 Requested basis set is G3large
 There are 40 shells and 168 basis functions
 A cutoff of  1.0D-08 yielded    716 shell pairs
 There are  12995 function pairs ( 17001 Cartesian)
 ---------------------------------------
  Cycle       Energy         DIIS Error
 ---------------------------------------
    1    -186.3739514973      3.88E-02
    2    -185.3519235205      5.49E-03
    3    -185.3708947521      6.16E-03
    4    -185.4766252505      6.35E-04
    5    -185.4813072276      2.69E-04
    6    -185.4824561497      1.18E-04
    7    -185.4827455107      3.19E-05
    8    -185.4827672291      7.36E-06 Convergence criterion met
 ---------------------------------------
 One-Electron    Energy =  -402.2597483861
 Total Coulomb   Energy =   163.8217306360
 Alpha Exchange  Energy =    -5.0598932555
 Beta  Exchange  Energy =    -5.0598932555
 DFT   Exchange  Energy =   -13.3506800681
 DFT Correlation Energy =    -0.8453011307
 Nuclear Repu.   Energy =    77.2710182308
 Nuclear Attr.   Energy =  -587.0023924111
 Kinetic         Energy =   184.7426440250
 SCF time:  CPU 43.93 s  wall 45.90 s
 Final Alpha MO Eigenvalues
            1           2           3           4           5           6
    1 -14.5952254 -14.5951723 -10.5450491 -10.5439501  -1.2979843  -1.2711513
            7           8           9          10          11          12
    1  -0.9916479  -0.6531330  -0.6426971  -0.6426890  -0.6386535  -0.5423904
           13          14          15          16          17          18
    1  -0.5423782   0.0154780   0.0154843   0.0493053   0.0769636   0.1021920
 Analysis of SCF Wavefunction
 
 --------------------------------------------------------------
                    Orbital Energies (a.u.)
 --------------------------------------------------------------
 
 Alpha MOs
 -- Occupied --
-14.595 -14.595 -10.545 -10.544  -1.298  -1.271  -0.992  -0.653
 -0.643  -0.643  -0.639  -0.542  -0.542
 -- Virtual --
  0.015   0.015   0.049   0.077   0.102   0.102   0.135   0.135
  0.151   0.172   0.252   0.252   0.253   0.260   0.260   0.267
  0.293   0.329   0.349   0.349   0.390   0.589   0.601   0.601
  0.621   0.621   0.708   0.708   0.740   0.779   0.840   0.840
  0.912   0.918   0.936   0.936   0.952   1.010   1.010   1.059
  1.059   1.088   1.258   1.258   1.354   1.446   1.446   1.464
  1.538   1.538   1.701   1.861   1.861   2.185   2.195   2.201
  2.201   2.225   2.530   2.796   2.796   2.813   2.813   2.827
  2.827   2.840   2.951   2.951   3.041   3.041   3.050   3.050
  3.277   3.277   3.299   3.299   3.383   3.383   3.390   3.417
  3.603   3.603   3.681   3.681   3.846   3.846   3.885   3.885
  4.054   4.054   4.144   4.200   4.200   4.337   4.426   4.426
  4.612   4.775   4.775   4.867   4.896   4.896   5.014   5.014
  5.076   5.076   5.267   5.338   5.338   5.485   5.485   5.980
  6.160   6.160   6.748   7.141   7.141   7.173   8.454  24.666
 25.052  27.535  27.535  27.730  27.730  28.917  30.391  36.358
 37.215  37.688  37.688  38.055  38.055  38.520  38.653  40.701
 40.710  40.800  40.809  40.810  40.880  40.880  41.057  41.070
 41.071  41.071  41.289  41.302  41.312  41.474  41.474  41.550
 41.550  41.909  41.951
 --------------------------------------------------------------
 
          Ground-State Mulliken Net Atomic Charges

     Atom                 Charge (a.u.)
  ----------------------------------------
      1 N                    -0.301270
      2 C                     0.301420
      3 C                     0.301050
      4 N                    -0.301200
  ----------------------------------------
  Sum of atomic charges =     0.000000

 -----------------------------------------------------------------
                    Cartesian Multipole Moments
 -----------------------------------------------------------------
    Charge (ESU x 10^10)
                 0.0000
    Dipole Moment (Debye)
         X       0.0000      Y       0.0000      Z       0.0000
       Tot       0.0000
    Quadrupole Moments (Debye-Ang)
        XX     -20.7850     XY       0.0000     YY     -20.7850
        XZ       0.0000     YZ       0.0000     ZZ     -30.1843
    Octapole Moments (Debye-Ang^2)
       XXX       0.0000    XXY       0.0000    XYY       0.0000
       YYY       0.0000    XXZ       0.0000    XYZ       0.0000
       YYZ       0.0000    XZZ       0.0000    YZZ       0.0000
       ZZZ      -0.0002
    Hexadecapole Moments (Debye-Ang^3)
      XXXX     -19.6634   XXXY       0.0000   XXYY      -6.5544
      XYYY       0.0000   YYYY     -19.6633   XXXZ       0.0000
      XXYZ       0.0000   XYYZ       0.0000   YYYZ       0.0000
      XXZZ     -49.6158   XYZZ       0.0002   YYZZ     -49.6158
      XZZZ       0.0002   YZZZ      -0.0002   ZZZZ    -324.6800
 -----------------------------------------------------------------
 Total job time:  46.11s(wall), 44.11s(cpu) 
 Sun Jul  7 08:41:35 2013

        *************************************************************
        *                                                           *
        *  Thank you very much for using Q-Chem.  Have a nice day.  *
        *                                                           *
        *************************************************************


0 sent ACK to 0 
now end server 0 ... 
 
**********************************************************************
Job 3 of 3 
**********************************************************************
 
Process 0 of 1 is on cl231.stfx.acenet.ca - thread support 1
initial socket setup ...start
initial socket setup ...done 
now start server 0 ... 

cmd = /usr/bin/ssh clhead /usr/local/qchem/bin/get_hostid 429540675 > /scratch/tmp/6063692.1.long.q/qchem19328/lic.dat
                  Welcome to Q-Chem
     A Quantum Leap Into The Future Of Chemistry

 Y. Shao, L. Fusti-Molnar, Y. Jung, J. Kussmann, C. Ochsenfeld,
 S. T. Brown, A. T. B. Gilbert, L. V. Slipchenko,S. V. Levchenko,
 D. P. O'Neill, R. A. DiStasio Jr., R. C. Lochan, T. Wang,
 G. J. O. Beran, N. A. Besley, J. M. Herbert, C. Y. Lin,
 T. Van Voorhis, S. H. Chien, A. Sodt, R. P. Steele, 
 V. A. Rassolov, P. E. Maslen, P. P. Korambath, R. D. Adamson,
 B. Austin, J. Baker, E. F. C. Byrd, H. Dachsel, R. J. Doerksen,
 A. Dreuw, B. D. Dunietz, A. D. Dutoi, T. R. Furlani,
 S. R. Gwaltney, A. Heyden, S. Hirata, C.-P. Hsu, G. Kedziora,
 R. Z. Khaliullin, P. Klunzinger, A. M. Lee, M. S. Lee, W. Liang,
 I. Lotan, N. Nair, B. Peters, E. I. Proynov, P. A. Pieniazek, 
 Y. M. Rhee, J. Ritchie, E. Rosta, C. D. Sherrill, 
 A. C. Simmonett, J. E. Subotnik, H. L. Woodcock III,
 W. Zhang, A. T. Bell, A. K. Chakraborty, D. M. Chipman,
 F. J. Keil, A. Warshel, W. J. Hehre, H. F. Schaefer III,
 J. Kong, A. I. Krylov, P. M. W. Gill, M. Head-Gordon,
 Q-Chem, Version 3.1, Q-Chem, Inc., Pittsburgh, PA (2007).

 Additional authors for Version 3.1: 
 Z. Gan, Y. Zhao, N. E. Schultz, D. Truhlar, E. Epifanovsky and M. Oana.

 Additional authors for Version 3.2: 
 R. Baer, B. R. Brooks, D. Casanova, J.-D. Chai, C.-L. Cheng, 
 C. Cramer, D. Crittenden, A. Ghysels, G. Hawkins, E. G. Hohenstein, 
 C. Kelley, W. Kurlancheek, D. Liotard, E. Livshits, P. Manohar, 
 A. Marenich, D. Neuhauser, R. Olson, M. A. Rohrdanz, K. S. Thanthiriwatte, 
 A. J. W. Thom, V. Vanovschi, C. F. Williams, Q. Wu and Z.-Q. You. 


 Intel X86 Linux Version

 Q-chem begins on Sun Jul  7 08:41:38 2013  

 Parallel job on  1  processors
Processing $rem in /usr/local/qchem/config/preferences.

theFileMan(): MAXOPENFILES=974 MAX_SUB_FILE_NUM=16
Maximum size of a physical file is 2.0 GB, maximum size of a tmp-file is 32.0 GB


--------------------------------------------------------------
User input:
--------------------------------------------------------------

$molecule
1,2
N          0.00000        0.00000        1.83618
C          0.00000        0.00000        0.69391
C          0.00000        0.00000       -0.69391
N          0.00000        0.00000       -1.83618
$end

$comment
positive
$end

$xc_functional
C PBE   1.00
X wPBE  1.00
$end

$rem
SYMMETRY_DECOMPOSITION	0
LRC_DFT                 true
exchange 		general
BASIS                   g3large
omega			1000
mem_static              760
max_scf_cycles          200
scf_final_print         1
sym_ignore              true
$end

--------------------------------------------------------------
 Writing REM_CC_EA            4
 ----------------------------------------------------
       Standard Nuclear Orientation (Angstroms)
    I     Atom         X            Y            Z
 ----------------------------------------------------
    1      N       0.000000     0.000000     1.836180
    2      C       0.000000     0.000000     0.693910
    3      C       0.000000     0.000000    -0.693910
    4      N       0.000000     0.000000    -1.836180
 ----------------------------------------------------
 Nuclear Repulsion Energy =    77.2710182365 hartrees
 There are       13 alpha and       12 beta electrons
 Requested basis set is G3large
 There are 40 shells and 168 basis functions

Total QAlloc Memory Limit   2000 MB
Mega-Array Size       743 MB
MEM_STATIC part       760 MB

                       Distance Matrix (Angstroms)
             N (  1)   C (  2)   C (  3)
   C (  2)  1.142270
   C (  3)  2.530090  1.387820
   N (  4)  3.672360  2.530090  1.142270
 
 A cutoff of  1.0D-08 yielded    716 shell pairs
 There are  12995 function pairs ( 17001 Cartesian)
Evaluating contribution to one-electron hamiltonian from nuclear
 Smallest overlap matrix eigenvalue = 9.69E-06

 Q-Chem warning in module mkSTV.C, line 194:

 Overlap eigenvalue is smaller than square root of threshold

 Multipole matrices computed through 2nd order

  Scale SEOQF with 1.000000e-01/1.000000e-01/1.000000e-01

 Standard Electronic Orientation quadrupole field applied
 Nucleus-field energy     =    -0.0000000057 hartrees
 Guess from superposition of atomic densities
 Warning:  Energy on first SCF cycle will be non-variational
 Long-range K will be added via erf
 Coulomb attenuation parameter = 1 bohr**(-1)
 An unrestricted Kohn-Sham SCF calculation will be
 performed using Pulay DIIS extrapolation
 Exchange:  wPBE + LR-HF      Correlation:  PBE
 Using SG-1 standard quadrature grid
 SCF converges when DIIS error is below 1.0E-05
 Requested basis set is G3large
 There are 40 shells and 168 basis functions
 A cutoff of  1.0D-08 yielded    716 shell pairs
 There are  12995 function pairs ( 17001 Cartesian)
 Warning!  Inaccurate integrated density:
   Number of electrons =    25
   Numerical integral  =    26.000074941606
   Relative error      =     4.0002997664 %
 ---------------------------------------
  Cycle       Energy         DIIS Error
 ---------------------------------------
    1    -186.3739514973      3.88E-02
    2    -184.8064247775      5.18E-03
    3    -184.9071039925      4.48E-03
    4    -184.9688538659      8.74E-04
    5    -184.9771909244      3.67E-04
    6    -184.9804912479      1.30E-04
    7    -184.9813280023      3.53E-05
    8    -184.9814587007      1.49E-05
    9    -184.9815067255      8.31E-06 Convergence criterion met
 ---------------------------------------
 One-Electron    Energy =  -394.1385462563
 Total Coulomb   Energy =   155.8527561336
 Alpha Exchange  Energy =    -5.1325589904
 Beta  Exchange  Energy =    -4.7255702067
 DFT   Exchange  Energy =   -13.3080831645
 DFT Correlation Energy =    -0.8005224721
 Nuclear Repu.   Energy =    77.2710182308
 Nuclear Attr.   Energy =  -578.7003809395
 Kinetic         Energy =   184.5618346832
 <S^2> = 0.8985
 SCF time:  CPU 59.92 s  wall 62.02 s
 Final Alpha MO Eigenvalues
            1           2           3           4           5           6
    1 -14.9283709 -14.9282885 -10.8665325 -10.8654718  -1.6344030  -1.6160967
            7           8           9          10          11          12
    1  -1.2825643  -0.9665430  -0.9547135  -0.9415236  -0.9410134  -0.8983975
           13          14          15          16          17          18
    1  -0.8557954  -0.2839962  -0.2656870  -0.1189428  -0.0793809  -0.0655755
 Final Beta MO Eigenvalues
            1           2           3           4           5           6
    1 -14.9168642 -14.9167876 -10.8675464 -10.8662401  -1.5874404  -1.5559103
            7           8           9          10          11          12
    1  -1.2940652  -0.9374547  -0.9310144  -0.9188180  -0.8489683  -0.8356613
           13          14          15          16          17
    1  -0.4633054  -0.2582654  -0.1945750  -0.1194453  -0.0766563
 Analysis of SCF Wavefunction
 
 --------------------------------------------------------------
                    Orbital Energies (a.u.)
 --------------------------------------------------------------
 
 Alpha MOs
 -- Occupied --
-14.928 -14.928 -10.867 -10.865  -1.634  -1.616  -1.283  -0.967
 -0.955  -0.942  -0.941  -0.898  -0.856
 -- Virtual --
 -0.284  -0.266  -0.119  -0.079  -0.066  -0.063  -0.030  -0.023
 -0.013  -0.010  -0.008   0.003   0.055   0.091   0.093   0.096
  0.139   0.156   0.160   0.166   0.207   0.354   0.358   0.359
  0.364   0.368   0.468   0.475   0.519   0.545   0.562   0.562
  0.679   0.683   0.684   0.696   0.729   0.759   0.762   0.777
  0.780   0.813   0.972   0.972   1.055   1.167   1.167   1.213
  1.241   1.261   1.444   1.583   1.597   1.913   1.914   1.930
  1.946   1.964   2.245   2.502   2.502   2.515   2.517   2.541
  2.544   2.545   2.650   2.659   2.743   2.743   2.750   2.759
  2.977   2.977   2.984   2.985   3.061   3.080   3.093   3.121
  3.305   3.305   3.354   3.374   3.530   3.530   3.571   3.571
  3.719   3.749   3.832   3.872   3.899   4.033   4.115   4.117
  4.307   4.459   4.475   4.563   4.594   4.595   4.676   4.678
  4.736   4.736   4.976   5.020   5.044   5.174   5.195   5.676
  5.832   5.853   6.436   6.813   6.835   6.857   8.142  24.347
 24.733  27.213  27.217  27.408  27.411  28.598  30.071  36.025
 36.881  37.345  37.360  37.712  37.727  38.192  38.326  40.360
 40.369  40.457  40.468  40.485  40.540  40.554  40.731  40.735
 40.745  40.748  40.966  40.979  40.989  41.150  41.154  41.226
 41.230  41.584  41.628
 
 Beta MOs
 -- Occupied --
-14.917 -14.917 -10.868 -10.866  -1.587  -1.556  -1.294  -0.937
 -0.931  -0.919  -0.849  -0.836
 -- Virtual --
 -0.463  -0.258  -0.195  -0.119  -0.077  -0.064  -0.063  -0.025
 -0.017  -0.012  -0.011   0.006   0.034   0.055   0.095   0.097
  0.102   0.140   0.157   0.169   0.177   0.208   0.347   0.354
  0.359   0.359   0.365   0.473   0.475   0.523   0.553   0.583
  0.583   0.687   0.689   0.698   0.706   0.737   0.782   0.787
  0.791   0.799   0.820   1.001   1.002   1.065   1.187   1.187
  1.221   1.266   1.268   1.447   1.597   1.598   1.920   1.923
  1.949   1.949   1.971   2.250   2.501   2.501   2.519   2.519
  2.533   2.542   2.550   2.652   2.655   2.747   2.747   2.756
  2.757   2.975   2.975   3.000   3.000   3.080   3.082   3.102
  3.124   3.303   3.303   3.378   3.379   3.560   3.560   3.598
  3.598   3.763   3.766   3.843   3.911   3.912   4.048   4.132
  4.133   4.317   4.476   4.478   4.576   4.606   4.606   4.727
  4.729   4.786   4.788   4.983   5.052   5.054   5.200   5.201
  5.683   5.855   5.858   6.445   6.839   6.841   6.865   8.149
 24.346  24.732  27.213  27.215  27.407  27.410  28.597  30.071
 36.038  36.895  37.368  37.371  37.735  37.739  38.199  38.332
 40.383  40.392  40.481  40.489  40.491  40.558  40.559  40.734
 40.747  40.749  40.750  40.965  40.978  40.991  41.151  41.153
 41.227  41.229  41.588  41.629
 --------------------------------------------------------------
 
          Ground-State Mulliken Net Atomic Charges

     Atom                 Charge (a.u.)    Spin (a.u.)
  --------------------------------------------------------
      1 N                    -0.004400       0.562963
      2 C                     0.504403      -0.063004
      3 C                     0.504444      -0.062911
      4 N                    -0.004446       0.562952
  --------------------------------------------------------
  Sum of atomic charges =     1.000000
  Sum of spin   charges =     1.000000

 -----------------------------------------------------------------
                    Cartesian Multipole Moments
 -----------------------------------------------------------------
    Charge (ESU x 10^10)
                 4.8032
    Dipole Moment (Debye)
         X       0.0000      Y       0.0000      Z       0.0003
       Tot       0.0003
    Quadrupole Moments (Debye-Ang)
        XX     -17.9487     XY      -0.6040     YY     -17.9486
        XZ       0.0096     YZ      -0.0096     ZZ     -15.2017
    Octapole Moments (Debye-Ang^2)
       XXX       0.0000    XXY       0.0000    XYY       0.0000
       YYY       0.0000    XXZ       0.0000    XYZ       0.0000
       YYZ       0.0000    XZZ       0.0000    YZZ       0.0000
       ZZZ       0.0010
    Hexadecapole Moments (Debye-Ang^3)
      XXXX     -14.9566   XXXY      -0.3596   XXYY      -4.9860
      XYYY      -0.3596   YYYY     -14.9565   XXXZ       0.0072
      XXYZ      -0.0023   XYYZ       0.0023   YYYZ      -0.0072
      XXZZ     -41.0302   XYZZ      -1.7911   YYZZ     -41.0300
      XZZZ       0.0519   YZZZ      -0.0519   ZZZZ    -246.7727
 -----------------------------------------------------------------
 Total job time:  62.22s(wall), 60.10s(cpu) 
 Sun Jul  7 08:42:40 2013

        *************************************************************
        *                                                           *
        *  Thank you very much for using Q-Chem.  Have a nice day.  *
        *                                                           *
        *************************************************************


0 sent ACK to 0 
now end server 0 ... 
