Process 0 of 1 is on cl197.stfx.acenet.ca - thread support 1
initial socket setup ...start
initial socket setup ...done 
now start server 0 ... 

cmd = /usr/bin/ssh clhead /usr/local/qchem/bin/get_hostid 1576805092 > /globalscratch/itamblyn/bnl/g297_b3lyp_neut_g03Large/g2g71060/omega500/qchem5779/lic.dat
                  Welcome to Q-Chem
     A Quantum Leap Into The Future Of Chemistry

 Y. Shao, L. Fusti-Molnar, Y. Jung, J. Kussmann, C. Ochsenfeld,
 S. T. Brown, A. T. B. Gilbert, L. V. Slipchenko,S. V. Levchenko,
 D. P. O'Neill, R. A. DiStasio Jr., R. C. Lochan, T. Wang,
 G. J. O. Beran, N. A. Besley, J. M. Herbert, C. Y. Lin,
 T. Van Voorhis, S. H. Chien, A. Sodt, R. P. Steele, 
 V. A. Rassolov, P. E. Maslen, P. P. Korambath, R. D. Adamson,
 B. Austin, J. Baker, E. F. C. Byrd, H. Dachsel, R. J. Doerksen,
 A. Dreuw, B. D. Dunietz, A. D. Dutoi, T. R. Furlani,
 S. R. Gwaltney, A. Heyden, S. Hirata, C.-P. Hsu, G. Kedziora,
 R. Z. Khaliullin, P. Klunzinger, A. M. Lee, M. S. Lee, W. Liang,
 I. Lotan, N. Nair, B. Peters, E. I. Proynov, P. A. Pieniazek, 
 Y. M. Rhee, J. Ritchie, E. Rosta, C. D. Sherrill, 
 A. C. Simmonett, J. E. Subotnik, H. L. Woodcock III,
 W. Zhang, A. T. Bell, A. K. Chakraborty, D. M. Chipman,
 F. J. Keil, A. Warshel, W. J. Hehre, H. F. Schaefer III,
 J. Kong, A. I. Krylov, P. M. W. Gill, M. Head-Gordon,
 Q-Chem, Version 3.1, Q-Chem, Inc., Pittsburgh, PA (2007).

 Additional authors for Version 3.1: 
 Z. Gan, Y. Zhao, N. E. Schultz, D. Truhlar, E. Epifanovsky and M. Oana.

 Additional authors for Version 3.2: 
 R. Baer, B. R. Brooks, D. Casanova, J.-D. Chai, C.-L. Cheng, 
 C. Cramer, D. Crittenden, A. Ghysels, G. Hawkins, E. G. Hohenstein, 
 C. Kelley, W. Kurlancheek, D. Liotard, E. Livshits, P. Manohar, 
 A. Marenich, D. Neuhauser, R. Olson, M. A. Rohrdanz, K. S. Thanthiriwatte, 
 A. J. W. Thom, V. Vanovschi, C. F. Williams, Q. Wu and Z.-Q. You. 


 Intel X86 Linux Version

 Q-chem begins on Mon Apr 11 17:47:57 2011  

 Parallel job on  1  processors
Processing $rem in /usr/local/qchem/config/preferences.

theFileMan(): MAXOPENFILES=974 MAX_SUB_FILE_NUM=16
Maximum size of a physical file is 2.0 GB, maximum size of a tmp-file is 32.0 GB


--------------------------------------------------------------
User input:
--------------------------------------------------------------

$molecule
-1,2
O
C,1,C-O
X,2,1.,1,90.
S,2,C-S,3,90.,1,180.,0

 C-O=1.16492344
 C-S=1.57427936

$end

$comment
negative
$end

$xc_functional
   X HF 1.0
   X BNL 1.0
   C LYP 1.0
$end

$rem
SYMMETRY_DECOMPOSITION	0
exchange 		general
BASIS                   g3large
omega			500
separate_jk		true
mem_static              760
max_scf_cycles          200
scf_final_print         1
sym_ignore              true
$end

--------------------------------------------------------------
 Writing REM_CC_EA            3
 ----------------------------------------------------
       Standard Nuclear Orientation (Angstroms)
    I     Atom         X            Y            Z
 ----------------------------------------------------
    1      O       0.000000     0.000000     0.000000
    2      C       0.000000     0.000000     1.164923
    3      S       0.000000     0.000000     2.739203
 ----------------------------------------------------
 Nuclear Repulsion Energy =    78.8017000018 hartrees
 There are       16 alpha and       15 beta electrons
 Requested basis set is G3large
 There are 39 shells and 150 basis functions

Total QAlloc Memory Limit   2000 MB
Mega-Array Size       743 MB
MEM_STATIC part       760 MB

                       Distance Matrix (Angstroms)
             O (  1)   C (  2)
   C (  2)  1.164923
   S (  3)  2.739203  1.574279
 
 A cutoff of  1.0D-08 yielded    702 shell pairs
 There are  10607 function pairs ( 14447 Cartesian)
Evaluating contribution to one-electron hamiltonian from nuclear
 Smallest overlap matrix eigenvalue = 2.27E-04
 Multipole matrices computed through 2nd order

  Scale SEOQF with 1.000000e-01/1.000000e-01/1.000000e-01

 Standard Electronic Orientation quadrupole field applied
 Nucleus-field energy     =    -0.0000000137 hartrees
 Guess from superposition of atomic densities
 Warning:  Energy on first SCF cycle will be non-variational
 An unrestricted hybrid HF-DFT SCF calculation will be
 performed using Pulay DIIS extrapolation
 Exchange:     1.0000 Hartree-Fock + 1.0000 BNL
 Correlation:  1.0000 LYP
 Using SG-1 standard quadrature grid
 SCF converges when DIIS error is below 1.0E-05
 Warning!  Inaccurate integrated density:
   Number of electrons =    31
   Numerical integral  =    30.000036715512
   Relative error      =    -3.2256880145 %
 ---------------------------------------
  Cycle       Energy         DIIS Error
 ---------------------------------------
    1    -509.3356826285      3.77E-02
    2    -508.7001093865      5.48E-03
    3    -508.7136340785      6.42E-03
    4    -508.7895728087      6.32E-04
    5    -508.7921243623      3.28E-04
    6    -508.7929214530      1.07E-04
    7    -508.7932236894      5.08E-05
    8    -508.7933018873      2.69E-05
    9    -508.7933368223      1.14E-05
   10    -508.7933440708      4.50E-06 Convergence criterion met
 ---------------------------------------
 One-Electron    Energy =  -867.9455019336
 Total Coulomb   Energy =   317.4419293094
 Alpha Exchange  Energy =    -3.9151457667
 Beta  Exchange  Energy =    -3.6910628618
 DFT   Exchange  Energy =   -28.3047881838
 DFT Correlation Energy =    -1.1804746224
 Nuclear Repu.   Energy =    78.8016999880
 Nuclear Attr.   Energy = -1375.8816137419
 Kinetic         Energy =   507.9361118084
 <S^2> = 0.7585
 SCF time:  CPU 62.22 s  wall 70.00 s
 Final Alpha MO Eigenvalues
            1           2           3           4           5           6
    1 -87.7230209 -18.6417661  -9.8895107  -7.6702142  -5.7158000  -5.7096158
            7           8           9          10          11          12
    1  -5.7077464  -1.0337182  -0.7341718  -0.4494550  -0.3895161  -0.3702841
           13          14          15          16          17          18
    1  -0.3580151  -0.2003406  -0.1738684   0.0216859   0.1933470   0.2151008
           19          20          21
    1   0.2397252   0.2512513   0.2645999
 Final Beta MO Eigenvalues
            1           2           3           4           5           6
    1 -87.7230616 -18.6355707  -9.8774079  -7.6700302  -5.7159709  -5.7096586
            7           8           9          10          11          12
    1  -5.7069802  -1.0212710  -0.7225077  -0.4305929  -0.3616065  -0.3398664
           13          14          15          16          17          18
    1  -0.3396394  -0.1732063  -0.1606172   0.1915814   0.2105978   0.2374886
           19          20
    1   0.2391907   0.2644439
 Analysis of SCF Wavefunction
 
 --------------------------------------------------------------
                    Orbital Energies (a.u.)
 --------------------------------------------------------------
 
 Alpha MOs
 -- Occupied --
-87.723 -18.642  -9.890  -7.670  -5.716  -5.710  -5.708  -1.034
 -0.734  -0.449  -0.390  -0.370  -0.358  -0.200  -0.174   0.022
 -- Virtual --
  0.193   0.215   0.240   0.251   0.265   0.274   0.278   0.324
  0.341   0.416   0.472   0.482   0.483   0.538   0.538   0.550
  0.585   0.663   0.667   0.678   0.709   0.718   0.878   0.880
  0.983   0.983   1.008   1.051   1.083   1.219   1.220   1.226
  1.226   1.318   1.329   1.329   1.362   1.362   1.375   1.376
  1.396   1.486   1.488   1.502   1.655   1.768   1.770   1.976
  1.982   1.983   2.163   2.168   2.383   2.555   2.659   2.662
  2.939   3.075   3.078   3.157   3.157   3.348   3.349   3.349
  3.351   3.444   3.598   3.599   3.661   3.858   3.858   3.880
  3.883   3.910   3.910   4.456   4.456   4.459   4.896   4.899
  5.148   5.218   5.221   5.399   5.402   5.407   5.408   5.539
  5.807   5.807   6.196   7.031   7.035   7.133   7.134   7.556
  7.603   7.606   8.054   9.139  17.410  17.412  18.047  23.760
 23.873  23.994  23.995  24.078  24.996  27.650  27.653  29.096
 31.249  31.249  31.254  31.255  31.288  31.290  31.385  41.067
 41.399  41.402  41.534  41.535  43.908  43.993  44.140  44.140
 44.238  46.152  46.154  47.026  50.851 190.099
 
 Beta MOs
 -- Occupied --
-87.723 -18.636  -9.877  -7.670  -5.716  -5.710  -5.707  -1.021
 -0.723  -0.431  -0.362  -0.340  -0.340  -0.173  -0.161
 -- Virtual --
  0.192   0.211   0.237   0.239   0.264   0.268   0.272   0.334
  0.340   0.355   0.423   0.472   0.483   0.488   0.542   0.542
  0.550   0.585   0.667   0.675   0.686   0.721   0.733   0.885
  0.901   1.001   1.002   1.018   1.053   1.095   1.222   1.228
  1.228   1.233   1.319   1.331   1.331   1.368   1.368   1.378
  1.390   1.399   1.488   1.500   1.509   1.661   1.770   1.784
  1.985   1.996   1.996   2.164   2.175   2.388   2.562   2.662
  2.677   2.951   3.089   3.117   3.188   3.188   3.354   3.368
  3.370   3.371   3.458   3.637   3.638   3.670   3.861   3.861
  3.889   3.908   3.915   3.915   4.460   4.468   4.474   4.898
  4.901   5.157   5.219   5.228   5.404   5.416   5.422   5.427
  5.546   5.819   5.819   6.203   7.037   7.054   7.154   7.154
  7.563   7.609   7.625   8.063   9.142  17.410  17.413  18.047
 23.761  23.874  23.993  23.996  24.078  25.012  27.658  27.674
 29.104  31.249  31.249  31.254  31.255  31.288  31.290  31.385
 41.088  41.408  41.424  41.542  41.555  43.925  44.009  44.145
 44.156  44.248  46.157  46.167  47.030  50.858 190.099
 --------------------------------------------------------------
 
          Ground-State Mulliken Net Atomic Charges

     Atom                 Charge (a.u.)    Spin (a.u.)
  --------------------------------------------------------
      1 O                    -0.441461       0.173124
      2 C                     0.101442       0.554997
      3 S                    -0.659981       0.271879
  --------------------------------------------------------
  Sum of atomic charges =    -1.000000
  Sum of spin   charges =     1.000000

 -----------------------------------------------------------------
                    Cartesian Multipole Moments
 -----------------------------------------------------------------
    Charge (ESU x 10^10)
                -4.8032
    Dipole Moment (Debye)
         X       0.0049      Y       0.0050      Z      -8.5681
       Tot       8.5681
    Quadrupole Moments (Debye-Ang)
        XX     -29.1657     XY      -1.5143     YY     -29.2027
        XZ       0.0203     YZ       0.0208     ZZ     -55.0310
    Octapole Moments (Debye-Ang^2)
       XXX       0.0338    XXY       0.0114    XYY       0.0113
       YYY       0.0343    XXZ     -56.9600    XYZ      -4.2719
       YYZ     -57.0645    XZZ       0.0903    YZZ       0.0922
       ZZZ    -230.5963
    Hexadecapole Moments (Debye-Ang^3)
      XXXX     -50.6371   XXXY      -4.3934   XXYY     -16.9149
      XYYY      -4.3934   YYYY     -50.8523   XXXZ       0.1365
      XXYZ       0.0462   XYYZ       0.0455   YYYZ       0.1386
      XXZZ    -168.0721   XYZZ     -15.9066   YYZZ    -168.4614
      XZZZ       0.3851   YZZZ       0.3930   ZZZZ   -1039.5120
 -----------------------------------------------------------------
 Total job time:  72.96s(wall), 62.41s(cpu) 
 Mon Apr 11 17:49:09 2011

        *************************************************************
        *                                                           *
        *  Thank you very much for using Q-Chem.  Have a nice day.  *
        *                                                           *
        *************************************************************


0 sent ACK to 0 
now end server 0 ... 
 
**********************************************************************
Job 2 of 3 
**********************************************************************
 
Process 0 of 1 is on cl197.stfx.acenet.ca - thread support 1
initial socket setup ...start
initial socket setup ...done 
now start server 0 ... 

cmd = /usr/bin/ssh clhead /usr/local/qchem/bin/get_hostid 705028808 > /globalscratch/itamblyn/bnl/g297_b3lyp_neut_g03Large/g2g71060/omega500/qchem5779/lic.dat
                  Welcome to Q-Chem
     A Quantum Leap Into The Future Of Chemistry

 Y. Shao, L. Fusti-Molnar, Y. Jung, J. Kussmann, C. Ochsenfeld,
 S. T. Brown, A. T. B. Gilbert, L. V. Slipchenko,S. V. Levchenko,
 D. P. O'Neill, R. A. DiStasio Jr., R. C. Lochan, T. Wang,
 G. J. O. Beran, N. A. Besley, J. M. Herbert, C. Y. Lin,
 T. Van Voorhis, S. H. Chien, A. Sodt, R. P. Steele, 
 V. A. Rassolov, P. E. Maslen, P. P. Korambath, R. D. Adamson,
 B. Austin, J. Baker, E. F. C. Byrd, H. Dachsel, R. J. Doerksen,
 A. Dreuw, B. D. Dunietz, A. D. Dutoi, T. R. Furlani,
 S. R. Gwaltney, A. Heyden, S. Hirata, C.-P. Hsu, G. Kedziora,
 R. Z. Khaliullin, P. Klunzinger, A. M. Lee, M. S. Lee, W. Liang,
 I. Lotan, N. Nair, B. Peters, E. I. Proynov, P. A. Pieniazek, 
 Y. M. Rhee, J. Ritchie, E. Rosta, C. D. Sherrill, 
 A. C. Simmonett, J. E. Subotnik, H. L. Woodcock III,
 W. Zhang, A. T. Bell, A. K. Chakraborty, D. M. Chipman,
 F. J. Keil, A. Warshel, W. J. Hehre, H. F. Schaefer III,
 J. Kong, A. I. Krylov, P. M. W. Gill, M. Head-Gordon,
 Q-Chem, Version 3.1, Q-Chem, Inc., Pittsburgh, PA (2007).

 Additional authors for Version 3.1: 
 Z. Gan, Y. Zhao, N. E. Schultz, D. Truhlar, E. Epifanovsky and M. Oana.

 Additional authors for Version 3.2: 
 R. Baer, B. R. Brooks, D. Casanova, J.-D. Chai, C.-L. Cheng, 
 C. Cramer, D. Crittenden, A. Ghysels, G. Hawkins, E. G. Hohenstein, 
 C. Kelley, W. Kurlancheek, D. Liotard, E. Livshits, P. Manohar, 
 A. Marenich, D. Neuhauser, R. Olson, M. A. Rohrdanz, K. S. Thanthiriwatte, 
 A. J. W. Thom, V. Vanovschi, C. F. Williams, Q. Wu and Z.-Q. You. 


 Intel X86 Linux Version

 Q-chem begins on Mon Apr 11 17:49:14 2011  

 Parallel job on  1  processors
Processing $rem in /usr/local/qchem/config/preferences.

theFileMan(): MAXOPENFILES=974 MAX_SUB_FILE_NUM=16
Maximum size of a physical file is 2.0 GB, maximum size of a tmp-file is 32.0 GB


--------------------------------------------------------------
User input:
--------------------------------------------------------------

$molecule
0,1
O
C,1,C-O
X,2,1.,1,90.
S,2,C-S,3,90.,1,180.,0

 C-O=1.16492344
 C-S=1.57427936

$end

$comment
neutral
$end

$xc_functional
   X HF 1.0
   X BNL 1.0
   C LYP 1.0
$end

$rem
SYMMETRY_DECOMPOSITION	0
exchange 		general
BASIS                   g3large
omega			500
separate_jk		true
mem_static              760
max_scf_cycles          200
scf_final_print         1
sym_ignore              true
$end

--------------------------------------------------------------
 Writing REM_CC_EA            3
 ----------------------------------------------------
       Standard Nuclear Orientation (Angstroms)
    I     Atom         X            Y            Z
 ----------------------------------------------------
    1      O       0.000000     0.000000     0.000000
    2      C       0.000000     0.000000     1.164923
    3      S       0.000000     0.000000     2.739203
 ----------------------------------------------------
 Nuclear Repulsion Energy =    78.8017000018 hartrees
 There are       15 alpha and       15 beta electrons
 Requested basis set is G3large
 There are 39 shells and 150 basis functions

Total QAlloc Memory Limit   2000 MB
Mega-Array Size       743 MB
MEM_STATIC part       760 MB

                       Distance Matrix (Angstroms)
             O (  1)   C (  2)
   C (  2)  1.164923
   S (  3)  2.739203  1.574279
 
 A cutoff of  1.0D-08 yielded    702 shell pairs
 There are  10607 function pairs ( 14447 Cartesian)
Evaluating contribution to one-electron hamiltonian from nuclear
 Smallest overlap matrix eigenvalue = 2.27E-04
 Multipole matrices computed through 2nd order

  Scale SEOQF with 1.000000e-01/1.000000e-01/1.000000e-01

 Standard Electronic Orientation quadrupole field applied
 Nucleus-field energy     =    -0.0000000137 hartrees
 Guess from superposition of atomic densities
 Warning:  Energy on first SCF cycle will be non-variational
 A restricted hybrid HF-DFT SCF calculation will be
 performed using Pulay DIIS extrapolation
 Exchange:     1.0000 Hartree-Fock + 1.0000 BNL
 Correlation:  1.0000 LYP
 Using SG-1 standard quadrature grid
 SCF converges when DIIS error is below 1.0E-05
 ---------------------------------------
  Cycle       Energy         DIIS Error
 ---------------------------------------
    1    -509.3356826285      3.77E-02
    2    -508.7402261509      5.55E-03
    3    -508.7208182363      7.50E-03
    4    -508.8240384650      7.21E-04
    5    -508.8262753490      4.85E-04
    6    -508.8273573559      1.54E-04
    7    -508.8276339713      6.05E-05
    8    -508.8277029757      2.48E-05
    9    -508.8277168170      8.83E-06 Convergence criterion met
 ---------------------------------------
 One-Electron    Energy =  -859.8517970265
 Total Coulomb   Energy =   308.9856067549
 Alpha Exchange  Energy =    -3.7094877651
 Beta  Exchange  Energy =    -3.7094877651
 DFT   Exchange  Energy =   -28.1892569969
 DFT Correlation Energy =    -1.1549940065
 Nuclear Repu.   Energy =    78.8016999880
 Nuclear Attr.   Energy = -1367.3644170041
 Kinetic         Energy =   507.5126199776
 SCF time:  CPU 48.65 s  wall 64.54 s
 Final Alpha MO Eigenvalues
            1           2           3           4           5           6
    1 -87.9878157 -18.9330118 -10.2229033  -7.9364509  -5.9823262  -5.9746292
            7           8           9          10          11          12
    1  -5.9746190  -1.3132503  -1.0024775  -0.7074989  -0.6398301  -0.6398187
           13          14          15          16          17          18
    1  -0.6152446  -0.4261111  -0.4260880   0.0423031   0.0457904   0.0458067
           19          20
    1   0.0715922   0.0952348
 Analysis of SCF Wavefunction
 
 --------------------------------------------------------------
                    Orbital Energies (a.u.)
 --------------------------------------------------------------
 
 Alpha MOs
 -- Occupied --
-87.988 -18.933 -10.223  -7.936  -5.982  -5.975  -5.975  -1.313
 -1.002  -0.707  -0.640  -0.640  -0.615  -0.426  -0.426
 -- Virtual --
  0.042   0.046   0.046   0.072   0.095   0.095   0.116   0.133
  0.133   0.167   0.200   0.301   0.310   0.310   0.312   0.312
  0.370   0.388   0.447   0.447   0.460   0.493   0.493   0.654
  0.654   0.740   0.740   0.771   0.823   0.835   0.980   0.980
  0.991   0.991   1.080   1.080   1.090   1.117   1.117   1.144
  1.144   1.175   1.245   1.245   1.245   1.413   1.522   1.522
  1.731   1.732   1.732   1.914   1.914   2.134   2.297   2.408
  2.408   2.680   2.796   2.796   2.885   2.885   3.078   3.078
  3.080   3.080   3.169   3.318   3.318   3.396   3.597   3.597
  3.603   3.603   3.646   3.646   4.180   4.190   4.190   4.633
  4.636   4.870   4.952   4.952   5.133   5.133   5.140   5.140
  5.272   5.538   5.538   5.923   6.756   6.756   6.862   6.863
  7.283   7.335   7.335   7.780   8.872  17.146  17.146  17.780
 23.495  23.608  23.728  23.728  23.810  24.673  27.320  27.320
 28.768  30.983  30.983  30.988  30.988  31.023  31.023  31.118
 40.735  41.067  41.071  41.203  41.203  43.622  43.707  43.853
 43.853  43.950  45.863  45.863  46.736  50.562 189.834
 --------------------------------------------------------------
 
          Ground-State Mulliken Net Atomic Charges

     Atom                 Charge (a.u.)
  ----------------------------------------
      1 O                    -0.179997
      2 C                     0.279116
      3 S                    -0.099119
  ----------------------------------------
  Sum of atomic charges =     0.000000

 -----------------------------------------------------------------
                    Cartesian Multipole Moments
 -----------------------------------------------------------------
    Charge (ESU x 10^10)
                 0.0000
    Dipole Moment (Debye)
         X       0.0000      Y       0.0000      Z       0.8142
       Tot       0.8142
    Quadrupole Moments (Debye-Ang)
        XX     -23.6039     XY       0.0003     YY     -23.6039
        XZ      -0.0002     YZ       0.0000     ZZ     -22.1569
    Octapole Moments (Debye-Ang^2)
       XXX       0.0000    XXY       0.0000    XYY       0.0000
       YYY       0.0000    XXZ     -42.5277    XYZ       0.0019
       YYZ     -42.5277    XZZ      -0.0007    YZZ      -0.0001
       ZZZ    -114.0854
    Hexadecapole Moments (Debye-Ang^3)
      XXXX     -27.7505   XXXY       0.0006   XXYY      -9.2502
      XYYY       0.0006   YYYY     -27.7505   XXXZ      -0.0002
      XXYZ       0.0000   XYYZ      -0.0001   YYYZ       0.0000
      XXZZ    -116.0910   XYZZ       0.0059   YYZZ    -116.0909
      XZZZ      -0.0031   YZZZ      -0.0003   ZZZZ    -585.9565
 -----------------------------------------------------------------
 Total job time:  68.15s(wall), 48.82s(cpu) 
 Mon Apr 11 17:50:22 2011

        *************************************************************
        *                                                           *
        *  Thank you very much for using Q-Chem.  Have a nice day.  *
        *                                                           *
        *************************************************************


0 sent ACK to 0 
now end server 0 ... 
 
**********************************************************************
Job 3 of 3 
**********************************************************************
 
Process 0 of 1 is on cl197.stfx.acenet.ca - thread support 1
initial socket setup ...start
initial socket setup ...done 
now start server 0 ... 

cmd = /usr/bin/ssh clhead /usr/local/qchem/bin/get_hostid 1218769177 > /globalscratch/itamblyn/bnl/g297_b3lyp_neut_g03Large/g2g71060/omega500/qchem5779/lic.dat
                  Welcome to Q-Chem
     A Quantum Leap Into The Future Of Chemistry

 Y. Shao, L. Fusti-Molnar, Y. Jung, J. Kussmann, C. Ochsenfeld,
 S. T. Brown, A. T. B. Gilbert, L. V. Slipchenko,S. V. Levchenko,
 D. P. O'Neill, R. A. DiStasio Jr., R. C. Lochan, T. Wang,
 G. J. O. Beran, N. A. Besley, J. M. Herbert, C. Y. Lin,
 T. Van Voorhis, S. H. Chien, A. Sodt, R. P. Steele, 
 V. A. Rassolov, P. E. Maslen, P. P. Korambath, R. D. Adamson,
 B. Austin, J. Baker, E. F. C. Byrd, H. Dachsel, R. J. Doerksen,
 A. Dreuw, B. D. Dunietz, A. D. Dutoi, T. R. Furlani,
 S. R. Gwaltney, A. Heyden, S. Hirata, C.-P. Hsu, G. Kedziora,
 R. Z. Khaliullin, P. Klunzinger, A. M. Lee, M. S. Lee, W. Liang,
 I. Lotan, N. Nair, B. Peters, E. I. Proynov, P. A. Pieniazek, 
 Y. M. Rhee, J. Ritchie, E. Rosta, C. D. Sherrill, 
 A. C. Simmonett, J. E. Subotnik, H. L. Woodcock III,
 W. Zhang, A. T. Bell, A. K. Chakraborty, D. M. Chipman,
 F. J. Keil, A. Warshel, W. J. Hehre, H. F. Schaefer III,
 J. Kong, A. I. Krylov, P. M. W. Gill, M. Head-Gordon,
 Q-Chem, Version 3.1, Q-Chem, Inc., Pittsburgh, PA (2007).

 Additional authors for Version 3.1: 
 Z. Gan, Y. Zhao, N. E. Schultz, D. Truhlar, E. Epifanovsky and M. Oana.

 Additional authors for Version 3.2: 
 R. Baer, B. R. Brooks, D. Casanova, J.-D. Chai, C.-L. Cheng, 
 C. Cramer, D. Crittenden, A. Ghysels, G. Hawkins, E. G. Hohenstein, 
 C. Kelley, W. Kurlancheek, D. Liotard, E. Livshits, P. Manohar, 
 A. Marenich, D. Neuhauser, R. Olson, M. A. Rohrdanz, K. S. Thanthiriwatte, 
 A. J. W. Thom, V. Vanovschi, C. F. Williams, Q. Wu and Z.-Q. You. 


 Intel X86 Linux Version

 Q-chem begins on Mon Apr 11 17:50:29 2011  

 Parallel job on  1  processors
Processing $rem in /usr/local/qchem/config/preferences.

theFileMan(): MAXOPENFILES=974 MAX_SUB_FILE_NUM=16
Maximum size of a physical file is 2.0 GB, maximum size of a tmp-file is 32.0 GB


--------------------------------------------------------------
User input:
--------------------------------------------------------------

$molecule
1,2
O
C,1,C-O
X,2,1.,1,90.
S,2,C-S,3,90.,1,180.,0

 C-O=1.16492344
 C-S=1.57427936

$end

$comment
positive
$end

$xc_functional
   X HF 1.0
   X BNL 1.0
   C LYP 1.0
$end

$rem
SYMMETRY_DECOMPOSITION	0
exchange 		general
BASIS                   g3large
omega			500
separate_jk		true
mem_static              760
max_scf_cycles          200
scf_final_print         1
sym_ignore              true
$end

--------------------------------------------------------------
 Writing REM_CC_EA            3
 ----------------------------------------------------
       Standard Nuclear Orientation (Angstroms)
    I     Atom         X            Y            Z
 ----------------------------------------------------
    1      O       0.000000     0.000000     0.000000
    2      C       0.000000     0.000000     1.164923
    3      S       0.000000     0.000000     2.739203
 ----------------------------------------------------
 Nuclear Repulsion Energy =    78.8017000018 hartrees
 There are       15 alpha and       14 beta electrons
 Requested basis set is G3large
 There are 39 shells and 150 basis functions

Total QAlloc Memory Limit   2000 MB
Mega-Array Size       743 MB
MEM_STATIC part       760 MB

                       Distance Matrix (Angstroms)
             O (  1)   C (  2)
   C (  2)  1.164923
   S (  3)  2.739203  1.574279
 
 A cutoff of  1.0D-08 yielded    702 shell pairs
 There are  10607 function pairs ( 14447 Cartesian)
Evaluating contribution to one-electron hamiltonian from nuclear
 Smallest overlap matrix eigenvalue = 2.27E-04
 Multipole matrices computed through 2nd order

  Scale SEOQF with 1.000000e-01/1.000000e-01/1.000000e-01

 Standard Electronic Orientation quadrupole field applied
 Nucleus-field energy     =    -0.0000000137 hartrees
 Guess from superposition of atomic densities
 Warning:  Energy on first SCF cycle will be non-variational
 An unrestricted hybrid HF-DFT SCF calculation will be
 performed using Pulay DIIS extrapolation
 Exchange:     1.0000 Hartree-Fock + 1.0000 BNL
 Correlation:  1.0000 LYP
 Using SG-1 standard quadrature grid
 SCF converges when DIIS error is below 1.0E-05
 Warning!  Inaccurate integrated density:
   Number of electrons =    29
   Numerical integral  =    30.000036715512
   Relative error      =     3.4484024673 %
 ---------------------------------------
  Cycle       Energy         DIIS Error
 ---------------------------------------
    1    -509.3356826285      3.77E-02
    2    -508.2744375759      6.12E-03
    3    -508.2727920755      8.21E-03
    4    -508.4032828641      1.27E-03
    5    -508.4079039600      3.99E-04
    6    -508.4094042004      1.58E-04
    7    -508.4098458203      8.50E-05
    8    -508.4099970119      2.82E-05
    9    -508.4100336803      9.45E-06 Convergence criterion met
 ---------------------------------------
 One-Electron    Energy =  -850.3952498049
 Total Coulomb   Energy =   299.6146015877
 Alpha Exchange  Energy =    -3.7351725313
 Beta  Exchange  Energy =    -3.5005571981
 DFT   Exchange  Energy =   -28.0770640825
 DFT Correlation Energy =    -1.1182916393
 Nuclear Repu.   Energy =    78.8016999880
 Nuclear Attr.   Energy = -1357.5678970226
 Kinetic         Energy =   507.1726472178
 <S^2> = 0.7693
 SCF time:  CPU 57.19 s  wall 63.94 s
 Final Alpha MO Eigenvalues
            1           2           3           4           5           6
    1 -88.3469861 -19.2461215 -10.5096852  -8.2903968  -6.3399542  -6.3335202
            7           8           9          10          11          12
    1  -6.3237164  -1.6025123  -1.3360112  -0.9912642  -0.9347930  -0.9233046
           13          14          15          16          17          18
    1  -0.9204648  -0.7720397  -0.7324362  -0.2378422  -0.2246763  -0.1491722
           19          20
    1  -0.1247306  -0.0740669
 Final Beta MO Eigenvalues
            1           2           3           4           5           6
    1 -88.3417235 -19.2386761 -10.5125553  -8.2847737  -6.3298144  -6.3276738
            7           8           9          10          11          12
    1  -6.3190433  -1.5919331  -1.2986865  -0.9782755  -0.9165173  -0.9068260
           13          14          15          16          17          18
    1  -0.8908219  -0.7176698  -0.4121960  -0.2238953  -0.1944556  -0.1454330
           19
    1  -0.1170446
 Analysis of SCF Wavefunction
 
 --------------------------------------------------------------
                    Orbital Energies (a.u.)
 --------------------------------------------------------------
 
 Alpha MOs
 -- Occupied --
-88.347 -19.246 -10.510  -8.290  -6.340  -6.334  -6.324  -1.603
 -1.336  -0.991  -0.935  -0.923  -0.920  -0.772  -0.732
 -- Virtual --
 -0.238  -0.225  -0.149  -0.125  -0.074  -0.070  -0.070  -0.025
 -0.022  -0.018   0.021   0.030   0.033   0.118   0.137   0.141
  0.177   0.179   0.193   0.195   0.237   0.243   0.257   0.419
  0.424   0.471   0.472   0.506   0.550   0.612   0.695   0.707
  0.709   0.713   0.762   0.763   0.837   0.837   0.841   0.882
  0.897   0.930   0.963   0.964   0.979   1.146   1.236   1.253
  1.462   1.462   1.470   1.598   1.623   1.852   2.014   2.127
  2.140   2.404   2.518   2.522   2.606   2.606   2.765   2.781
  2.784   2.784   2.885   3.040   3.040   3.090   3.245   3.245
  3.307   3.308   3.310   3.319   3.863   3.874   3.882   4.284
  4.287   4.554   4.607   4.628   4.828   4.843   4.854   4.856
  4.974   5.252   5.252   5.609   6.455   6.468   6.559   6.559
  6.999   7.038   7.052   7.484   8.537  16.782  16.800  17.431
 23.137  23.250  23.369  23.381  23.460  24.386  27.034  27.034
 28.478  30.627  30.628  30.635  30.635  30.666  30.677  30.769
 40.450  40.781  40.784  40.916  40.917  43.304  43.388  43.534
 43.545  43.639  45.545  45.555  46.428  50.251 189.477
 
 Beta MOs
 -- Occupied --
-88.342 -19.239 -10.513  -8.285  -6.330  -6.328  -6.319  -1.592
 -1.299  -0.978  -0.917  -0.907  -0.891  -0.718
 -- Virtual --
 -0.412  -0.224  -0.194  -0.145  -0.117  -0.071  -0.070  -0.070
 -0.025  -0.022  -0.018   0.024   0.056   0.057   0.120   0.141
  0.142   0.180   0.195   0.197   0.199   0.240   0.253   0.258
  0.418   0.424   0.472   0.473   0.511   0.555   0.613   0.709
  0.715   0.720   0.721   0.788   0.789   0.844   0.845   0.846
  0.894   0.900   0.938   0.967   0.978   0.982   1.153   1.250
  1.257   1.472   1.474   1.474   1.622   1.629   1.858   2.020
  2.138   2.143   2.409   2.513   2.519   2.601   2.601   2.777
  2.784   2.787   2.787   2.886   3.031   3.032   3.100   3.281
  3.282   3.314   3.319   3.331   3.331   3.879   3.881   3.886
  4.300   4.303   4.559   4.626   4.634   4.852   4.854   4.870
  4.870   4.985   5.263   5.263   5.621   6.469   6.472   6.583
  6.584   7.005   7.059   7.060   7.495   8.546  16.798  16.807
 17.435  23.148  23.260  23.379  23.385  23.466  24.383  27.030
 27.032  28.477  30.632  30.633  30.639  30.639  30.671  30.679
 30.771  40.445  40.777  40.781  40.913  40.914  43.323  43.407
 43.552  43.553  43.650  45.559  45.560  46.433  50.260 189.482
 --------------------------------------------------------------
 
          Ground-State Mulliken Net Atomic Charges

     Atom                 Charge (a.u.)    Spin (a.u.)
  --------------------------------------------------------
      1 O                     0.084356       0.249593
      2 C                     0.455313      -0.115706
      3 S                     0.460330       0.866112
  --------------------------------------------------------
  Sum of atomic charges =     1.000000
  Sum of spin   charges =     1.000000

 -----------------------------------------------------------------
                    Cartesian Multipole Moments
 -----------------------------------------------------------------
    Charge (ESU x 10^10)
                 4.8032
    Dipole Moment (Debye)
         X      -0.0005      Y      -0.0005      Z      10.0579
       Tot      10.0579
    Quadrupole Moments (Debye-Ang)
        XX     -19.6845     XY       0.9484     YY     -19.7406
        XZ      -0.0019     YZ      -0.0018     ZZ       5.8505
    Octapole Moments (Debye-Ang^2)
       XXX      -0.0005    XXY      -0.0002    XYY      -0.0002
       YYY      -0.0005    XXZ     -33.9441    XYZ       2.2385
       YYZ     -34.0762    XZZ      -0.0068    YZZ      -0.0063
       ZZZ     -28.7398
    Hexadecapole Moments (Debye-Ang^3)
      XXXX     -18.9773   XXXY       0.9204   XXYY      -6.3405
      XYYY       0.9201   YYYY     -19.0860   XXXZ      -0.0018
      XXYZ      -0.0005   XYYZ      -0.0006   YYYZ      -0.0016
      XXZZ     -90.6860   XYZZ       6.1814   YYZZ     -91.0512
      XZZZ      -0.0240   YZZZ      -0.0217   ZZZZ    -303.7050
 -----------------------------------------------------------------
 Total job time:  67.14s(wall), 57.37s(cpu) 
 Mon Apr 11 17:51:36 2011

        *************************************************************
        *                                                           *
        *  Thank you very much for using Q-Chem.  Have a nice day.  *
        *                                                           *
        *************************************************************


0 sent ACK to 0 
now end server 0 ... 
