Process 0 of 1 is on cl134 - thread support 1
initial socket setup ...start
initial socket setup ...done 
now start server 0 ... 

cmd = /usr/bin/ssh clhead /usr/local/qchem/bin/get_hostid 803473869 > /tmp/1591951.1.medium.q/qchem5566/lic.dat

cmd = /usr/bin/ssh clhead /usr/local/qchem/bin/get_hostid 803473869 > /tmp/1591951.1.medium.q/qchem5566/lic.dat

cmd = /usr/bin/ssh clhead /usr/local/qchem/bin/get_hostid 803473869 > /tmp/1591951.1.medium.q/qchem5566/lic.dat

cmd = /usr/bin/ssh clhead /usr/local/qchem/bin/get_hostid 803473869 > /tmp/1591951.1.medium.q/qchem5566/lic.dat

cmd = /usr/bin/ssh clhead /usr/local/qchem/bin/get_hostid 803473869 > /tmp/1591951.1.medium.q/qchem5566/lic.dat
                  Welcome to Q-Chem
     A Quantum Leap Into The Future Of Chemistry

 Y. Shao, L. Fusti-Molnar, Y. Jung, J. Kussmann, C. Ochsenfeld,
 S. T. Brown, A. T. B. Gilbert, L. V. Slipchenko,S. V. Levchenko,
 D. P. O'Neill, R. A. DiStasio Jr., R. C. Lochan, T. Wang,
 G. J. O. Beran, N. A. Besley, J. M. Herbert, C. Y. Lin,
 T. Van Voorhis, S. H. Chien, A. Sodt, R. P. Steele, 
 V. A. Rassolov, P. E. Maslen, P. P. Korambath, R. D. Adamson,
 B. Austin, J. Baker, E. F. C. Byrd, H. Dachsel, R. J. Doerksen,
 A. Dreuw, B. D. Dunietz, A. D. Dutoi, T. R. Furlani,
 S. R. Gwaltney, A. Heyden, S. Hirata, C.-P. Hsu, G. Kedziora,
 R. Z. Khaliullin, P. Klunzinger, A. M. Lee, M. S. Lee, W. Liang,
 I. Lotan, N. Nair, B. Peters, E. I. Proynov, P. A. Pieniazek, 
 Y. M. Rhee, J. Ritchie, E. Rosta, C. D. Sherrill, 
 A. C. Simmonett, J. E. Subotnik, H. L. Woodcock III,
 W. Zhang, A. T. Bell, A. K. Chakraborty, D. M. Chipman,
 F. J. Keil, A. Warshel, W. J. Hehre, H. F. Schaefer III,
 J. Kong, A. I. Krylov, P. M. W. Gill, M. Head-Gordon,
 Q-Chem, Version 3.1, Q-Chem, Inc., Pittsburgh, PA (2007).

 Additional authors for Version 3.1: 
 Z. Gan, Y. Zhao, N. E. Schultz, D. Truhlar, E. Epifanovsky and M. Oana.

 Additional authors for Version 3.2: 
 R. Baer, B. R. Brooks, D. Casanova, J.-D. Chai, C.-L. Cheng, 
 C. Cramer, D. Crittenden, A. Ghysels, G. Hawkins, E. G. Hohenstein, 
 C. Kelley, W. Kurlancheek, D. Liotard, E. Livshits, P. Manohar, 
 A. Marenich, D. Neuhauser, R. Olson, M. A. Rohrdanz, K. S. Thanthiriwatte, 
 A. J. W. Thom, V. Vanovschi, C. F. Williams, Q. Wu and Z.-Q. You. 


 Intel X86 Linux Version

 Q-chem begins on Tue Mar 18 15:32:55 2014  

 Parallel job on  1  processors
Processing $rem in /usr/local/qchem/config/preferences.

theFileMan(): MAXOPENFILES=974 MAX_SUB_FILE_NUM=16
Maximum size of a physical file is 2.0 GB, maximum size of a tmp-file is 32.0 GB


--------------------------------------------------------------
User input:
--------------------------------------------------------------

$molecule
-1,2
C         -0.00006        0.00015        0.99980
C          1.26532        0.76004        0.98857
C          1.26516       -0.76001        0.98799
C         -1.27231       -0.00021        0.25137
C         -1.25820        0.00027        1.77153
H          1.57504        1.26150        1.90176
H          1.55860        1.26345        0.07108
H          1.57486       -1.26190        1.90095
H          1.55826       -1.26313        0.07027
H         -1.57794       -0.91602       -0.24774
H         -1.57802        0.91521       -0.24839
H         -1.55535       -0.91513        2.27650
H         -1.55537        0.91578        2.27629
$end

$comment
negative
$end

$xc_functional
C PBE   1.00
X wPBE  1.00
$end

$rem
SYMMETRY_DECOMPOSITION	0
exchange 		general
LRC_DFT                 true
BASIS                   g3large
omega			2000
mem_static              760
max_scf_cycles          200
scf_final_print         1
sym_ignore              true
$end

--------------------------------------------------------------
 Writing REM_CC_EA           13
 ----------------------------------------------------
       Standard Nuclear Orientation (Angstroms)
    I     Atom         X            Y            Z
 ----------------------------------------------------
    1      C      -0.000060     0.000150     0.999800
    2      C       1.265320     0.760040     0.988570
    3      C       1.265160    -0.760010     0.987990
    4      C      -1.272310    -0.000210     0.251370
    5      C      -1.258200     0.000270     1.771530
    6      H       1.575040     1.261500     1.901760
    7      H       1.558600     1.263450     0.071080
    8      H       1.574860    -1.261900     1.900950
    9      H       1.558260    -1.263130     0.070270
   10      H      -1.577940    -0.916020    -0.247740
   11      H      -1.578020     0.915210    -0.248390
   12      H      -1.555350    -0.915130     2.276500
   13      H      -1.555370     0.915780     2.276290
 ----------------------------------------------------
 Nuclear Repulsion Energy =   170.9200549349 hartrees
 There are       20 alpha and       19 beta electrons
 Requested basis set is G3large
 There are 98 shells and 290 basis functions

Total QAlloc Memory Limit   2000 MB
Mega-Array Size       743 MB
MEM_STATIC part       760 MB

                       Distance Matrix (Angstroms)
             C (  1)   C (  2)   C (  3)   C (  4)   C (  5)   H (  6)
   C (  2)  1.476057
   C (  3)  1.476064  1.520050
   C (  4)  1.476065  2.749729  2.749302
   C (  5)  1.475969  2.749260  2.749419  1.520226
   H (  6)  2.210311  1.086878  2.239979  3.524642  3.104015
   H (  7)  2.210852  1.086841  2.240808  3.105381  3.524417  1.830755
   H (  8)  2.210252  2.239753  1.086878  3.524110  3.104199  2.523400
   H (  9)  2.210942  2.241050  1.086852  3.104817  3.524615  3.119037
   H ( 10)  2.210301  3.524453  3.103963  1.086843  2.240373  4.393544
   H ( 11)  2.210265  3.104630  3.524013  1.086836  2.240419  3.832082
   H ( 12)  2.210572  3.524363  3.104770  2.240166  1.086853  3.831121
   H ( 13)  2.210609  3.104637  3.524681  2.240416  1.086854  3.171634
             H (  7)   H (  8)   H (  9)   H ( 10)   H ( 11)   H ( 12)
   H (  8)  3.118667
   H (  9)  2.526580  1.830756
   H ( 10)  3.832704  3.831012  3.171335
   H ( 11)  3.172021  4.393190  3.831835  1.831230
   H ( 12)  4.393947  3.171672  3.831856  2.524341  3.118610
   H ( 13)  3.831532  3.831646  4.394185  3.118770  2.524782  1.830910

 
 A cutoff of  1.0D-08 yielded   4435 shell pairs
 There are  39245 function pairs ( 48051 Cartesian)
Evaluating contribution to one-electron hamiltonian from nuclear
 Smallest overlap matrix eigenvalue = 2.59E-05

 Q-Chem warning in module mkSTV.C, line 194:

 Overlap eigenvalue is smaller than square root of threshold

 Multipole matrices computed through 2nd order

  Scale SEOQF with 1.000000e-01/1.000000e-01/1.000000e-01

 Standard Electronic Orientation quadrupole field applied
 Nucleus-field energy     =    -0.0000000026 hartrees
 Guess from superposition of atomic densities
 Warning:  Energy on first SCF cycle will be non-variational
 Long-range K will be added via erf
 Coulomb attenuation parameter = 2 bohr**(-1)
 An unrestricted Kohn-Sham SCF calculation will be
 performed using Pulay DIIS extrapolation
 Exchange:  wPBE + LR-HF      Correlation:  PBE
 Using SG-1 standard quadrature grid
 SCF converges when DIIS error is below 1.0E-05
 Requested basis set is G3large
 There are 98 shells and 290 basis functions
 A cutoff of  1.0D-08 yielded   4435 shell pairs
 There are  39245 function pairs ( 48051 Cartesian)
 Warning!  Inaccurate integrated density:
   Number of electrons =    39
   Numerical integral  =    37.999764099938
   Relative error      =    -2.5647074361 %
 ---------------------------------------
  Cycle       Energy         DIIS Error
 ---------------------------------------
    1    -197.7521174688      3.12E-02
    2    -195.0493332127      2.76E-03
    3    -195.1757846761      1.26E-03
    4    -195.1966439430      4.02E-04
    5    -195.2008626666      9.15E-05
    6    -195.2012047957      3.41E-05
    7    -195.2012845552      1.23E-05
    8    -195.2013106060      6.63E-06 Convergence criterion met
 ---------------------------------------
 One-Electron    Energy =  -603.9999569375
 Total Coulomb   Energy =   268.0451791966
 Alpha Exchange  Energy =    -9.7712135498
 Beta  Exchange  Energy =    -9.7059751135
 DFT   Exchange  Energy =    -9.4293440164
 DFT Correlation Energy =    -1.2600551178
 Nuclear Repu.   Energy =   170.9200549324
 Nuclear Attr.   Energy =  -797.6778384150
 Kinetic         Energy =   193.6778814775
 <S^2> = 0.7501
 SCF time:  CPU 356.66 s  wall 358.31 s
 Final Alpha MO Eigenvalues
            1           2           3           4           5           6
    1 -10.7002817 -10.6893430 -10.6850966 -10.6850523 -10.6843782  -1.0885454
            7           8           9          10          11          12
    1  -0.9775732  -0.7385456  -0.7362436  -0.6538740  -0.5689542  -0.5545177
           13          14          15          16          17          18
    1  -0.5522274  -0.4310906  -0.4148056  -0.4044727  -0.3266499  -0.3258377
           19          20          21          22          23          24
    1  -0.3057538   0.0355473   0.1269003   0.1271118   0.1292451   0.1589631
           25
    1   0.1591601
 Final Beta MO Eigenvalues
            1           2           3           4           5           6
    1 -10.7003126 -10.6891692 -10.6848117 -10.6847701 -10.6840996  -1.0883391
            7           8           9          10          11          12
    1  -0.9771746  -0.7369888  -0.7344399  -0.6526892  -0.5677045  -0.5542643
           13          14          15          16          17          18
    1  -0.5518022  -0.4308991  -0.4146578  -0.4036109  -0.3264744  -0.3256665
           19          20          21          22          23          24
    1  -0.3050133   0.1255122   0.1382450   0.1403433   0.1431435   0.1597651
 Analysis of SCF Wavefunction
 
 --------------------------------------------------------------
                    Orbital Energies (a.u.)
 --------------------------------------------------------------
 
 Alpha MOs
 -- Occupied --
-10.700 -10.689 -10.685 -10.685 -10.684  -1.089  -0.978  -0.739
 -0.736  -0.654  -0.569  -0.555  -0.552  -0.431  -0.415  -0.404
 -0.327  -0.326  -0.306   0.036
 -- Virtual --
  0.127   0.127   0.129   0.159   0.159   0.163   0.180   0.192
  0.221   0.249   0.250   0.256   0.266   0.268   0.268   0.289
  0.294   0.297   0.310   0.321   0.321   0.329   0.340   0.342
  0.349   0.350   0.381   0.382   0.385   0.435   0.459   0.459
  0.473   0.494   0.500   0.501   0.556   0.573   0.574   0.581
  0.591   0.638   0.689   0.708   0.711   0.712   0.745   0.748
  0.794   0.827   0.828   0.829   0.869   0.875   0.876   0.877
  0.904   0.914   0.915   0.924   0.930   0.932   0.934   0.944
  0.994   1.063   1.073   1.073   1.079   1.096   1.130   1.156
  1.182   1.185   1.186   1.260   1.315   1.316   1.348   1.388
  1.388   1.389   1.425   1.430   1.432   1.445   1.483   1.483
  1.557   1.558   1.595   1.612   1.614   1.661   1.678   1.680
  1.685   1.704   1.710   1.721   1.745   1.774   1.775   1.792
  1.797   1.819   1.878   1.886   1.887   1.898   1.917   1.920
  1.930   1.973   2.124   2.147   2.147   2.155   2.863   2.865
  2.958   2.986   3.029   3.030   3.061   3.076   3.094   3.118
  3.118   3.192   3.193   3.193   3.244   3.303   3.304   3.311
  3.314   3.353   3.409   3.410   3.418   3.443   3.501   3.502
  3.504   3.505   3.540   3.545   3.551   3.620   3.623   3.650
  3.650   3.676   3.702   3.770   3.775   3.775   3.818   3.819
  3.870   3.871   3.886   3.913   3.952   3.967   3.984   3.984
  4.000   4.044   4.063   4.063   4.135   4.231   4.275   4.323
  4.332   4.333   4.393   4.394   4.421   4.512   4.556   4.557
  4.557   4.562   4.587   4.589   4.667   4.690   4.707   4.718
  4.788   4.801   4.809   4.811   4.812   4.851   4.852   4.947
  4.947   4.972   4.973   4.975   5.022   5.065   5.176   5.195
  5.383   5.384   5.442   5.444   5.552   5.743   5.852   5.942
  5.944   5.967   6.090   6.094   6.096   6.128   6.251   6.253
  6.307  24.917  24.941  25.194  25.197  25.267  28.267  28.328
 28.380  28.381  28.766  28.856  28.882  28.883  28.900  28.924
 28.924  28.939  29.324  29.327  29.763  41.727  41.745  41.765
 41.826  41.833  41.836  41.838  41.875  41.878  41.880  41.920
 41.928  41.929  41.934  41.934  41.945  41.966  41.988  42.029
 42.032  42.038  42.040  42.064  42.133  42.134
 
 Beta MOs
 -- Occupied --
-10.700 -10.689 -10.685 -10.685 -10.684  -1.088  -0.977  -0.737
 -0.734  -0.653  -0.568  -0.554  -0.552  -0.431  -0.415  -0.404
 -0.326  -0.326  -0.305
 -- Virtual --
  0.126   0.138   0.140   0.143   0.160   0.163   0.165   0.181
  0.188   0.218   0.242   0.243   0.248   0.257   0.260   0.261
  0.288   0.289   0.294   0.304   0.318   0.319   0.323   0.332
  0.339   0.341   0.343   0.377   0.379   0.384   0.431   0.459
  0.459   0.470   0.489   0.496   0.498   0.552   0.569   0.569
  0.577   0.589   0.636   0.687   0.705   0.708   0.708   0.743
  0.745   0.790   0.825   0.825   0.827   0.867   0.872   0.875
  0.876   0.902   0.913   0.914   0.922   0.928   0.930   0.930
  0.943   0.992   1.063   1.073   1.073   1.079   1.096   1.131
  1.156   1.182   1.185   1.186   1.260   1.315   1.316   1.348
  1.387   1.388   1.389   1.425   1.429   1.431   1.445   1.482
  1.483   1.557   1.558   1.595   1.612   1.613   1.661   1.678
  1.680   1.684   1.703   1.710   1.721   1.744   1.774   1.774
  1.791   1.797   1.818   1.877   1.885   1.886   1.897   1.916
  1.919   1.930   1.973   2.123   2.146   2.147   2.155   2.862
  2.865   2.958   2.985   3.028   3.030   3.061   3.076   3.094
  3.118   3.118   3.192   3.193   3.193   3.244   3.303   3.304
  3.311   3.314   3.353   3.409   3.410   3.418   3.444   3.501
  3.502   3.505   3.505   3.540   3.545   3.552   3.620   3.623
  3.650   3.651   3.676   3.702   3.770   3.775   3.775   3.818
  3.819   3.870   3.871   3.886   3.913   3.952   3.967   3.984
  3.985   4.000   4.044   4.063   4.063   4.135   4.231   4.275
  4.323   4.332   4.333   4.393   4.394   4.421   4.512   4.556
  4.557   4.557   4.562   4.587   4.589   4.667   4.690   4.707
  4.718   4.788   4.801   4.809   4.811   4.812   4.851   4.852
  4.947   4.947   4.972   4.973   4.975   5.022   5.065   5.176
  5.195   5.383   5.385   5.442   5.444   5.552   5.743   5.852
  5.942   5.944   5.967   6.090   6.094   6.096   6.128   6.251
  6.253   6.307  24.917  24.941  25.195  25.197  25.267  28.268
 28.328  28.380  28.381  28.766  28.857  28.882  28.883  28.900
 28.924  28.924  28.939  29.324  29.327  29.763  41.727  41.745
 41.765  41.826  41.833  41.836  41.838  41.875  41.878  41.881
 41.920  41.928  41.929  41.934  41.934  41.945  41.966  41.988
 42.029  42.032  42.038  42.040  42.064  42.133  42.134
 --------------------------------------------------------------
 
          Ground-State Mulliken Net Atomic Charges

     Atom                 Charge (a.u.)    Spin (a.u.)
  --------------------------------------------------------
      1 C                    -3.898589       4.668598
      2 C                     2.660071      -3.001575
      3 C                     0.465934      -0.783358
      4 C                     1.676636      -2.003751
      5 C                     1.582772      -1.909344
      6 H                    -0.545706       0.619672
      7 H                    -0.567232       0.642001
      8 H                    -0.209493       0.267818
      9 H                    -0.221898       0.281074
     10 H                    -0.255494       0.314215
     11 H                    -0.730722       0.810778
     12 H                    -0.244304       0.302354
     13 H                    -0.711974       0.791519
  --------------------------------------------------------
  Sum of atomic charges =    -1.000000
  Sum of spin   charges =     1.000000

 -----------------------------------------------------------------
                    Cartesian Multipole Moments
 -----------------------------------------------------------------
    Charge (ESU x 10^10)
                -4.8032
    Dipole Moment (Debye)
         X       1.2919      Y      -4.5019      Z      -4.6406
       Tot       6.5932
    Quadrupole Moments (Debye-Ang)
        XX     -75.0602     XY       1.4128     YY     -63.2349
        XZ       1.4237     YZ      -4.4156     ZZ     -65.6390
    Octapole Moments (Debye-Ang^2)
       XXX      19.8700    XXY     -28.1601    XYY       9.6446
       YYY     -61.3575    XXZ     -74.0493    XYZ       1.4488
       YYZ     -62.3452    XZZ       6.8351    YZZ     -28.9969
       ZZZ    -185.5504
    Hexadecapole Moments (Debye-Ang^3)
      XXXX   -1105.6439   XXXY       9.5889   XXYY    -288.4759
      XYYY      12.5553   YYYY    -567.1807   XXXZ      22.0870
      XXYZ     -27.6768   XYYZ      10.5457   YYYZ     -60.4356
      XXZZ    -352.5218   XYZZ       8.2724   YYZZ    -257.0429
      XZZZ      20.2293   YZZZ     -77.4108   ZZZZ    -893.7248
 -----------------------------------------------------------------
 Total job time:  358.75s(wall), 357.05s(cpu) 
 Tue Mar 18 15:38:54 2014

        *************************************************************
        *                                                           *
        *  Thank you very much for using Q-Chem.  Have a nice day.  *
        *                                                           *
        *************************************************************


0 sent ACK to 0 
now end server 0 ... 
 
**********************************************************************
Job 2 of 3 
**********************************************************************
 
Process 0 of 1 is on cl134 - thread support 1
initial socket setup ...start
initial socket setup ...done 
now start server 0 ... 

cmd = /usr/bin/ssh clhead /usr/local/qchem/bin/get_hostid 997006897 > /tmp/1591951.1.medium.q/qchem5566/lic.dat

cmd = /usr/bin/ssh clhead /usr/local/qchem/bin/get_hostid 997006897 > /tmp/1591951.1.medium.q/qchem5566/lic.dat

cmd = /usr/bin/ssh clhead /usr/local/qchem/bin/get_hostid 997006897 > /tmp/1591951.1.medium.q/qchem5566/lic.dat

cmd = /usr/bin/ssh clhead /usr/local/qchem/bin/get_hostid 997006897 > /tmp/1591951.1.medium.q/qchem5566/lic.dat

cmd = /usr/bin/ssh clhead /usr/local/qchem/bin/get_hostid 997006897 > /tmp/1591951.1.medium.q/qchem5566/lic.dat
                  Welcome to Q-Chem
     A Quantum Leap Into The Future Of Chemistry

 Y. Shao, L. Fusti-Molnar, Y. Jung, J. Kussmann, C. Ochsenfeld,
 S. T. Brown, A. T. B. Gilbert, L. V. Slipchenko,S. V. Levchenko,
 D. P. O'Neill, R. A. DiStasio Jr., R. C. Lochan, T. Wang,
 G. J. O. Beran, N. A. Besley, J. M. Herbert, C. Y. Lin,
 T. Van Voorhis, S. H. Chien, A. Sodt, R. P. Steele, 
 V. A. Rassolov, P. E. Maslen, P. P. Korambath, R. D. Adamson,
 B. Austin, J. Baker, E. F. C. Byrd, H. Dachsel, R. J. Doerksen,
 A. Dreuw, B. D. Dunietz, A. D. Dutoi, T. R. Furlani,
 S. R. Gwaltney, A. Heyden, S. Hirata, C.-P. Hsu, G. Kedziora,
 R. Z. Khaliullin, P. Klunzinger, A. M. Lee, M. S. Lee, W. Liang,
 I. Lotan, N. Nair, B. Peters, E. I. Proynov, P. A. Pieniazek, 
 Y. M. Rhee, J. Ritchie, E. Rosta, C. D. Sherrill, 
 A. C. Simmonett, J. E. Subotnik, H. L. Woodcock III,
 W. Zhang, A. T. Bell, A. K. Chakraborty, D. M. Chipman,
 F. J. Keil, A. Warshel, W. J. Hehre, H. F. Schaefer III,
 J. Kong, A. I. Krylov, P. M. W. Gill, M. Head-Gordon,
 Q-Chem, Version 3.1, Q-Chem, Inc., Pittsburgh, PA (2007).

 Additional authors for Version 3.1: 
 Z. Gan, Y. Zhao, N. E. Schultz, D. Truhlar, E. Epifanovsky and M. Oana.

 Additional authors for Version 3.2: 
 R. Baer, B. R. Brooks, D. Casanova, J.-D. Chai, C.-L. Cheng, 
 C. Cramer, D. Crittenden, A. Ghysels, G. Hawkins, E. G. Hohenstein, 
 C. Kelley, W. Kurlancheek, D. Liotard, E. Livshits, P. Manohar, 
 A. Marenich, D. Neuhauser, R. Olson, M. A. Rohrdanz, K. S. Thanthiriwatte, 
 A. J. W. Thom, V. Vanovschi, C. F. Williams, Q. Wu and Z.-Q. You. 


 Intel X86 Linux Version

 Q-chem begins on Tue Mar 18 15:38:58 2014  

 Parallel job on  1  processors
Processing $rem in /usr/local/qchem/config/preferences.

theFileMan(): MAXOPENFILES=974 MAX_SUB_FILE_NUM=16
Maximum size of a physical file is 2.0 GB, maximum size of a tmp-file is 32.0 GB


--------------------------------------------------------------
User input:
--------------------------------------------------------------

$molecule
0,1
C         -0.00006        0.00015        0.99980
C          1.26532        0.76004        0.98857
C          1.26516       -0.76001        0.98799
C         -1.27231       -0.00021        0.25137
C         -1.25820        0.00027        1.77153
H          1.57504        1.26150        1.90176
H          1.55860        1.26345        0.07108
H          1.57486       -1.26190        1.90095
H          1.55826       -1.26313        0.07027
H         -1.57794       -0.91602       -0.24774
H         -1.57802        0.91521       -0.24839
H         -1.55535       -0.91513        2.27650
H         -1.55537        0.91578        2.27629
$end

$comment
neutral
$end

$xc_functional
C PBE   1.00
X wPBE  1.00
$end


$rem
SYMMETRY_DECOMPOSITION	0
LRC_DFT                 true
exchange 		general
BASIS                   g3large
omega			2000
mem_static              760
max_scf_cycles          200
scf_final_print         1
sym_ignore              true
$end

--------------------------------------------------------------
 Writing REM_CC_EA           13
 ----------------------------------------------------
       Standard Nuclear Orientation (Angstroms)
    I     Atom         X            Y            Z
 ----------------------------------------------------
    1      C      -0.000060     0.000150     0.999800
    2      C       1.265320     0.760040     0.988570
    3      C       1.265160    -0.760010     0.987990
    4      C      -1.272310    -0.000210     0.251370
    5      C      -1.258200     0.000270     1.771530
    6      H       1.575040     1.261500     1.901760
    7      H       1.558600     1.263450     0.071080
    8      H       1.574860    -1.261900     1.900950
    9      H       1.558260    -1.263130     0.070270
   10      H      -1.577940    -0.916020    -0.247740
   11      H      -1.578020     0.915210    -0.248390
   12      H      -1.555350    -0.915130     2.276500
   13      H      -1.555370     0.915780     2.276290
 ----------------------------------------------------
 Nuclear Repulsion Energy =   170.9200549349 hartrees
 There are       19 alpha and       19 beta electrons
 Requested basis set is G3large
 There are 98 shells and 290 basis functions

Total QAlloc Memory Limit   2000 MB
Mega-Array Size       743 MB
MEM_STATIC part       760 MB

                       Distance Matrix (Angstroms)
             C (  1)   C (  2)   C (  3)   C (  4)   C (  5)   H (  6)
   C (  2)  1.476057
   C (  3)  1.476064  1.520050
   C (  4)  1.476065  2.749729  2.749302
   C (  5)  1.475969  2.749260  2.749419  1.520226
   H (  6)  2.210311  1.086878  2.239979  3.524642  3.104015
   H (  7)  2.210852  1.086841  2.240808  3.105381  3.524417  1.830755
   H (  8)  2.210252  2.239753  1.086878  3.524110  3.104199  2.523400
   H (  9)  2.210942  2.241050  1.086852  3.104817  3.524615  3.119037
   H ( 10)  2.210301  3.524453  3.103963  1.086843  2.240373  4.393544
   H ( 11)  2.210265  3.104630  3.524013  1.086836  2.240419  3.832082
   H ( 12)  2.210572  3.524363  3.104770  2.240166  1.086853  3.831121
   H ( 13)  2.210609  3.104637  3.524681  2.240416  1.086854  3.171634
             H (  7)   H (  8)   H (  9)   H ( 10)   H ( 11)   H ( 12)
   H (  8)  3.118667
   H (  9)  2.526580  1.830756
   H ( 10)  3.832704  3.831012  3.171335
   H ( 11)  3.172021  4.393190  3.831835  1.831230
   H ( 12)  4.393947  3.171672  3.831856  2.524341  3.118610
   H ( 13)  3.831532  3.831646  4.394185  3.118770  2.524782  1.830910

 
 A cutoff of  1.0D-08 yielded   4435 shell pairs
 There are  39245 function pairs ( 48051 Cartesian)
Evaluating contribution to one-electron hamiltonian from nuclear
 Smallest overlap matrix eigenvalue = 2.59E-05

 Q-Chem warning in module mkSTV.C, line 194:

 Overlap eigenvalue is smaller than square root of threshold

 Multipole matrices computed through 2nd order

  Scale SEOQF with 1.000000e-01/1.000000e-01/1.000000e-01

 Standard Electronic Orientation quadrupole field applied
 Nucleus-field energy     =    -0.0000000026 hartrees
 Guess from superposition of atomic densities
 Warning:  Energy on first SCF cycle will be non-variational
 Long-range K will be added via erf
 Coulomb attenuation parameter = 2 bohr**(-1)
 A restricted Kohn-Sham SCF calculation will be
 performed using Pulay DIIS extrapolation
 Exchange:  wPBE + LR-HF      Correlation:  PBE
 Using SG-1 standard quadrature grid
 SCF converges when DIIS error is below 1.0E-05
 Requested basis set is G3large
 There are 98 shells and 290 basis functions
 A cutoff of  1.0D-08 yielded   4435 shell pairs
 There are  39245 function pairs ( 48051 Cartesian)
 ---------------------------------------
  Cycle       Energy         DIIS Error
 ---------------------------------------
    1    -197.7521174688      3.12E-02
    2    -195.1180219782      2.67E-03
    3    -195.2231058844      1.09E-03
    4    -195.2372697863      3.74E-04
    5    -195.2398384321      7.33E-05
    6    -195.2399618071      2.87E-05
    7    -195.2399792889      8.16E-06 Convergence criterion met
 ---------------------------------------
 One-Electron    Energy =  -599.4484514951
 Total Coulomb   Energy =   263.3907904703
 Alpha Exchange  Energy =    -9.7101101227
 Beta  Exchange  Energy =    -9.7101101227
 DFT   Exchange  Energy =    -9.4283351023
 DFT Correlation Energy =    -1.2538178487
 Nuclear Repu.   Energy =   170.9200549324
 Nuclear Attr.   Energy =  -793.0613830710
 Kinetic         Energy =   193.6129315759
 SCF time:  CPU 236.37 s  wall 237.85 s
 Final Alpha MO Eigenvalues
            1           2           3           4           5           6
    1 -10.8210332 -10.8076385 -10.8075662 -10.8069284 -10.8069120  -1.2092229
            7           8           9          10          11          12
    1  -1.0980996  -0.8571020  -0.8570610  -0.7736896  -0.6886657  -0.6742119
           13          14          15          16          17          18
    1  -0.6741562  -0.5518291  -0.5358931  -0.5246346  -0.4470558  -0.4469280
           19          20          21          22          23          24
    1  -0.4260920   0.0435171   0.0550433   0.0550808   0.0599762   0.0785453
 Analysis of SCF Wavefunction
 
 --------------------------------------------------------------
                    Orbital Energies (a.u.)
 --------------------------------------------------------------
 
 Alpha MOs
 -- Occupied --
-10.821 -10.808 -10.808 -10.807 -10.807  -1.209  -1.098  -0.857
 -0.857  -0.774  -0.689  -0.674  -0.674  -0.552  -0.536  -0.525
 -0.447  -0.447  -0.426
 -- Virtual --
  0.044   0.055   0.055   0.060   0.079   0.079   0.082   0.098
  0.104   0.127   0.155   0.155   0.163   0.169   0.171   0.171
  0.193   0.196   0.196   0.207   0.219   0.219   0.226   0.240
  0.242   0.247   0.247   0.269   0.270   0.275   0.325   0.344
  0.344   0.359   0.385   0.385   0.389   0.443   0.462   0.462
  0.472   0.476   0.523   0.576   0.593   0.597   0.597   0.630
  0.630   0.678   0.711   0.711   0.713   0.753   0.757   0.759
  0.759   0.788   0.797   0.797   0.809   0.813   0.816   0.816
  0.823   0.877   0.944   0.954   0.954   0.959   0.975   1.011
  1.037   1.062   1.066   1.066   1.140   1.196   1.196   1.228
  1.268   1.269   1.269   1.306   1.312   1.312   1.326   1.363
  1.364   1.439   1.439   1.476   1.494   1.494   1.541   1.560
  1.560   1.565   1.585   1.591   1.601   1.627   1.655   1.655
  1.673   1.677   1.700   1.758   1.767   1.767   1.778   1.799
  1.799   1.811   1.852   2.004   2.027   2.027   2.035   2.743
  2.744   2.837   2.866   2.909   2.909   2.941   2.956   2.974
  2.997   2.997   3.072   3.072   3.073   3.123   3.183   3.183
  3.191   3.194   3.232   3.289   3.289   3.297   3.323   3.380
  3.381   3.384   3.384   3.419   3.424   3.431   3.500   3.502
  3.529   3.529   3.555   3.581   3.650   3.654   3.654   3.698
  3.698   3.750   3.750   3.765   3.792   3.832   3.846   3.864
  3.864   3.880   3.923   3.942   3.943   4.015   4.110   4.154
  4.202   4.212   4.212   4.272   4.273   4.300   4.391   4.436
  4.436   4.436   4.441   4.468   4.468   4.546   4.570   4.586
  4.597   4.667   4.681   4.689   4.689   4.691   4.730   4.731
  4.826   4.826   4.851   4.853   4.853   4.901   4.945   5.055
  5.075   5.263   5.263   5.322   5.322   5.431   5.622   5.731
  5.822   5.823   5.847   5.971   5.971   5.974   6.007   6.131
  6.131   6.187  24.796  24.820  25.074  25.074  25.146  28.146
 28.206  28.260  28.260  28.645  28.735  28.761  28.761  28.779
 28.803  28.803  28.817  29.204  29.204  29.642  41.606  41.624
 41.643  41.705  41.713  41.714  41.716  41.754  41.758  41.758
 41.799  41.807  41.808  41.813  41.813  41.823  41.845  41.867
 41.909  41.909  41.917  41.918  41.943  42.013  42.013
 --------------------------------------------------------------
 
          Ground-State Mulliken Net Atomic Charges

     Atom                 Charge (a.u.)
  ----------------------------------------
      1 C                     0.710282
      2 C                    -0.310567
      3 C                    -0.311469
      4 C                    -0.310861
      5 C                    -0.310788
      6 H                     0.066698
      7 H                     0.066679
      8 H                     0.066590
      9 H                     0.066660
     10 H                     0.066710
     11 H                     0.066674
     12 H                     0.066736
     13 H                     0.066657
  ----------------------------------------
  Sum of atomic charges =     0.000000

 -----------------------------------------------------------------
                    Cartesian Multipole Moments
 -----------------------------------------------------------------
    Charge (ESU x 10^10)
                 0.0000
    Dipole Moment (Debye)
         X       0.0002      Y       0.0005      Z       0.0000
       Tot       0.0005
    Quadrupole Moments (Debye-Ang)
        XX     -32.2118     XY       0.0043     YY     -29.9914
        XZ       0.0200     YZ       0.0019     ZZ     -29.9957
    Octapole Moments (Debye-Ang^2)
       XXX       0.0042    XXY       0.0036    XYY      -0.5342
       YYY       0.0023    XXZ     -32.1944    XYZ       0.0048
       YYZ     -29.9920    XZZ       0.5758    YZZ       0.0062
       ZZZ     -89.9899
    Hexadecapole Moments (Debye-Ang^3)
      XXXX    -340.5537   XXXY       0.0155   XXYY     -63.8684
      XYYY       0.0094   YYYY    -109.1748   XXXZ       1.3510
      XXYZ       0.0022   XYYZ      -0.2381   YYYZ      -0.0115
      XXZZ     -96.0638   XYZZ       0.0114   YYZZ     -60.1099
      XZZZ       2.4219   YZZZ      -0.0017   ZZZZ    -289.1858
 -----------------------------------------------------------------
 Total job time:  238.25s(wall), 236.74s(cpu) 
 Tue Mar 18 15:42:57 2014

        *************************************************************
        *                                                           *
        *  Thank you very much for using Q-Chem.  Have a nice day.  *
        *                                                           *
        *************************************************************


0 sent ACK to 0 
now end server 0 ... 
 
**********************************************************************
Job 3 of 3 
**********************************************************************
 
Process 0 of 1 is on cl134 - thread support 1
initial socket setup ...start
initial socket setup ...done 
now start server 0 ... 

cmd = /usr/bin/ssh clhead /usr/local/qchem/bin/get_hostid 1188337247 > /tmp/1591951.1.medium.q/qchem5566/lic.dat

cmd = /usr/bin/ssh clhead /usr/local/qchem/bin/get_hostid 1188337247 > /tmp/1591951.1.medium.q/qchem5566/lic.dat

cmd = /usr/bin/ssh clhead /usr/local/qchem/bin/get_hostid 1188337247 > /tmp/1591951.1.medium.q/qchem5566/lic.dat

cmd = /usr/bin/ssh clhead /usr/local/qchem/bin/get_hostid 1188337247 > /tmp/1591951.1.medium.q/qchem5566/lic.dat

cmd = /usr/bin/ssh clhead /usr/local/qchem/bin/get_hostid 1188337247 > /tmp/1591951.1.medium.q/qchem5566/lic.dat
                  Welcome to Q-Chem
     A Quantum Leap Into The Future Of Chemistry

 Y. Shao, L. Fusti-Molnar, Y. Jung, J. Kussmann, C. Ochsenfeld,
 S. T. Brown, A. T. B. Gilbert, L. V. Slipchenko,S. V. Levchenko,
 D. P. O'Neill, R. A. DiStasio Jr., R. C. Lochan, T. Wang,
 G. J. O. Beran, N. A. Besley, J. M. Herbert, C. Y. Lin,
 T. Van Voorhis, S. H. Chien, A. Sodt, R. P. Steele, 
 V. A. Rassolov, P. E. Maslen, P. P. Korambath, R. D. Adamson,
 B. Austin, J. Baker, E. F. C. Byrd, H. Dachsel, R. J. Doerksen,
 A. Dreuw, B. D. Dunietz, A. D. Dutoi, T. R. Furlani,
 S. R. Gwaltney, A. Heyden, S. Hirata, C.-P. Hsu, G. Kedziora,
 R. Z. Khaliullin, P. Klunzinger, A. M. Lee, M. S. Lee, W. Liang,
 I. Lotan, N. Nair, B. Peters, E. I. Proynov, P. A. Pieniazek, 
 Y. M. Rhee, J. Ritchie, E. Rosta, C. D. Sherrill, 
 A. C. Simmonett, J. E. Subotnik, H. L. Woodcock III,
 W. Zhang, A. T. Bell, A. K. Chakraborty, D. M. Chipman,
 F. J. Keil, A. Warshel, W. J. Hehre, H. F. Schaefer III,
 J. Kong, A. I. Krylov, P. M. W. Gill, M. Head-Gordon,
 Q-Chem, Version 3.1, Q-Chem, Inc., Pittsburgh, PA (2007).

 Additional authors for Version 3.1: 
 Z. Gan, Y. Zhao, N. E. Schultz, D. Truhlar, E. Epifanovsky and M. Oana.

 Additional authors for Version 3.2: 
 R. Baer, B. R. Brooks, D. Casanova, J.-D. Chai, C.-L. Cheng, 
 C. Cramer, D. Crittenden, A. Ghysels, G. Hawkins, E. G. Hohenstein, 
 C. Kelley, W. Kurlancheek, D. Liotard, E. Livshits, P. Manohar, 
 A. Marenich, D. Neuhauser, R. Olson, M. A. Rohrdanz, K. S. Thanthiriwatte, 
 A. J. W. Thom, V. Vanovschi, C. F. Williams, Q. Wu and Z.-Q. You. 


 Intel X86 Linux Version

 Q-chem begins on Tue Mar 18 15:43:01 2014  

 Parallel job on  1  processors
Processing $rem in /usr/local/qchem/config/preferences.

theFileMan(): MAXOPENFILES=974 MAX_SUB_FILE_NUM=16
Maximum size of a physical file is 2.0 GB, maximum size of a tmp-file is 32.0 GB


--------------------------------------------------------------
User input:
--------------------------------------------------------------

$molecule
1,2
C         -0.00006        0.00015        0.99980
C          1.26532        0.76004        0.98857
C          1.26516       -0.76001        0.98799
C         -1.27231       -0.00021        0.25137
C         -1.25820        0.00027        1.77153
H          1.57504        1.26150        1.90176
H          1.55860        1.26345        0.07108
H          1.57486       -1.26190        1.90095
H          1.55826       -1.26313        0.07027
H         -1.57794       -0.91602       -0.24774
H         -1.57802        0.91521       -0.24839
H         -1.55535       -0.91513        2.27650
H         -1.55537        0.91578        2.27629
$end

$comment
positive
$end

$xc_functional
C PBE   1.00
X wPBE  1.00
$end

$rem
SYMMETRY_DECOMPOSITION	0
LRC_DFT                 true
exchange 		general
BASIS                   g3large
omega			2000
mem_static              760
max_scf_cycles          200
scf_final_print         1
sym_ignore              true
$end

--------------------------------------------------------------
 Writing REM_CC_EA           13
 ----------------------------------------------------
       Standard Nuclear Orientation (Angstroms)
    I     Atom         X            Y            Z
 ----------------------------------------------------
    1      C      -0.000060     0.000150     0.999800
    2      C       1.265320     0.760040     0.988570
    3      C       1.265160    -0.760010     0.987990
    4      C      -1.272310    -0.000210     0.251370
    5      C      -1.258200     0.000270     1.771530
    6      H       1.575040     1.261500     1.901760
    7      H       1.558600     1.263450     0.071080
    8      H       1.574860    -1.261900     1.900950
    9      H       1.558260    -1.263130     0.070270
   10      H      -1.577940    -0.916020    -0.247740
   11      H      -1.578020     0.915210    -0.248390
   12      H      -1.555350    -0.915130     2.276500
   13      H      -1.555370     0.915780     2.276290
 ----------------------------------------------------
 Nuclear Repulsion Energy =   170.9200549349 hartrees
 There are       19 alpha and       18 beta electrons
 Requested basis set is G3large
 There are 98 shells and 290 basis functions

Total QAlloc Memory Limit   2000 MB
Mega-Array Size       743 MB
MEM_STATIC part       760 MB

                       Distance Matrix (Angstroms)
             C (  1)   C (  2)   C (  3)   C (  4)   C (  5)   H (  6)
   C (  2)  1.476057
   C (  3)  1.476064  1.520050
   C (  4)  1.476065  2.749729  2.749302
   C (  5)  1.475969  2.749260  2.749419  1.520226
   H (  6)  2.210311  1.086878  2.239979  3.524642  3.104015
   H (  7)  2.210852  1.086841  2.240808  3.105381  3.524417  1.830755
   H (  8)  2.210252  2.239753  1.086878  3.524110  3.104199  2.523400
   H (  9)  2.210942  2.241050  1.086852  3.104817  3.524615  3.119037
   H ( 10)  2.210301  3.524453  3.103963  1.086843  2.240373  4.393544
   H ( 11)  2.210265  3.104630  3.524013  1.086836  2.240419  3.832082
   H ( 12)  2.210572  3.524363  3.104770  2.240166  1.086853  3.831121
   H ( 13)  2.210609  3.104637  3.524681  2.240416  1.086854  3.171634
             H (  7)   H (  8)   H (  9)   H ( 10)   H ( 11)   H ( 12)
   H (  8)  3.118667
   H (  9)  2.526580  1.830756
   H ( 10)  3.832704  3.831012  3.171335
   H ( 11)  3.172021  4.393190  3.831835  1.831230
   H ( 12)  4.393947  3.171672  3.831856  2.524341  3.118610
   H ( 13)  3.831532  3.831646  4.394185  3.118770  2.524782  1.830910

 
 A cutoff of  1.0D-08 yielded   4435 shell pairs
 There are  39245 function pairs ( 48051 Cartesian)
Evaluating contribution to one-electron hamiltonian from nuclear
 Smallest overlap matrix eigenvalue = 2.59E-05

 Q-Chem warning in module mkSTV.C, line 194:

 Overlap eigenvalue is smaller than square root of threshold

 Multipole matrices computed through 2nd order

  Scale SEOQF with 1.000000e-01/1.000000e-01/1.000000e-01

 Standard Electronic Orientation quadrupole field applied
 Nucleus-field energy     =    -0.0000000026 hartrees
 Guess from superposition of atomic densities
 Warning:  Energy on first SCF cycle will be non-variational
 Long-range K will be added via erf
 Coulomb attenuation parameter = 2 bohr**(-1)
 An unrestricted Kohn-Sham SCF calculation will be
 performed using Pulay DIIS extrapolation
 Exchange:  wPBE + LR-HF      Correlation:  PBE
 Using SG-1 standard quadrature grid
 SCF converges when DIIS error is below 1.0E-05
 Requested basis set is G3large
 There are 98 shells and 290 basis functions
 A cutoff of  1.0D-08 yielded   4435 shell pairs
 There are  39245 function pairs ( 48051 Cartesian)
 Warning!  Inaccurate integrated density:
   Number of electrons =    37
   Numerical integral  =    37.999764099938
   Relative error      =     2.7020651350 %
 ---------------------------------------
  Cycle       Energy         DIIS Error
 ---------------------------------------
    1    -197.7521174688      3.12E-02
    2    -194.6888393337      2.73E-03
    3    -194.8141512459      1.23E-03
    4    -194.8383015947      4.94E-04
    5    -194.8469491982      1.61E-04
    6    -194.8497425960      9.73E-05
    7    -194.8513756455      4.59E-05
    8    -194.8518745205      2.22E-05
    9    -194.8520346884      1.17E-05
   10    -194.8520714525      6.23E-06 Convergence criterion met
 ---------------------------------------
 One-Electron    Energy =  -590.1043341511
 Total Coulomb   Energy =   254.1040675437
 Alpha Exchange  Energy =    -9.8015344482
 Beta  Exchange  Energy =    -9.3321684161
 DFT   Exchange  Energy =    -9.4247409458
 DFT Correlation Energy =    -1.2134159674
 Nuclear Repu.   Energy =   170.9200549324
 Nuclear Attr.   Energy =  -783.5661495791
 Kinetic         Energy =   193.4618154281
 <S^2> = 0.7589
 SCF time:  CPU 450.93 s  wall 453.73 s
 Final Alpha MO Eigenvalues
            1           2           3           4           5           6
    1 -11.1262544 -11.0893643 -11.0814640 -11.0243766 -11.0236579  -1.4968062
            7           8           9          10          11          12
    1  -1.3513038  -1.1324285  -1.0767672  -1.0303801  -0.9306259  -0.9295932
           13          14          15          16          17          18
    1  -0.9067602  -0.7971310  -0.7725349  -0.7529182  -0.7468959  -0.6966778
           19          20          21          22          23          24
    1  -0.6647050  -0.0869971  -0.0752434  -0.0738006  -0.0663466  -0.0459397
 Final Beta MO Eigenvalues
            1           2           3           4           5           6
    1 -11.1168997 -11.0841861 -11.0777546 -11.0249363 -11.0242271  -1.4487498
            7           8           9          10          11          12
    1  -1.3428372  -1.0792157  -1.0732408  -0.9834287  -0.9228397  -0.9132433
           13          14          15          16          17          18
    1  -0.8737179  -0.7881753  -0.7585590  -0.7411249  -0.6885319  -0.6530807
           19          20          21          22          23
    1  -0.3298887  -0.0864492  -0.0734558  -0.0729754  -0.0659538
 Analysis of SCF Wavefunction
 
 --------------------------------------------------------------
                    Orbital Energies (a.u.)
 --------------------------------------------------------------
 
 Alpha MOs
 -- Occupied --
-11.126 -11.089 -11.081 -11.024 -11.024  -1.497  -1.351  -1.132
 -1.077  -1.030  -0.931  -0.930  -0.907  -0.797  -0.773  -0.753
 -0.747  -0.697  -0.665
 -- Virtual --
 -0.087  -0.075  -0.074  -0.066  -0.046  -0.042  -0.039  -0.033
 -0.023  -0.004  -0.001   0.011   0.020   0.027   0.027   0.032
  0.043   0.044   0.049   0.062   0.063   0.073   0.079   0.092
  0.096   0.096   0.101   0.101   0.102   0.109   0.144   0.150
  0.155   0.178   0.194   0.214   0.223   0.229   0.267   0.271
  0.284   0.309   0.325   0.389   0.391   0.403   0.407   0.429
  0.439   0.472   0.502   0.506   0.510   0.538   0.542   0.554
  0.558   0.562   0.586   0.593   0.599   0.613   0.615   0.615
  0.638   0.687   0.710   0.736   0.749   0.753   0.781   0.797
  0.823   0.852   0.853   0.858   0.936   0.988   0.993   1.018
  1.030   1.056   1.065   1.080   1.095   1.105   1.128   1.151
  1.155   1.218   1.221   1.263   1.267   1.290   1.312   1.329
  1.337   1.362   1.370   1.375   1.379   1.418   1.440   1.443
  1.446   1.466   1.491   1.538   1.550   1.559   1.563   1.574
  1.599   1.602   1.636   1.758   1.775   1.790   1.801   2.486
  2.521   2.579   2.635   2.673   2.687   2.702   2.713   2.717
  2.749   2.749   2.820   2.824   2.827   2.864   2.928   2.936
  2.947   2.956   2.978   3.041   3.046   3.065   3.085   3.104
  3.132   3.142   3.150   3.162   3.179   3.206   3.243   3.252
  3.290   3.293   3.308   3.336   3.414   3.416   3.422   3.446
  3.466   3.501   3.509   3.523   3.552   3.586   3.595   3.619
  3.626   3.651   3.675   3.689   3.700   3.768   3.863   3.912
  3.965   3.967   3.979   4.019   4.042   4.058   4.144   4.186
  4.195   4.202   4.206   4.218   4.250   4.316   4.344   4.353
  4.366   4.429   4.431   4.434   4.467   4.468   4.485   4.493
  4.583   4.585   4.608   4.617   4.634   4.635   4.692   4.811
  4.811   4.985   5.029   5.074   5.075   5.196   5.376   5.487
  5.551   5.593   5.613   5.720   5.734   5.759   5.786   5.866
  5.902   5.926  24.508  24.573  24.797  24.857  24.885  27.887
 27.958  27.971  27.989  28.375  28.490  28.491  28.495  28.519
 28.554  28.568  28.588  28.927  28.986  29.360  41.306  41.348
 41.406  41.430  41.438  41.466  41.480  41.494  41.495  41.499
 41.521  41.531  41.539  41.555  41.565  41.592  41.604  41.613
 41.631  41.642  41.686  41.700  41.702  41.718  41.749
 
 Beta MOs
 -- Occupied --
-11.117 -11.084 -11.078 -11.025 -11.024  -1.449  -1.343  -1.079
 -1.073  -0.983  -0.923  -0.913  -0.874  -0.788  -0.759  -0.741
 -0.689  -0.653
 -- Virtual --
 -0.330  -0.086  -0.073  -0.073  -0.066  -0.042  -0.041  -0.036
 -0.033  -0.023  -0.004   0.012   0.012   0.021   0.027   0.033
  0.033   0.045   0.049   0.056   0.064   0.068   0.074   0.079
  0.096   0.099   0.099   0.101   0.105   0.106   0.110   0.154
  0.156   0.158   0.185   0.206   0.214   0.231   0.240   0.280
  0.284   0.285   0.311   0.329   0.392   0.398   0.408   0.420
  0.431   0.446   0.480   0.507   0.513   0.515   0.552   0.555
  0.560   0.562   0.587   0.594   0.597   0.604   0.615   0.620
  0.622   0.640   0.689   0.721   0.744   0.750   0.755   0.782
  0.799   0.826   0.854   0.858   0.859   0.940   0.993   0.994
  1.023   1.047   1.060   1.067   1.089   1.097   1.113   1.130
  1.154   1.158   1.222   1.231   1.266   1.277   1.291   1.319
  1.337   1.343   1.362   1.375   1.381   1.382   1.419   1.441
  1.448   1.455   1.469   1.492   1.541   1.554   1.559   1.564
  1.580   1.600   1.605   1.637   1.766   1.790   1.792   1.809
  2.494   2.524   2.590   2.639   2.678   2.689   2.716   2.721
  2.733   2.752   2.753   2.827   2.831   2.835   2.876   2.935
  2.948   2.953   2.959   2.984   3.046   3.055   3.068   3.088
  3.124   3.140   3.144   3.152   3.168   3.185   3.210   3.250
  3.256   3.294   3.298   3.316   3.342   3.419   3.419   3.424
  3.454   3.468   3.512   3.515   3.525   3.557   3.591   3.602
  3.628   3.629   3.653   3.686   3.699   3.702   3.776   3.871
  3.916   3.968   3.970   3.984   4.026   4.044   4.063   4.149
  4.191   4.199   4.206   4.208   4.223   4.252   4.318   4.346
  4.358   4.368   4.433   4.434   4.441   4.468   4.469   4.488
  4.498   4.587   4.587   4.612   4.620   4.635   4.643   4.697
  4.814   4.816   4.996   5.030   5.076   5.082   5.198   5.379
  5.490   5.559   5.594   5.615   5.724   5.737   5.760   5.788
  5.873   5.904   5.930  24.514  24.575  24.800  24.856  24.888
 27.889  27.967  27.971  27.991  28.378  28.492  28.496  28.496
 28.520  28.554  28.568  28.588  28.930  28.986  29.362  41.317
 41.353  41.406  41.434  41.441  41.469  41.483  41.494  41.495
 41.509  41.527  41.534  41.539  41.557  41.565  41.592  41.607
 41.613  41.634  41.645  41.688  41.700  41.703  41.725  41.750
 --------------------------------------------------------------
 
          Ground-State Mulliken Net Atomic Charges

     Atom                 Charge (a.u.)    Spin (a.u.)
  --------------------------------------------------------
      1 C                     0.809179       0.430004
      2 C                    -0.188636       0.252186
      3 C                    -0.206037       0.175708
      4 C                    -0.265611      -0.006872
      5 C                    -0.265338      -0.007603
      6 H                     0.150495       0.018361
      7 H                     0.149385       0.015475
      8 H                     0.148558       0.021503
      9 H                     0.149718       0.024423
     10 H                     0.129692       0.020031
     11 H                     0.129470       0.018444
     12 H                     0.128670       0.017258
     13 H                     0.130454       0.021083
  --------------------------------------------------------
  Sum of atomic charges =     1.000000
  Sum of spin   charges =     1.000000

 -----------------------------------------------------------------
                    Cartesian Multipole Moments
 -----------------------------------------------------------------
    Charge (ESU x 10^10)
                 4.8032
    Dipole Moment (Debye)
         X       1.4595      Y       0.0807      Z       4.7885
       Tot       5.0067
    Quadrupole Moments (Debye-Ang)
        XX     -18.8399     XY       0.1178     YY     -22.4288
        XZ       1.4137     YZ       0.1292     ZZ     -19.4689
    Octapole Moments (Debye-Ang^2)
       XXX       4.9188    XXY       0.0947    XYY       4.4795
       YYY       0.0201    XXZ     -18.8931    XYZ       0.1198
       YYZ     -22.4794    XZZ       0.5639    YZZ       0.2235
       ZZZ     -67.9354
    Hexadecapole Moments (Debye-Ang^3)
      XXXX    -271.2987   XXXY       0.5198   XXYY     -42.0565
      XYYY       0.0195   YYYY     -86.7996   XXXZ       6.1546
      XXYZ       0.2334   XYYZ       4.6589   YYYZ       0.0736
      XXZZ     -64.3847   XYZZ       0.1784   YYZZ     -43.3817
      XZZZ      -0.6726   YZZZ       0.4154   ZZZZ    -232.1062
 -----------------------------------------------------------------
 Total job time:  454.14s(wall), 451.32s(cpu) 
 Tue Mar 18 15:50:35 2014

        *************************************************************
        *                                                           *
        *  Thank you very much for using Q-Chem.  Have a nice day.  *
        *                                                           *
        *************************************************************


0 sent ACK to 0 
now end server 0 ... 
