Process 0 of 1 is on cl018.stfx.acenet.ca - thread support 1
initial socket setup ...start
initial socket setup ...done 
now start server 0 ... 

cmd = /usr/bin/ssh clhead /usr/local/qchem/bin/get_hostid 1117718468 > /scratch/tmp/6060685.1.short.q/qchem13213/lic.dat
                  Welcome to Q-Chem
     A Quantum Leap Into The Future Of Chemistry

 Y. Shao, L. Fusti-Molnar, Y. Jung, J. Kussmann, C. Ochsenfeld,
 S. T. Brown, A. T. B. Gilbert, L. V. Slipchenko,S. V. Levchenko,
 D. P. O'Neill, R. A. DiStasio Jr., R. C. Lochan, T. Wang,
 G. J. O. Beran, N. A. Besley, J. M. Herbert, C. Y. Lin,
 T. Van Voorhis, S. H. Chien, A. Sodt, R. P. Steele, 
 V. A. Rassolov, P. E. Maslen, P. P. Korambath, R. D. Adamson,
 B. Austin, J. Baker, E. F. C. Byrd, H. Dachsel, R. J. Doerksen,
 A. Dreuw, B. D. Dunietz, A. D. Dutoi, T. R. Furlani,
 S. R. Gwaltney, A. Heyden, S. Hirata, C.-P. Hsu, G. Kedziora,
 R. Z. Khaliullin, P. Klunzinger, A. M. Lee, M. S. Lee, W. Liang,
 I. Lotan, N. Nair, B. Peters, E. I. Proynov, P. A. Pieniazek, 
 Y. M. Rhee, J. Ritchie, E. Rosta, C. D. Sherrill, 
 A. C. Simmonett, J. E. Subotnik, H. L. Woodcock III,
 W. Zhang, A. T. Bell, A. K. Chakraborty, D. M. Chipman,
 F. J. Keil, A. Warshel, W. J. Hehre, H. F. Schaefer III,
 J. Kong, A. I. Krylov, P. M. W. Gill, M. Head-Gordon,
 Q-Chem, Version 3.1, Q-Chem, Inc., Pittsburgh, PA (2007).

 Additional authors for Version 3.1: 
 Z. Gan, Y. Zhao, N. E. Schultz, D. Truhlar, E. Epifanovsky and M. Oana.

 Additional authors for Version 3.2: 
 R. Baer, B. R. Brooks, D. Casanova, J.-D. Chai, C.-L. Cheng, 
 C. Cramer, D. Crittenden, A. Ghysels, G. Hawkins, E. G. Hohenstein, 
 C. Kelley, W. Kurlancheek, D. Liotard, E. Livshits, P. Manohar, 
 A. Marenich, D. Neuhauser, R. Olson, M. A. Rohrdanz, K. S. Thanthiriwatte, 
 A. J. W. Thom, V. Vanovschi, C. F. Williams, Q. Wu and Z.-Q. You. 


 Intel X86 Linux Version

 Q-chem begins on Thu Jul  4 11:03:56 2013  

 Parallel job on  1  processors
Processing $rem in /usr/local/qchem/config/preferences.

theFileMan(): MAXOPENFILES=974 MAX_SUB_FILE_NUM=16
Maximum size of a physical file is 2.0 GB, maximum size of a tmp-file is 32.0 GB


--------------------------------------------------------------
User input:
--------------------------------------------------------------

$molecule
-1,2
N         -0.00003        0.00000       -0.02014
F          1.20891        0.00000       -0.60647
F         -0.60445       -1.04703       -0.60646
F         -0.60445        1.04703       -0.60646
$end

$comment
negative
$end

$xc_functional
C PBE   1.00
X wPBE  1.00
$end

$rem
SYMMETRY_DECOMPOSITION	0
exchange 		general
LRC_DFT                 true
BASIS                   g3large
omega			900
mem_static              760
max_scf_cycles          200
scf_final_print         1
sym_ignore              true
$end

--------------------------------------------------------------
 Writing REM_CC_EA            4
 ----------------------------------------------------
       Standard Nuclear Orientation (Angstroms)
    I     Atom         X            Y            Z
 ----------------------------------------------------
    1      N      -0.000030     0.000000    -0.020140
    2      F       1.208910     0.000000    -0.606470
    3      F      -0.604450    -1.047030    -0.606460
    4      F      -0.604450     1.047030    -0.606460
 ----------------------------------------------------
 Nuclear Repulsion Energy =   135.8454340146 hartrees
 There are       18 alpha and       17 beta electrons
 Requested basis set is G3large
 There are 40 shells and 168 basis functions

Total QAlloc Memory Limit   2000 MB
Mega-Array Size       743 MB
MEM_STATIC part       760 MB

                       Distance Matrix (Angstroms)
             N (  1)   F (  2)   F (  3)
   F (  2)  1.343622
   F (  3)  1.343639  2.093931
   F (  4)  1.343639  2.093931  2.094060
 
 A cutoff of  1.0D-08 yielded    709 shell pairs
 There are  12942 function pairs ( 16926 Cartesian)
Evaluating contribution to one-electron hamiltonian from nuclear
 Smallest overlap matrix eigenvalue = 1.78E-03
 Multipole matrices computed through 2nd order

  Scale SEOQF with 1.000000e-01/1.000000e-01/1.000000e-01

 Standard Electronic Orientation quadrupole field applied
 Nucleus-field energy     =     0.0000000010 hartrees
 Guess from superposition of atomic densities
 Warning:  Energy on first SCF cycle will be non-variational
 Long-range K will be added via erf
 Coulomb attenuation parameter = 0.9 bohr**(-1)
 An unrestricted Kohn-Sham SCF calculation will be
 performed using Pulay DIIS extrapolation
 Exchange:  wPBE + LR-HF      Correlation:  PBE
 Using SG-1 standard quadrature grid
 SCF converges when DIIS error is below 1.0E-05
 Requested basis set is G3large
 There are 40 shells and 168 basis functions
 A cutoff of  1.0D-08 yielded    709 shell pairs
 There are  12942 function pairs ( 16926 Cartesian)
 Warning!  Inaccurate integrated density:
   Number of electrons =    35
   Numerical integral  =    34.000286278564
   Relative error      =    -2.8563249184 %
 ---------------------------------------
  Cycle       Energy         DIIS Error
 ---------------------------------------
    1    -354.6684104547      3.09E-02
    2    -353.7828532050      7.23E-03
    3    -353.8361900774      5.90E-03
    4    -353.9070728191      5.52E-04
    5    -353.9089397849      2.10E-04
    6    -353.9093573317      1.36E-04
    7    -353.9094720432      4.56E-05
    8    -353.9095479480      3.97E-05
    9    -353.9096159026      3.63E-05
   10    -353.9096820190      3.32E-05
   11    -353.9098975697      2.60E-05
   12    -353.9100636701      2.41E-05
   13    -353.9100057645      2.44E-05
   14    -353.9100291987      2.54E-05
   15    -353.9097794039      2.78E-05
   16    -353.9097940500      1.18E-05
   17    -353.9097964875      7.46E-06 Convergence criterion met
 ---------------------------------------
 One-Electron    Energy =  -769.7790844458
 Total Coulomb   Energy =   318.3004384189
 Alpha Exchange  Energy =    -6.8979455431
 Beta  Exchange  Energy =    -6.6987821689
 DFT   Exchange  Energy =   -23.4731687390
 DFT Correlation Energy =    -1.2066880252
 Nuclear Repu.   Energy =   135.8454340157
 Nuclear Attr.   Energy = -1123.6105147530
 Kinetic         Energy =   353.8314303071
 <S^2> = 0.7556
 SCF time:  CPU 116.39 s  wall 117.68 s
 Final Alpha MO Eigenvalues
            1           2           3           4           5           6
    1 -24.5587606 -24.5493165 -24.5378119 -14.5009273  -1.4882762  -1.3322841
            7           8           9          10          11          12
    1  -1.3275028  -0.8517825  -0.6438291  -0.6296338  -0.6032239  -0.5040559
           13          14          15          16          17          18
    1  -0.5026220  -0.4467354  -0.4410404  -0.4308334  -0.3102840   0.1037899
           19          20          21          22          23
    1   0.2718543   0.3026662   0.3190378   0.3708863   0.4299725
 Final Beta MO Eigenvalues
            1           2           3           4           5           6
    1 -24.5577883 -24.5473627 -24.5343559 -14.4931492  -1.4790027  -1.3276631
            7           8           9          10          11          12
    1  -1.3141289  -0.8390946  -0.6270175  -0.6142273  -0.5984173  -0.4945662
           13          14          15          16          17          18
    1  -0.4935033  -0.4441756  -0.4370691  -0.4244878  -0.2923577   0.2845175
           19          20          21          22
    1   0.3070839   0.3091592   0.3272990   0.4445371
 Analysis of SCF Wavefunction
 
 --------------------------------------------------------------
                    Orbital Energies (a.u.)
 --------------------------------------------------------------
 
 Alpha MOs
 -- Occupied --
-24.559 -24.549 -24.538 -14.501  -1.488  -1.332  -1.328  -0.852
 -0.644  -0.630  -0.603  -0.504  -0.503  -0.447  -0.441  -0.431
 -0.310   0.104
 -- Virtual --
  0.272   0.303   0.319   0.371   0.430   0.440   0.454   0.479
  0.501   0.511   0.526   0.578   0.599   0.599   0.606   0.677
  0.721   0.723   1.082   1.086   1.120   1.385   1.399   1.401
  1.576   1.582   1.643   1.657   1.660   1.731   1.753   1.787
  1.807   1.810   2.060   2.060   2.250   2.255   2.299   2.362
  2.407   2.413   2.486   2.528   2.533   2.636   2.638   2.646
  3.038   3.040   3.132   3.159   3.160   3.307   4.070   4.275
  4.276   4.300   4.471   4.476   4.494   4.874   4.971   4.974
  5.354   5.412   5.415   5.463   5.464   6.618   6.621   6.633
  6.693   6.727   6.730   7.037   7.038   7.078   7.079   7.084
  7.089   7.090   7.091   7.094   7.100   7.105   7.113   7.310
  7.312   7.341   7.466   7.600   7.604   7.762   7.766   7.772
  7.889   8.395   8.401   9.523   9.530   9.552   9.565   9.575
  9.582   9.850   9.875   9.880  10.038  10.098  10.103  10.267
 10.497  10.504  35.805  37.864  38.392  38.393  40.773  40.800
 40.875  40.991  41.016  50.550  50.551  50.571  50.581  50.597
 50.602  50.663  50.677  50.688  50.752  50.770  50.775  50.886
 50.904  50.920  56.035  56.039  56.045  56.106  56.113  56.117
 56.426  56.618  56.629  67.065  67.077  67.138
 
 Beta MOs
 -- Occupied --
-24.558 -24.547 -24.534 -14.493  -1.479  -1.328  -1.314  -0.839
 -0.627  -0.614  -0.598  -0.495  -0.494  -0.444  -0.437  -0.424
 -0.292
 -- Virtual --
  0.285   0.307   0.309   0.327   0.445   0.449   0.458   0.484
  0.493   0.518   0.527   0.530   0.582   0.602   0.606   0.613
  0.678   0.723   0.727   1.091   1.106   1.124   1.390   1.409
  1.412   1.577   1.588   1.645   1.660   1.663   1.736   1.762
  1.790   1.809   1.815   2.068   2.071   2.251   2.258   2.300
  2.365   2.408   2.415   2.489   2.536   2.539   2.637   2.643
  2.647   3.045   3.051   3.135   3.165   3.172   3.312   4.075
  4.282   4.287   4.307   4.476   4.488   4.507   4.883   4.978
  4.993   5.365   5.425   5.439   5.483   5.490   6.620   6.624
  6.636   6.696   6.730   6.736   7.040   7.042   7.080   7.080
  7.085   7.091   7.092   7.093   7.097   7.103   7.109   7.116
  7.313   7.316   7.343   7.469   7.605   7.608   7.766   7.769
  7.778   7.896   8.399   8.409   9.528   9.535   9.558   9.570
  9.580   9.588   9.855   9.877   9.887  10.042  10.102  10.108
 10.271  10.500  10.511  35.813  37.866  38.398  38.411  40.777
 40.815  40.888  40.999  41.028  50.553  50.554  50.573  50.584
 50.599  50.604  50.666  50.678  50.692  50.756  50.771  50.780
 50.888  50.905  50.926  56.036  56.041  56.048  56.108  56.116
 56.120  56.429  56.620  56.633  67.066  67.080  67.141
 --------------------------------------------------------------
 
          Ground-State Mulliken Net Atomic Charges

     Atom                 Charge (a.u.)    Spin (a.u.)
  --------------------------------------------------------
      1 N                    -1.324321       1.557895
      2 F                     0.126147      -0.205815
      3 F                     0.026496      -0.123997
      4 F                     0.171677      -0.228083
  --------------------------------------------------------
  Sum of atomic charges =    -1.000000
  Sum of spin   charges =     1.000000

 -----------------------------------------------------------------
                    Cartesian Multipole Moments
 -----------------------------------------------------------------
    Charge (ESU x 10^10)
                -4.8032
    Dipole Moment (Debye)
         X      -0.1529      Y      -0.1192      Z       0.0170
       Tot       0.1946
    Quadrupole Moments (Debye-Ang)
        XX     -31.2237     XY       4.4172     YY     -31.3761
        XZ      -0.3602     YZ       1.6671     ZZ     -27.8355
    Octapole Moments (Debye-Ang^2)
       XXX      -2.4301    XXY      -0.7132    XYY       1.6325
       YYY      -2.1092    XXZ       9.4051    XYZ       0.8142
       YYZ       9.4182    XZZ      -0.4206    YZZ      -0.7606
       ZZZ      25.7811
    Hexadecapole Moments (Debye-Ang^3)
      XXXX    -138.8079   XXXY      18.2090   XXYY     -46.6631
      XYYY      20.1673   YYYY    -139.7714   XXXZ       1.1179
      XXYZ       2.5257   XYYZ      -2.9261   YYYZ       7.5468
      XXZZ     -37.7260   XYZZ       7.6358   YYZZ     -37.9378
      XZZZ      -1.2913   YZZZ       5.3072   ZZZZ     -75.9869
 -----------------------------------------------------------------
 Total job time:  117.91s(wall), 116.61s(cpu) 
 Thu Jul  4 11:05:54 2013

        *************************************************************
        *                                                           *
        *  Thank you very much for using Q-Chem.  Have a nice day.  *
        *                                                           *
        *************************************************************


0 sent ACK to 0 
now end server 0 ... 
 
**********************************************************************
Job 2 of 3 
**********************************************************************
 
Process 0 of 1 is on cl018.stfx.acenet.ca - thread support 1
initial socket setup ...start
initial socket setup ...done 
now start server 0 ... 

cmd = /usr/bin/ssh clhead /usr/local/qchem/bin/get_hostid 826617712 > /scratch/tmp/6060685.1.short.q/qchem13213/lic.dat
                  Welcome to Q-Chem
     A Quantum Leap Into The Future Of Chemistry

 Y. Shao, L. Fusti-Molnar, Y. Jung, J. Kussmann, C. Ochsenfeld,
 S. T. Brown, A. T. B. Gilbert, L. V. Slipchenko,S. V. Levchenko,
 D. P. O'Neill, R. A. DiStasio Jr., R. C. Lochan, T. Wang,
 G. J. O. Beran, N. A. Besley, J. M. Herbert, C. Y. Lin,
 T. Van Voorhis, S. H. Chien, A. Sodt, R. P. Steele, 
 V. A. Rassolov, P. E. Maslen, P. P. Korambath, R. D. Adamson,
 B. Austin, J. Baker, E. F. C. Byrd, H. Dachsel, R. J. Doerksen,
 A. Dreuw, B. D. Dunietz, A. D. Dutoi, T. R. Furlani,
 S. R. Gwaltney, A. Heyden, S. Hirata, C.-P. Hsu, G. Kedziora,
 R. Z. Khaliullin, P. Klunzinger, A. M. Lee, M. S. Lee, W. Liang,
 I. Lotan, N. Nair, B. Peters, E. I. Proynov, P. A. Pieniazek, 
 Y. M. Rhee, J. Ritchie, E. Rosta, C. D. Sherrill, 
 A. C. Simmonett, J. E. Subotnik, H. L. Woodcock III,
 W. Zhang, A. T. Bell, A. K. Chakraborty, D. M. Chipman,
 F. J. Keil, A. Warshel, W. J. Hehre, H. F. Schaefer III,
 J. Kong, A. I. Krylov, P. M. W. Gill, M. Head-Gordon,
 Q-Chem, Version 3.1, Q-Chem, Inc., Pittsburgh, PA (2007).

 Additional authors for Version 3.1: 
 Z. Gan, Y. Zhao, N. E. Schultz, D. Truhlar, E. Epifanovsky and M. Oana.

 Additional authors for Version 3.2: 
 R. Baer, B. R. Brooks, D. Casanova, J.-D. Chai, C.-L. Cheng, 
 C. Cramer, D. Crittenden, A. Ghysels, G. Hawkins, E. G. Hohenstein, 
 C. Kelley, W. Kurlancheek, D. Liotard, E. Livshits, P. Manohar, 
 A. Marenich, D. Neuhauser, R. Olson, M. A. Rohrdanz, K. S. Thanthiriwatte, 
 A. J. W. Thom, V. Vanovschi, C. F. Williams, Q. Wu and Z.-Q. You. 


 Intel X86 Linux Version

 Q-chem begins on Thu Jul  4 11:05:56 2013  

 Parallel job on  1  processors
Processing $rem in /usr/local/qchem/config/preferences.

theFileMan(): MAXOPENFILES=974 MAX_SUB_FILE_NUM=16
Maximum size of a physical file is 2.0 GB, maximum size of a tmp-file is 32.0 GB


--------------------------------------------------------------
User input:
--------------------------------------------------------------

$molecule
0,1
N         -0.00003        0.00000       -0.02014
F          1.20891        0.00000       -0.60647
F         -0.60445       -1.04703       -0.60646
F         -0.60445        1.04703       -0.60646
$end

$comment
neutral
$end

$xc_functional
C PBE   1.00
X wPBE  1.00
$end


$rem
SYMMETRY_DECOMPOSITION	0
LRC_DFT                 true
exchange 		general
BASIS                   g3large
omega			900
mem_static              760
max_scf_cycles          200
scf_final_print         1
sym_ignore              true
$end

--------------------------------------------------------------
 Writing REM_CC_EA            4
 ----------------------------------------------------
       Standard Nuclear Orientation (Angstroms)
    I     Atom         X            Y            Z
 ----------------------------------------------------
    1      N      -0.000030     0.000000    -0.020140
    2      F       1.208910     0.000000    -0.606470
    3      F      -0.604450    -1.047030    -0.606460
    4      F      -0.604450     1.047030    -0.606460
 ----------------------------------------------------
 Nuclear Repulsion Energy =   135.8454340146 hartrees
 There are       17 alpha and       17 beta electrons
 Requested basis set is G3large
 There are 40 shells and 168 basis functions

Total QAlloc Memory Limit   2000 MB
Mega-Array Size       743 MB
MEM_STATIC part       760 MB

                       Distance Matrix (Angstroms)
             N (  1)   F (  2)   F (  3)
   F (  2)  1.343622
   F (  3)  1.343639  2.093931
   F (  4)  1.343639  2.093931  2.094060
 
 A cutoff of  1.0D-08 yielded    709 shell pairs
 There are  12942 function pairs ( 16926 Cartesian)
Evaluating contribution to one-electron hamiltonian from nuclear
 Smallest overlap matrix eigenvalue = 1.78E-03
 Multipole matrices computed through 2nd order

  Scale SEOQF with 1.000000e-01/1.000000e-01/1.000000e-01

 Standard Electronic Orientation quadrupole field applied
 Nucleus-field energy     =     0.0000000010 hartrees
 Guess from superposition of atomic densities
 Warning:  Energy on first SCF cycle will be non-variational
 Long-range K will be added via erf
 Coulomb attenuation parameter = 0.9 bohr**(-1)
 A restricted Kohn-Sham SCF calculation will be
 performed using Pulay DIIS extrapolation
 Exchange:  wPBE + LR-HF      Correlation:  PBE
 Using SG-1 standard quadrature grid
 SCF converges when DIIS error is below 1.0E-05
 Requested basis set is G3large
 There are 40 shells and 168 basis functions
 A cutoff of  1.0D-08 yielded    709 shell pairs
 There are  12942 function pairs ( 16926 Cartesian)
 ---------------------------------------
  Cycle       Energy         DIIS Error
 ---------------------------------------
    1    -354.6684104547      3.09E-02
    2    -353.8361485100      8.71E-03
    3    -353.9196570064      7.37E-03
    4    -354.0276159986      7.51E-04
    5    -354.0298141729      2.92E-04
    6    -354.0304269919      8.48E-05
    7    -354.0305123907      1.82E-05
    8    -354.0305154244      8.04E-06 Convergence criterion met
 ---------------------------------------
 One-Electron    Energy =  -761.2952393261
 Total Coulomb   Energy =   309.4607266040
 Alpha Exchange  Energy =    -6.7208550466
 Beta  Exchange  Energy =    -6.7208550466
 DFT   Exchange  Energy =   -23.4126874207
 DFT Correlation Energy =    -1.1870392040
 Nuclear Repu.   Energy =   135.8454340157
 Nuclear Attr.   Energy = -1114.5194278210
 Kinetic         Energy =   353.2241884949
 SCF time:  CPU 43.72 s  wall 44.13 s
 Final Alpha MO Eigenvalues
            1           2           3           4           5           6
    1 -24.8051144 -24.8050051 -24.8047805 -14.7952012  -1.7402222  -1.5752752
            7           8           9          10          11          12
    1  -1.5751949  -1.0969085  -0.8758118  -0.8757846  -0.8551267  -0.7420268
           13          14          15          16          17          18
    1  -0.7420109  -0.6863248  -0.6862679  -0.6741973  -0.5617954   0.1196050
           19          20          21          22
    1   0.1322556   0.1322631   0.1475448   0.2113289
 Analysis of SCF Wavefunction
 
 --------------------------------------------------------------
                    Orbital Energies (a.u.)
 --------------------------------------------------------------
 
 Alpha MOs
 -- Occupied --
-24.805 -24.805 -24.805 -14.795  -1.740  -1.575  -1.575  -1.097
 -0.876  -0.876  -0.855  -0.742  -0.742  -0.686  -0.686  -0.674
 -0.562
 -- Virtual --
  0.120   0.132   0.132   0.148   0.211   0.219   0.219   0.298
  0.298   0.329   0.329   0.339   0.408   0.418   0.428   0.428
  0.488   0.529   0.529   0.859   0.859   0.882   1.139   1.151
  1.151   1.364   1.364   1.427   1.438   1.438   1.501   1.527
  1.568   1.589   1.589   1.817   1.817   2.024   2.024   2.059
  2.120   2.172   2.172   2.257   2.288   2.288   2.395   2.395
  2.403   2.795   2.795   2.890   2.915   2.915   3.063   3.807
  4.017   4.017   4.036   4.215   4.215   4.233   4.615   4.719
  4.719   5.085   5.147   5.147   5.200   5.200   6.376   6.376
  6.388   6.450   6.485   6.485   6.792   6.792   6.837   6.837
  6.842   6.846   6.847   6.847   6.847   6.859   6.859   6.868
  7.064   7.064   7.095   7.216   7.351   7.351   7.510   7.518
  7.519   7.635   8.143   8.143   9.282   9.282   9.306   9.323
  9.331   9.331   9.604   9.630   9.630   9.791   9.853   9.853
 10.020  10.253  10.254  35.513  37.571  38.101  38.101  40.481
 40.508  40.583  40.698  40.724  50.298  50.304  50.309  50.335
 50.340  50.344  50.409  50.424  50.431  50.496  50.517  50.518
 50.632  50.655  50.658  55.785  55.785  55.787  55.856  55.857
 55.857  56.170  56.367  56.367  66.815  66.816  66.882
 --------------------------------------------------------------
 
          Ground-State Mulliken Net Atomic Charges

     Atom                 Charge (a.u.)
  ----------------------------------------
      1 N                     0.075037
      2 F                    -0.025013
      3 F                    -0.025076
      4 F                    -0.024948
  ----------------------------------------
  Sum of atomic charges =     0.000000

 -----------------------------------------------------------------
                    Cartesian Multipole Moments
 -----------------------------------------------------------------
    Charge (ESU x 10^10)
                 0.0000
    Dipole Moment (Debye)
         X      -0.0001      Y       0.0004      Z       0.2529
       Tot       0.2529
    Quadrupole Moments (Debye-Ang)
        XX     -20.2100     XY      -0.0001     YY     -20.2098
        XZ       0.0000     YZ      -0.0003     ZZ     -20.2764
    Octapole Moments (Debye-Ang^2)
       XXX      -0.4445    XXY       0.0001    XYY       0.4450
       YYY       0.0002    XXZ       9.1776    XYZ       0.0001
       YYZ       9.1774    XZZ       0.0000    YZZ      -0.0002
       ZZZ      26.2844
    Hexadecapole Moments (Debye-Ang^3)
      XXXX     -74.3627   XXXY       0.0008   XXYY     -24.7894
      XYYY       0.0001   YYYY     -74.3720   XXXZ      -0.3834
      XXYZ       0.0000   XYYZ       0.3836   YYYZ       0.0000
      XXZZ     -19.8310   XYZZ       0.0002   YYZZ     -19.8325
      XZZZ       0.0003   YZZZ       0.0005   ZZZZ     -45.2887
 -----------------------------------------------------------------
 Total job time:  44.35s(wall), 43.92s(cpu) 
 Thu Jul  4 11:06:41 2013

        *************************************************************
        *                                                           *
        *  Thank you very much for using Q-Chem.  Have a nice day.  *
        *                                                           *
        *************************************************************


0 sent ACK to 0 
now end server 0 ... 
 
**********************************************************************
Job 3 of 3 
**********************************************************************
 
Process 0 of 1 is on cl018.stfx.acenet.ca - thread support 1
initial socket setup ...start
initial socket setup ...done 
now start server 0 ... 

cmd = /usr/bin/ssh clhead /usr/local/qchem/bin/get_hostid 1562186270 > /scratch/tmp/6060685.1.short.q/qchem13213/lic.dat
                  Welcome to Q-Chem
     A Quantum Leap Into The Future Of Chemistry

 Y. Shao, L. Fusti-Molnar, Y. Jung, J. Kussmann, C. Ochsenfeld,
 S. T. Brown, A. T. B. Gilbert, L. V. Slipchenko,S. V. Levchenko,
 D. P. O'Neill, R. A. DiStasio Jr., R. C. Lochan, T. Wang,
 G. J. O. Beran, N. A. Besley, J. M. Herbert, C. Y. Lin,
 T. Van Voorhis, S. H. Chien, A. Sodt, R. P. Steele, 
 V. A. Rassolov, P. E. Maslen, P. P. Korambath, R. D. Adamson,
 B. Austin, J. Baker, E. F. C. Byrd, H. Dachsel, R. J. Doerksen,
 A. Dreuw, B. D. Dunietz, A. D. Dutoi, T. R. Furlani,
 S. R. Gwaltney, A. Heyden, S. Hirata, C.-P. Hsu, G. Kedziora,
 R. Z. Khaliullin, P. Klunzinger, A. M. Lee, M. S. Lee, W. Liang,
 I. Lotan, N. Nair, B. Peters, E. I. Proynov, P. A. Pieniazek, 
 Y. M. Rhee, J. Ritchie, E. Rosta, C. D. Sherrill, 
 A. C. Simmonett, J. E. Subotnik, H. L. Woodcock III,
 W. Zhang, A. T. Bell, A. K. Chakraborty, D. M. Chipman,
 F. J. Keil, A. Warshel, W. J. Hehre, H. F. Schaefer III,
 J. Kong, A. I. Krylov, P. M. W. Gill, M. Head-Gordon,
 Q-Chem, Version 3.1, Q-Chem, Inc., Pittsburgh, PA (2007).

 Additional authors for Version 3.1: 
 Z. Gan, Y. Zhao, N. E. Schultz, D. Truhlar, E. Epifanovsky and M. Oana.

 Additional authors for Version 3.2: 
 R. Baer, B. R. Brooks, D. Casanova, J.-D. Chai, C.-L. Cheng, 
 C. Cramer, D. Crittenden, A. Ghysels, G. Hawkins, E. G. Hohenstein, 
 C. Kelley, W. Kurlancheek, D. Liotard, E. Livshits, P. Manohar, 
 A. Marenich, D. Neuhauser, R. Olson, M. A. Rohrdanz, K. S. Thanthiriwatte, 
 A. J. W. Thom, V. Vanovschi, C. F. Williams, Q. Wu and Z.-Q. You. 


 Intel X86 Linux Version

 Q-chem begins on Thu Jul  4 11:06:44 2013  

 Parallel job on  1  processors
Processing $rem in /usr/local/qchem/config/preferences.

theFileMan(): MAXOPENFILES=974 MAX_SUB_FILE_NUM=16
Maximum size of a physical file is 2.0 GB, maximum size of a tmp-file is 32.0 GB


--------------------------------------------------------------
User input:
--------------------------------------------------------------

$molecule
1,2
N         -0.00003        0.00000       -0.02014
F          1.20891        0.00000       -0.60647
F         -0.60445       -1.04703       -0.60646
F         -0.60445        1.04703       -0.60646
$end

$comment
positive
$end

$xc_functional
C PBE   1.00
X wPBE  1.00
$end

$rem
SYMMETRY_DECOMPOSITION	0
LRC_DFT                 true
exchange 		general
BASIS                   g3large
omega			900
mem_static              760
max_scf_cycles          200
scf_final_print         1
sym_ignore              true
$end

--------------------------------------------------------------
 Writing REM_CC_EA            4
 ----------------------------------------------------
       Standard Nuclear Orientation (Angstroms)
    I     Atom         X            Y            Z
 ----------------------------------------------------
    1      N      -0.000030     0.000000    -0.020140
    2      F       1.208910     0.000000    -0.606470
    3      F      -0.604450    -1.047030    -0.606460
    4      F      -0.604450     1.047030    -0.606460
 ----------------------------------------------------
 Nuclear Repulsion Energy =   135.8454340146 hartrees
 There are       17 alpha and       16 beta electrons
 Requested basis set is G3large
 There are 40 shells and 168 basis functions

Total QAlloc Memory Limit   2000 MB
Mega-Array Size       743 MB
MEM_STATIC part       760 MB

                       Distance Matrix (Angstroms)
             N (  1)   F (  2)   F (  3)
   F (  2)  1.343622
   F (  3)  1.343639  2.093931
   F (  4)  1.343639  2.093931  2.094060
 
 A cutoff of  1.0D-08 yielded    709 shell pairs
 There are  12942 function pairs ( 16926 Cartesian)
Evaluating contribution to one-electron hamiltonian from nuclear
 Smallest overlap matrix eigenvalue = 1.78E-03
 Multipole matrices computed through 2nd order

  Scale SEOQF with 1.000000e-01/1.000000e-01/1.000000e-01

 Standard Electronic Orientation quadrupole field applied
 Nucleus-field energy     =     0.0000000010 hartrees
 Guess from superposition of atomic densities
 Warning:  Energy on first SCF cycle will be non-variational
 Long-range K will be added via erf
 Coulomb attenuation parameter = 0.9 bohr**(-1)
 An unrestricted Kohn-Sham SCF calculation will be
 performed using Pulay DIIS extrapolation
 Exchange:  wPBE + LR-HF      Correlation:  PBE
 Using SG-1 standard quadrature grid
 SCF converges when DIIS error is below 1.0E-05
 Requested basis set is G3large
 There are 40 shells and 168 basis functions
 A cutoff of  1.0D-08 yielded    709 shell pairs
 There are  12942 function pairs ( 16926 Cartesian)
 Warning!  Inaccurate integrated density:
   Number of electrons =    33
   Numerical integral  =    34.000286278564
   Relative error      =     3.0311705411 %
 ---------------------------------------
  Cycle       Energy         DIIS Error
 ---------------------------------------
    1    -354.6684104547      3.09E-02
    2    -353.1246562826      1.09E-02
    3    -353.2639978683      1.04E-02
    4    -353.5011354803      1.42E-03
    5    -353.5068574672      3.46E-04
    6    -353.5085547629      1.43E-04
    7    -353.5090075952      8.04E-05
    8    -353.5091020332      3.29E-05
    9    -353.5091430594      1.37E-05
   10    -353.5091561088      6.55E-06 Convergence criterion met
 ---------------------------------------
 One-Electron    Energy =  -749.3219968496
 Total Coulomb   Energy =   297.4937445543
 Alpha Exchange  Energy =    -6.7707654915
 Beta  Exchange  Energy =    -6.3358797018
 DFT   Exchange  Energy =   -23.2743953140
 DFT Correlation Energy =    -1.1452973219
 Nuclear Repu.   Energy =   135.8454340157
 Nuclear Attr.   Energy = -1101.7183364675
 Kinetic         Energy =   352.3963396179
 <S^2> = 0.7675
 SCF time:  CPU 67.99 s  wall 68.40 s
 Final Alpha MO Eigenvalues
            1           2           3           4           5           6
    1 -25.1701059 -25.1699209 -25.1697171 -15.2487253  -2.0985203  -1.9240589
            7           8           9          10          11          12
    1  -1.9238775  -1.4725939  -1.2419084  -1.2275083  -1.2273898  -1.0844338
           13          14          15          16          17          18
    1  -1.0843223  -1.0193530  -1.0193296  -1.0096134  -0.9877268  -0.1925872
           19          20          21          22
    1  -0.1925239  -0.1410496  -0.0883329  -0.0429286
 Final Beta MO Eigenvalues
            1           2           3           4           5           6
    1 -25.1652109 -25.1650887 -25.1648731 -15.2322634  -2.0801512  -1.9091195
            7           8           9          10          11          12
    1  -1.9090181  -1.4111617  -1.2076077  -1.2075057  -1.1505474  -1.0483253
           13          14          15          16          17          18
    1  -1.0480822  -1.0069659  -1.0069618  -1.0046852  -0.4766910  -0.1502684
           19          20          21
    1  -0.1502208  -0.1197877  -0.0803518
 Analysis of SCF Wavefunction
 
 --------------------------------------------------------------
                    Orbital Energies (a.u.)
 --------------------------------------------------------------
 
 Alpha MOs
 -- Occupied --
-25.170 -25.170 -25.170 -15.249  -2.099  -1.924  -1.924  -1.473
 -1.242  -1.228  -1.227  -1.084  -1.084  -1.019  -1.019  -1.010
 -0.988
 -- Virtual --
 -0.193  -0.193  -0.141  -0.088  -0.043  -0.031  -0.031   0.092
  0.092   0.114   0.114   0.118   0.188   0.209   0.227   0.227
  0.267   0.294   0.294   0.541   0.557   0.557   0.779   0.798
  0.798   1.086   1.086   1.144   1.153   1.153   1.184   1.244
  1.288   1.302   1.302   1.477   1.477   1.724   1.725   1.732
  1.794   1.856   1.856   1.945   1.945   1.952   2.067   2.067
  2.085   2.444   2.445   2.548   2.568   2.568   2.723   3.391
  3.636   3.643   3.643   3.839   3.839   3.868   4.239   4.352
  4.352   4.639   4.716   4.716   4.790   4.791   6.036   6.036
  6.045   6.117   6.142   6.142   6.449   6.449   6.505   6.505
  6.505   6.507   6.515   6.515   6.518   6.526   6.526   6.533
  6.720   6.720   6.760   6.866   7.005   7.005   7.159   7.165
  7.165   7.271   7.781   7.781   8.935   8.935   8.954   8.973
  8.984   8.985   9.259   9.274   9.274   9.436   9.505   9.506
  9.673   9.902   9.902  35.064  37.103  37.659  37.659  40.014
 40.069  40.138  40.243  40.275  49.932  49.939  49.945  49.973
 49.976  49.980  50.045  50.056  50.066  50.131  50.150  50.153
 50.266  50.289  50.291  55.422  55.424  55.424  55.492  55.492
 55.497  55.802  56.002  56.002  66.452  66.452  66.519
 
 Beta MOs
 -- Occupied --
-25.165 -25.165 -25.165 -15.232  -2.080  -1.909  -1.909  -1.411
 -1.208  -1.208  -1.151  -1.048  -1.048  -1.007  -1.007  -1.005
 -- Virtual --
 -0.477  -0.150  -0.150  -0.120  -0.080  -0.036  -0.029  -0.029
  0.095   0.095   0.114   0.114   0.120   0.192   0.209   0.228
  0.228   0.269   0.295   0.295   0.561   0.561   0.590   0.812
  0.812   0.820   1.093   1.093   1.150   1.158   1.158   1.197
  1.257   1.289   1.311   1.311   1.488   1.488   1.729   1.729
  1.747   1.803   1.860   1.860   1.959   1.966   1.966   2.075
  2.076   2.085   2.463   2.463   2.568   2.582   2.582   2.738
  3.437   3.660   3.660   3.675   3.858   3.858   3.874   4.263
  4.365   4.365   4.712   4.767   4.767   4.822   4.823   6.044
  6.044   6.058   6.121   6.156   6.156   6.461   6.461   6.510
  6.510   6.515   6.518   6.519   6.522   6.522   6.534   6.534
  6.543   6.730   6.730   6.765   6.879   7.013   7.014   7.169
  7.179   7.179   7.286   7.793   7.793   8.948   8.948   8.972
  8.989   8.997   8.997   9.265   9.293   9.293   9.456   9.517
  9.517   9.681   9.916   9.916  35.082  37.141  37.669  37.669
 40.050  40.074  40.149  40.265  40.291  49.945  49.952  49.957
 49.982  49.987  49.991  50.052  50.069  50.075  50.140  50.160
 50.162  50.275  50.298  50.302  55.428  55.428  55.430  55.500
 55.501  55.501  55.810  56.007  56.007  66.457  66.458  66.524
 --------------------------------------------------------------
 
          Ground-State Mulliken Net Atomic Charges

     Atom                 Charge (a.u.)    Spin (a.u.)
  --------------------------------------------------------
      1 N                     0.371641       0.590324
      2 F                     0.209374       0.135956
      3 F                     0.209180       0.136242
      4 F                     0.209806       0.137478
  --------------------------------------------------------
  Sum of atomic charges =     1.000000
  Sum of spin   charges =     1.000000

 -----------------------------------------------------------------
                    Cartesian Multipole Moments
 -----------------------------------------------------------------
    Charge (ESU x 10^10)
                 4.8032
    Dipole Moment (Debye)
         X      -0.0006      Y       0.0020      Z      -0.9522
       Tot       0.9522
    Quadrupole Moments (Debye-Ang)
        XX     -15.7622     XY      -0.0017     YY     -15.7611
        XZ       0.0007     YZ      -0.0022     ZZ     -16.1394
    Octapole Moments (Debye-Ang^2)
       XXX       1.5792    XXY       0.0012    XYY      -1.5806
       YYY       0.0035    XXZ       6.4050    XYZ       0.0010
       YYZ       6.4040    XZZ      -0.0008    YZZ       0.0024
       ZZZ      23.1352
    Hexadecapole Moments (Debye-Ang^3)
      XXXX     -63.0774   XXXY      -0.0021   XXYY     -21.0268
      XYYY      -0.0019   YYYY     -63.0831   XXXZ      -1.8350
      XXYZ      -0.0008   XYYZ       1.8371   YYYZ      -0.0022
      XXZZ     -15.7804   XYZZ      -0.0016   YYZZ     -15.7810
      XZZZ       0.0014   YZZZ      -0.0042   ZZZZ     -37.3200
 -----------------------------------------------------------------
 Total job time:  68.62s(wall), 68.20s(cpu) 
 Thu Jul  4 11:07:52 2013

        *************************************************************
        *                                                           *
        *  Thank you very much for using Q-Chem.  Have a nice day.  *
        *                                                           *
        *************************************************************


0 sent ACK to 0 
now end server 0 ... 
