Process 0 of 1 is on cl239.stfx.acenet.ca - thread support 1
initial socket setup ...start
initial socket setup ...done 
now start server 0 ... 

cmd = /usr/bin/ssh clhead /usr/local/qchem/bin/get_hostid 1734688890 > /scratch/tmp/6064164.1.long.q/qchem24686/lic.dat
                  Welcome to Q-Chem
     A Quantum Leap Into The Future Of Chemistry

 Y. Shao, L. Fusti-Molnar, Y. Jung, J. Kussmann, C. Ochsenfeld,
 S. T. Brown, A. T. B. Gilbert, L. V. Slipchenko,S. V. Levchenko,
 D. P. O'Neill, R. A. DiStasio Jr., R. C. Lochan, T. Wang,
 G. J. O. Beran, N. A. Besley, J. M. Herbert, C. Y. Lin,
 T. Van Voorhis, S. H. Chien, A. Sodt, R. P. Steele, 
 V. A. Rassolov, P. E. Maslen, P. P. Korambath, R. D. Adamson,
 B. Austin, J. Baker, E. F. C. Byrd, H. Dachsel, R. J. Doerksen,
 A. Dreuw, B. D. Dunietz, A. D. Dutoi, T. R. Furlani,
 S. R. Gwaltney, A. Heyden, S. Hirata, C.-P. Hsu, G. Kedziora,
 R. Z. Khaliullin, P. Klunzinger, A. M. Lee, M. S. Lee, W. Liang,
 I. Lotan, N. Nair, B. Peters, E. I. Proynov, P. A. Pieniazek, 
 Y. M. Rhee, J. Ritchie, E. Rosta, C. D. Sherrill, 
 A. C. Simmonett, J. E. Subotnik, H. L. Woodcock III,
 W. Zhang, A. T. Bell, A. K. Chakraborty, D. M. Chipman,
 F. J. Keil, A. Warshel, W. J. Hehre, H. F. Schaefer III,
 J. Kong, A. I. Krylov, P. M. W. Gill, M. Head-Gordon,
 Q-Chem, Version 3.1, Q-Chem, Inc., Pittsburgh, PA (2007).

 Additional authors for Version 3.1: 
 Z. Gan, Y. Zhao, N. E. Schultz, D. Truhlar, E. Epifanovsky and M. Oana.

 Additional authors for Version 3.2: 
 R. Baer, B. R. Brooks, D. Casanova, J.-D. Chai, C.-L. Cheng, 
 C. Cramer, D. Crittenden, A. Ghysels, G. Hawkins, E. G. Hohenstein, 
 C. Kelley, W. Kurlancheek, D. Liotard, E. Livshits, P. Manohar, 
 A. Marenich, D. Neuhauser, R. Olson, M. A. Rohrdanz, K. S. Thanthiriwatte, 
 A. J. W. Thom, V. Vanovschi, C. F. Williams, Q. Wu and Z.-Q. You. 


 Intel X86 Linux Version

 Q-chem begins on Sun Jul  7 11:17:04 2013  

 Parallel job on  1  processors
Processing $rem in /usr/local/qchem/config/preferences.

theFileMan(): MAXOPENFILES=974 MAX_SUB_FILE_NUM=16
Maximum size of a physical file is 2.0 GB, maximum size of a tmp-file is 32.0 GB


--------------------------------------------------------------
User input:
--------------------------------------------------------------

$molecule
0,1
C         -0.00003        0.00000        0.00511
H         -0.00008        0.00000        1.10256
C          1.44877        0.00000       -0.46691
H          1.49564        0.00000       -1.56124
H          1.98463        0.88451       -0.11125
H          1.98463       -0.88451       -0.11125
C         -0.72447       -1.25474       -0.46680
H         -0.74778       -1.29553       -1.56115
H         -0.22608       -2.16083       -0.11114
H         -1.75845       -1.27686       -0.11130
C         -0.72447        1.25474       -0.46680
H         -0.74778        1.29553       -1.56115
H         -1.75845        1.27686       -0.11130
H         -0.22608        2.16083       -0.11114
$end

$comment
neutral
$end

$xc_functional
C PBE   1.00
X wPBE  1.00
$end


$rem
SYMMETRY_DECOMPOSITION	0
LRC_DFT                 true
exchange 		general
BASIS                   g3large
omega			350 
JOBTYPE                 opt
mem_static              760
max_scf_cycles          200
scf_final_print         1
sym_ignore              true
$end


--------------------------------------------------------------
 Writing REM_CC_EA           14
 ----------------------------------------------------
       Standard Nuclear Orientation (Angstroms)
    I     Atom         X            Y            Z
 ----------------------------------------------------
    1      C      -0.000030     0.000000     0.005110
    2      H      -0.000080     0.000000     1.102560
    3      C       1.448770     0.000000    -0.466910
    4      H       1.495640     0.000000    -1.561240
    5      H       1.984630     0.884510    -0.111250
    6      H       1.984630    -0.884510    -0.111250
    7      C      -0.724470    -1.254740    -0.466800
    8      H      -0.747780    -1.295530    -1.561150
    9      H      -0.226080    -2.160830    -0.111140
   10      H      -1.758450    -1.276860    -0.111300
   11      C      -0.724470     1.254740    -0.466800
   12      H      -0.747780     1.295530    -1.561150
   13      H      -1.758450     1.276860    -0.111300
   14      H      -0.226080     2.160830    -0.111140
 ----------------------------------------------------
 Nuclear Repulsion Energy =   134.9570436455 hartrees
 There are       17 alpha and       17 beta electrons
 Requested basis set is G3large
 There are 100 shells and 268 basis functions

Total QAlloc Memory Limit   2000 MB
Mega-Array Size       743 MB
MEM_STATIC part       760 MB
 A cutoff of  1.0D-11 yielded   4852 shell pairs
 There are  34918 function pairs ( 41614 Cartesian)
Evaluating contribution to one-electron hamiltonian from nuclear
 Smallest overlap matrix eigenvalue = 3.17E-05
 Multipole matrices computed through 2nd order

  Scale SEOQF with 1.000000e-01/1.000000e-01/1.000000e-01

 Standard Electronic Orientation quadrupole field applied
 Nucleus-field energy     =     0.0000000026 hartrees
 Guess from superposition of atomic densities
 Warning:  Energy on first SCF cycle will be non-variational
 Long-range K will be added via erf
 Coulomb attenuation parameter = 0.35 bohr**(-1)
 A restricted Kohn-Sham SCF calculation will be
 performed using Pulay DIIS extrapolation
 Exchange:  wPBE + LR-HF      Correlation:  PBE
 Using SG-1 standard quadrature grid
 SCF converges when DIIS error is below 1.0E-08
 Requested basis set is G3large
 There are 100 shells and 268 basis functions
 A cutoff of  1.0D-11 yielded   4852 shell pairs
 There are  34918 function pairs ( 41614 Cartesian)
 ---------------------------------------
  Cycle       Energy         DIIS Error
 ---------------------------------------
    1    -159.4629072886      2.67E-02
    2    -158.3176548054      2.67E-03
    3    -158.3620218794      1.69E-03
    4    -158.3860104284      2.23E-04
    5    -158.3865501273      6.77E-05
    6    -158.3865974367      2.50E-05
    7    -158.3866031095      4.16E-06
    8    -158.3866032172      9.83E-07
    9    -158.3866032439      2.54E-07
   10    -158.3866032322      9.20E-08
   11    -158.3866032353      1.84E-08
   12    -158.3866032355      3.18E-09 Convergence criterion met
 ---------------------------------------
 One-Electron    Energy =  -478.5748034883
 Total Coulomb   Energy =   210.5978451899
 Alpha Exchange  Energy =    -3.0006810181
 Beta  Exchange  Energy =    -3.0006810181
 DFT   Exchange  Energy =   -18.2788367867
 DFT Correlation Energy =    -1.0864897623
 Nuclear Repu.   Energy =   134.9570436481
 Nuclear Attr.   Energy =  -636.0962469442
 Kinetic         Energy =   157.5214434559
 SCF time:  CPU 391.79 s  wall 395.02 s
 Final Alpha MO Eigenvalues
            1           2           3           4           5           6
    1 -10.0748831 -10.0562492 -10.0562394 -10.0562238  -0.9316425  -0.8048065
            7           8           9          10          11          12
    1  -0.8047939  -0.6779586  -0.5808316  -0.5444541  -0.5444252  -0.4899815
           13          14          15          16          17          18
    1  -0.4899726  -0.4667107  -0.4302765  -0.4302280  -0.4224018   0.0386624
           19          20          21          22
    1   0.0569680   0.0569708   0.0575846   0.0793713
 Analysis of SCF Wavefunction
 
 --------------------------------------------------------------
                    Orbital Energies (a.u.)
 --------------------------------------------------------------
 
 Alpha MOs
 -- Occupied --
-10.075 -10.056 -10.056 -10.056  -0.932  -0.805  -0.805  -0.678
 -0.581  -0.544  -0.544  -0.490  -0.490  -0.467  -0.430  -0.430
 -0.422
 -- Virtual --
  0.039   0.057   0.057   0.058   0.079   0.079   0.085   0.094
  0.094   0.113   0.135   0.160   0.160   0.169   0.169   0.173
  0.179   0.196   0.196   0.199   0.214   0.214   0.223   0.223
  0.234   0.236   0.280   0.280   0.286   0.298   0.298   0.320
  0.323   0.362   0.362   0.378   0.378   0.389   0.462   0.487
  0.487   0.557   0.560   0.560   0.578   0.587   0.587   0.631
  0.649   0.651   0.651   0.662   0.662   0.663   0.677   0.700
  0.700   0.732   0.732   0.735   0.772   0.772   0.790   0.808
  0.847   0.847   0.915   0.946   0.946   0.969   1.008   1.008
  1.062   1.070   1.112   1.112   1.165   1.165   1.199   1.228
  1.242   1.242   1.249   1.285   1.285   1.343   1.371   1.371
  1.385   1.385   1.418   1.437   1.437   1.440   1.440   1.440
  1.472   1.493   1.493   1.559   1.565   1.565   1.581   1.641
  1.671   1.671   1.691   1.697   1.707   1.707   1.742   1.742
  1.810   1.814   1.814   2.494   2.494   2.612   2.642   2.642
  2.654   2.732   2.801   2.801   2.825   2.825   2.850   2.902
  2.941   2.941   3.009   3.029   3.029   3.037   3.037   3.064
  3.126   3.127   3.137   3.223   3.223   3.261   3.352   3.359
  3.367   3.367   3.423   3.423   3.450   3.458   3.496   3.496
  3.554   3.562   3.562   3.644   3.647   3.647   3.677   3.677
  3.711   3.793   3.830   3.830   3.863   3.863   3.931   3.931
  3.998   4.038   4.039   4.058   4.072   4.099   4.099   4.134
  4.163   4.163   4.287   4.298   4.298   4.298   4.333   4.355
  4.355   4.372   4.372   4.389   4.486   4.494   4.494   4.584
  4.613   4.613   4.712   4.712   4.728   4.728   4.729   4.794
  4.865   4.866   4.883   4.983   4.983   5.414   5.501   5.501
  5.688   5.776   5.776   5.802   5.807   5.814   5.814  24.088
 24.249  24.249  24.367  27.629  27.629  27.930  28.110  28.110
 28.124  28.158  28.181  28.181  28.395  28.493  28.493  40.940
 40.972  40.980  40.984  40.995  41.009  41.018  41.019  41.190
 41.194  41.194  41.199  41.201  41.211  41.228  41.229  41.254
 41.287  41.291  41.329
 --------------------------------------------------------------
 
          Ground-State Mulliken Net Atomic Charges

     Atom                 Charge (a.u.)
  ----------------------------------------
      1 C                     0.290416
      2 H                     0.059415
      3 C                    -0.375505
      4 H                     0.088295
      5 H                     0.085331
      6 H                     0.085331
      7 C                    -0.375657
      8 H                     0.088344
      9 H                     0.085351
     10 H                     0.085321
     11 C                    -0.375657
     12 H                     0.088344
     13 H                     0.085321
     14 H                     0.085351
  ----------------------------------------
  Sum of atomic charges =     0.000000

 -----------------------------------------------------------------
                    Cartesian Multipole Moments
 -----------------------------------------------------------------
    Charge (ESU x 10^10)
                 0.0000
    Dipole Moment (Debye)
         X       0.0001      Y       0.0000      Z       0.1230
       Tot       0.1230
    Quadrupole Moments (Debye-Ang)
        XX     -28.7620     XY       0.0000     YY     -28.7643
        XZ       0.0001     YZ       0.0000     ZZ     -28.2421
    Octapole Moments (Debye-Ang^2)
       XXX      -1.9710    XXY       0.0000    XYY       1.9716
       YYY       0.0000    XXZ      12.1371    XYZ       0.0000
       YYZ      12.1371    XZZ       0.0015    YZZ       0.0000
       ZZZ      30.5620
    Hexadecapole Moments (Debye-Ang^3)
      XXXX    -215.0085   XXXY       0.0000   XXYY     -71.6693
      XYYY       0.0000   YYYY    -215.0463   XXXZ      -0.4274
      XXYZ       0.0000   XYYZ       0.4323   YYYZ       0.0000
      XXZZ     -53.2546   XYZZ       0.0000   YYZZ     -53.2547
      XZZZ       0.0000   YZZZ       0.0000   ZZZZ     -87.4210
 -----------------------------------------------------------------
 Calculating analytic gradient of the SCF energy
 Gradient of AOints
            1           2           3           4           5           6
    1  -0.0061842   0.0016503  -4.7574835  -0.8808353  -2.3208356  -2.3208356
    2  -0.0000010  -0.0000001   0.0000001  -0.0000002  -2.7821224   2.7821230
    3  -1.5021837  -4.3902499   0.4288395   3.6391792  -1.0512052  -1.0512053
            7           8           9          10          11          12
    1   2.3835676   0.4398544  -1.2507343   3.5695741   2.3835670   0.4398541
    2   4.1185903   0.7635765   3.4000092   0.6199600  -4.1185895  -0.7635763
    3   0.4253707   3.6384732  -1.0506416  -1.0497896   0.4253702   3.6384733
           13          14
    1   3.5695743  -1.2507334
    2  -0.6199604  -3.4000091
    3  -1.0497895  -1.0506413
 Gradient of XC Energy
            1           2           3           4           5           6
    1   0.0000836  -0.0000324  -0.0311321   0.0110662   0.0888649   0.0888649
    2   0.0000000   0.0000000  -0.0000000   0.0000000   0.1423284  -0.1423285
    3  -0.0275330   0.1792126   0.0098813  -0.1737095   0.0566122   0.0566122
            7           8           9          10          11          12
    1   0.0154495  -0.0055209   0.0789001  -0.1676863   0.0154495  -0.0055209
    2   0.0270320  -0.0096149  -0.1481265  -0.0058325  -0.0270320   0.0096149
    3   0.0099357  -0.1736789   0.0566192   0.0565860   0.0099357  -0.1736789
           13          14
    1  -0.1676863   0.0789001
    2   0.0058325   0.1481265
    3   0.0565860   0.0566192
 Gradient of SCF Energy
            1           2           3           4           5           6
    1   0.0000070   0.0000030   0.0000469   0.0000200   0.0001323   0.0001323
    2   0.0000000  -0.0000000   0.0000000   0.0000000   0.0002023  -0.0002023
    3  -0.0000057   0.0002781   0.0000002  -0.0002600   0.0000773   0.0000773
            7           8           9          10          11          12
    1  -0.0000246  -0.0000138   0.0001107  -0.0002430  -0.0000246  -0.0000138
    2  -0.0000385  -0.0000215  -0.0002157  -0.0000141   0.0000385   0.0000215
    3   0.0000090  -0.0002603   0.0000817   0.0000859   0.0000091  -0.0002603
           13          14
    1  -0.0002430   0.0001107
    2   0.0000141   0.0002157
    3   0.0000859   0.0000817
 Max gradient component =       2.781E-04
 RMS gradient           =       1.274E-04
 Gradient time:  CPU 150.22 s  wall 150.38 s
 Geometry Optimization Parameters
   NAtoms,    NIC,     NZ,  NCons,   NDum,   NFix, NCnnct, MaxDiis
       14      92       0       0       0       0       0       0


** GEOMETRY OPTIMIZATION IN DELOCALIZED INTERNAL COORDINATES **
   Searching for a Minimum

   Optimization Cycle:   1

                       Coordinates (Angstroms)
     ATOM              X           Y           Z
    1  C          -0.000030    0.000000    0.005110
    2  H          -0.000080    0.000000    1.102560
    3  C           1.448770    0.000000   -0.466910
    4  H           1.495640    0.000000   -1.561240
    5  H           1.984630    0.884510   -0.111250
    6  H           1.984630   -0.884510   -0.111250
    7  C          -0.724470   -1.254740   -0.466800
    8  H          -0.747780   -1.295530   -1.561150
    9  H          -0.226080   -2.160830   -0.111140
   10  H          -1.758450   -1.276860   -0.111300
   11  C          -0.724470    1.254740   -0.466800
   12  H          -0.747780    1.295530   -1.561150
   13  H          -1.758450    1.276860   -0.111300
   14  H          -0.226080    2.160830   -0.111140
   Point Group: c1    Number of degrees of freedom:  36


   Energy is   -158.386603235


 Attempting to Generate Delocalized Internal Coordinates

 29 Hessian modes will be used to form the next step
  Hessian Eigenvalues:
     0.006034    0.037816    0.049811    0.056027    0.056037    0.057204
     0.160000    0.160000    0.160000    0.160000    0.160000    0.160000
     0.160000    0.160000    0.160000    0.168105    0.168106    0.300060
     0.300079    0.339657    0.342007    0.342007    0.342035    0.343980
     0.343980    0.343987    0.343987    0.344038    0.344038

 Minimum Search - Taking Simple RFO Step
 Searching for Lamda that Minimizes Along All modes
 Value Taken    Lamda =  -0.00000321
 Step Taken.  Stepsize is  0.003247

                             Maximum     Tolerance    Cnvgd?
         Gradient           0.000807      0.000300      NO
         Displacement       0.002297      0.001200      NO
         Energy change     *********      0.000001      NO


 New Cartesian Coordinates Obtained by Inverse Iteration

 Displacement from previous Coordinates is:  0.005803
 Writing REM_CC_EA           14
 ----------------------------------------------------
       Standard Nuclear Orientation (Angstroms)
    I     Atom         X            Y            Z
 ----------------------------------------------------
    1      C      -0.000035     0.000000     0.005164
    2      H      -0.000084     0.000000     1.102181
    3      C       1.448122     0.000000    -0.466870
    4      H       1.494708     0.000000    -1.560814
    5      H       1.983805     0.884219    -0.111426
    6      H       1.983805    -0.884219    -0.111426
    7      C      -0.724144    -1.254180    -0.466764
    8      H      -0.747318    -1.294703    -1.560720
    9      H      -0.225920    -2.159974    -0.111325
   10      H      -1.757778    -1.276285    -0.111476
   11      C      -0.724144     1.254180    -0.466764
   12      H      -0.747318     1.294703    -1.560720
   13      H      -1.757778     1.276285    -0.111476
   14      H      -0.225919     2.159974    -0.111325
 ----------------------------------------------------
 Nuclear Repulsion Energy =   135.0121823566 hartrees
 There are       17 alpha and       17 beta electrons
 Applying Cartesian multipole field
    Component          Value
    ---------          -----
     (2,0,0)        1.00000E-11
     (0,2,0)        2.00000E-11
     (0,0,2)       -3.00000E-11
 Nucleus-field energy     =     0.0000000026 hartrees
 Requested basis set is G3large
 There are 100 shells and 268 basis functions
 A cutoff of  1.0D-11 yielded   4852 shell pairs
 There are  34918 function pairs ( 41614 Cartesian)
Evaluating contribution to one-electron hamiltonian from nuclear
 Smallest overlap matrix eigenvalue = 3.15E-05
 Multipole matrices computed through 2nd order
 Guess MOs from SCF MO coefficient file
Reading MOs from coefficient file
Reading MOs from coefficient file
 Long-range K will be added via erf
 Coulomb attenuation parameter = 0.35 bohr**(-1)
 A restricted Kohn-Sham SCF calculation will be
 performed using Pulay DIIS extrapolation
 Exchange:  wPBE + LR-HF      Correlation:  PBE
 Using SG-1 standard quadrature grid
 SCF converges when DIIS error is below 1.0E-08
 Requested basis set is G3large
 There are 100 shells and 268 basis functions
 A cutoff of  1.0D-11 yielded   4852 shell pairs
 There are  34918 function pairs ( 41614 Cartesian)
 ---------------------------------------
  Cycle       Energy         DIIS Error
 ---------------------------------------
    1    -158.3871716568      1.25E-05
    2    -158.3866046213      3.17E-06
    3    -158.3866044869      2.33E-06
    4    -158.3866048068      1.68E-07
    5    -158.3866047872      6.10E-08
    6    -158.3866047895      2.67E-08
    7    -158.3866047875      3.63E-09 Convergence criterion met
 ---------------------------------------
 One-Electron    Energy =  -478.6829113104
 Total Coulomb   Energy =   210.6530817864
 Alpha Exchange  Energy =    -3.0007978770
 Beta  Exchange  Energy =    -3.0007978770
 DFT   Exchange  Energy =   -18.2807406697
 DFT Correlation Energy =    -1.0866211989
 Nuclear Repu.   Energy =   135.0121823592
 Nuclear Attr.   Energy =  -636.2128723587
 Kinetic         Energy =   157.5299610483
 SCF time:  CPU 223.06 s  wall 224.03 s
 Final Alpha MO Eigenvalues
            1           2           3           4           5           6
    1 -10.0746493 -10.0560549 -10.0560442 -10.0560287  -0.9318889  -0.8049255
            7           8           9          10          11          12
    1  -0.8049118  -0.6780400  -0.5810134  -0.5445925  -0.5445647  -0.4900457
           13          14          15          16          17          18
    1  -0.4900380  -0.4667372  -0.4302989  -0.4302532  -0.4224361   0.0386660
           19          20          21          22
    1   0.0569701   0.0569730   0.0575824   0.0793761
 Analysis of SCF Wavefunction
 
 --------------------------------------------------------------
                    Orbital Energies (a.u.)
 --------------------------------------------------------------
 
 Alpha MOs
 -- Occupied --
-10.075 -10.056 -10.056 -10.056  -0.932  -0.805  -0.805  -0.678
 -0.581  -0.545  -0.545  -0.490  -0.490  -0.467  -0.430  -0.430
 -0.422
 -- Virtual --
  0.039   0.057   0.057   0.058   0.079   0.079   0.085   0.094
  0.094   0.113   0.135   0.160   0.160   0.169   0.169   0.173
  0.179   0.196   0.196   0.199   0.214   0.214   0.223   0.223
  0.234   0.236   0.280   0.280   0.286   0.298   0.298   0.321
  0.324   0.362   0.362   0.378   0.378   0.389   0.463   0.487
  0.487   0.557   0.561   0.561   0.578   0.587   0.587   0.631
  0.649   0.651   0.651   0.662   0.662   0.663   0.677   0.701
  0.701   0.732   0.732   0.735   0.772   0.772   0.790   0.808
  0.847   0.847   0.915   0.946   0.946   0.969   1.008   1.008
  1.063   1.070   1.112   1.112   1.165   1.165   1.199   1.228
  1.242   1.242   1.249   1.286   1.286   1.343   1.371   1.371
  1.385   1.385   1.418   1.437   1.437   1.440   1.440   1.441
  1.472   1.493   1.493   1.559   1.565   1.566   1.581   1.641
  1.671   1.671   1.692   1.698   1.707   1.707   1.742   1.742
  1.810   1.814   1.814   2.494   2.494   2.612   2.642   2.643
  2.654   2.732   2.802   2.802   2.825   2.826   2.850   2.903
  2.941   2.941   3.009   3.029   3.029   3.037   3.038   3.065
  3.127   3.127   3.138   3.223   3.223   3.262   3.352   3.360
  3.367   3.367   3.423   3.423   3.450   3.458   3.496   3.496
  3.554   3.562   3.562   3.644   3.647   3.647   3.677   3.677
  3.711   3.794   3.831   3.831   3.863   3.863   3.932   3.932
  3.999   4.040   4.040   4.059   4.073   4.100   4.100   4.134
  4.164   4.164   4.287   4.299   4.299   4.299   4.334   4.355
  4.355   4.373   4.373   4.390   4.488   4.495   4.495   4.585
  4.615   4.615   4.713   4.713   4.730   4.730   4.731   4.795
  4.867   4.867   4.885   4.983   4.983   5.416   5.503   5.503
  5.690   5.778   5.778   5.804   5.809   5.816   5.816  24.089
 24.251  24.251  24.370  27.631  27.631  27.931  28.111  28.111
 28.125  28.159  28.182  28.182  28.395  28.493  28.493  40.941
 40.972  40.981  40.984  40.996  41.009  41.018  41.020  41.191
 41.194  41.194  41.200  41.201  41.211  41.228  41.229  41.254
 41.287  41.292  41.330
 --------------------------------------------------------------
 
          Ground-State Mulliken Net Atomic Charges

     Atom                 Charge (a.u.)
  ----------------------------------------
      1 C                     0.289461
      2 H                     0.059499
      3 C                    -0.375522
      4 H                     0.088434
      5 H                     0.085413
      6 H                     0.085413
      7 C                    -0.375669
      8 H                     0.088484
      9 H                     0.085433
     10 H                     0.085404
     11 C                    -0.375669
     12 H                     0.088484
     13 H                     0.085404
     14 H                     0.085433
  ----------------------------------------
  Sum of atomic charges =     0.000000

 -----------------------------------------------------------------
                    Cartesian Multipole Moments
 -----------------------------------------------------------------
    Charge (ESU x 10^10)
                 0.0000
    Dipole Moment (Debye)
         X       0.0001      Y       0.0000      Z       0.1232
       Tot       0.1232
    Quadrupole Moments (Debye-Ang)
        XX     -28.7600     XY       0.0000     YY     -28.7623
        XZ       0.0001     YZ       0.0000     ZZ     -28.2387
    Octapole Moments (Debye-Ang^2)
       XXX      -1.9708    XXY       0.0000    XYY       1.9714
       YYY       0.0000    XXZ      12.1348    XYZ       0.0000
       YYZ      12.1348    XZZ       0.0015    YZZ       0.0000
       ZZZ      30.5594
    Hexadecapole Moments (Debye-Ang^3)
      XXXX    -214.8222   XXXY       0.0000   XXYY     -71.6073
      XYYY       0.0000   YYYY    -214.8590   XXXZ      -0.4252
      XXYZ       0.0000   XYYZ       0.4301   YYYZ       0.0000
      XXZZ     -53.2135   XYZZ       0.0000   YYZZ     -53.2138
      XZZZ       0.0000   YZZZ       0.0000   ZZZZ     -87.3891
 -----------------------------------------------------------------
 Calculating analytic gradient of the SCF energy
 Gradient of AOints
            1           2           3           4           5           6
    1  -0.0061256   0.0016605  -4.7578682  -0.8804383  -2.3214919  -2.3214922
    2   0.0000001   0.0000001  -0.0000000  -0.0000000  -2.7825859   2.7825857
    3  -1.5068044  -4.3911017   0.4297762   3.6396503  -1.0510025  -1.0510023
            7           8           9          10          11          12
    1   2.3837076   0.4396828  -1.2508076   3.5702951   2.3837076   0.4396828
    2   4.1190812   0.7631318   3.4008380   0.6202589  -4.1190811  -0.7631319
    3   0.4263314   3.6389576  -1.0504409  -1.0496060   0.4263315   3.6389577
           13          14
    1   3.5702952  -1.2508079
    2  -0.6202591  -3.4008379
    3  -1.0496059  -1.0504410
 Gradient of XC Energy
            1           2           3           4           5           6
    1   0.0000818  -0.0000325  -0.0311796   0.0110279   0.0888857   0.0888857
    2  -0.0000000  -0.0000000  -0.0000000   0.0000000   0.1423599  -0.1423599
    3  -0.0274345   0.1792495   0.0098696  -0.1737355   0.0566085   0.0566084
            7           8           9          10          11          12
    1   0.0154759  -0.0055032   0.0789167  -0.1677239   0.0154759  -0.0055032
    2   0.0270672  -0.0095778  -0.1481617  -0.0058330  -0.0270673   0.0095778
    3   0.0099245  -0.1737060   0.0566152   0.0565833   0.0099245  -0.1737060
           13          14
    1  -0.1677239   0.0789167
    2   0.0058330   0.1481617
    3   0.0565833   0.0566153
 Gradient of SCF Energy
            1           2           3           4           5           6
    1   0.0000011   0.0000031  -0.0000192  -0.0000064  -0.0000128  -0.0000128
    2  -0.0000000  -0.0000000  -0.0000000  -0.0000000  -0.0000022   0.0000022
    3   0.0000094  -0.0000077  -0.0000181   0.0000032  -0.0000007  -0.0000008
            7           8           9          10          11          12
    1   0.0000095  -0.0000008   0.0000054   0.0000092   0.0000095  -0.0000008
    2   0.0000174   0.0000028   0.0000119   0.0000105  -0.0000174  -0.0000028
    3  -0.0000120   0.0000080   0.0000040   0.0000073  -0.0000120   0.0000080
           13          14
    1   0.0000092   0.0000054
    2  -0.0000105  -0.0000119
    3   0.0000073   0.0000040
 Max gradient component =       1.921E-05
 RMS gradient           =       8.911E-06
 Gradient time:  CPU 172.53 s  wall 172.79 s
 Geometry Optimization Parameters
   NAtoms,    NIC,     NZ,  NCons,   NDum,   NFix, NCnnct, MaxDiis
       14      92       0       0       0       0       0       0

 Cartesian Hessian Update
 Hessian Updated using BFGS Update


** GEOMETRY OPTIMIZATION IN DELOCALIZED INTERNAL COORDINATES **
   Searching for a Minimum

   Optimization Cycle:   2

                       Coordinates (Angstroms)
     ATOM              X           Y           Z
    1  C          -0.000035    0.000000    0.005164
    2  H          -0.000084    0.000000    1.102181
    3  C           1.448122    0.000000   -0.466870
    4  H           1.494708    0.000000   -1.560814
    5  H           1.983805    0.884219   -0.111426
    6  H           1.983805   -0.884219   -0.111426
    7  C          -0.724144   -1.254180   -0.466764
    8  H          -0.747318   -1.294703   -1.560720
    9  H          -0.225920   -2.159974   -0.111325
   10  H          -1.757778   -1.276285   -0.111476
   11  C          -0.724144    1.254180   -0.466764
   12  H          -0.747318    1.294703   -1.560720
   13  H          -1.757778    1.276285   -0.111476
   14  H          -0.225919    2.159974   -0.111325
   Point Group: c1    Number of degrees of freedom:  36


   Energy is   -158.386604787

 Hessian Updated using BFGS Update

 24 Hessian modes will be used to form the next step
  Hessian Eigenvalues:
     0.006034    0.038044    0.049811    0.055982    0.056034    0.057204
     0.057205    0.159709    0.160510    0.168105    0.168106    0.300060
     0.300072    0.315336    0.339969    0.342007    0.342023    0.342514
     0.343980    0.343983    0.343987    0.344012    0.344038    0.348020

 Minimum Search - Taking Simple RFO Step
 Searching for Lamda that Minimizes Along All modes
 Value Taken    Lamda =   0.00000000
 Step Taken.  Stepsize is  0.000507

                             Maximum     Tolerance    Cnvgd?
         Gradient           0.000073      0.000300     YES
         Displacement       0.000332      0.001200     YES
         Energy change     -0.000002      0.000001      NO


                       Distance Matrix (Angstroms)
             C (  1)   H (  2)   C (  3)   H (  4)   H (  5)   H (  6)
   H (  2)  1.097017
   C (  3)  1.523146  2.135234
   H (  4)  2.164843  3.053841  1.094935
   H (  5)  2.175099  2.488072  1.093225  1.766858
   H (  6)  2.175099  2.488072  1.093225  1.766858  1.768439
   C (  7)  1.523161  2.135139  2.508327  2.773665  3.468718  2.756107
   H (  8)  2.164875  3.053794  2.773575  2.589003  3.782484  3.118971
   H (  9)  2.174875  2.487787  2.755778  3.118824  3.761648  2.551555
   H ( 10)  2.175355  2.488243  3.468862  3.782612  4.320558  3.762069
   C ( 11)  1.523161  2.135139  2.508327  2.773665  2.756106  3.468718
   H ( 12)  2.164875  3.053794  2.773575  2.589003  3.118971  3.782484
   H ( 13)  2.175355  2.488243  3.468862  3.782612  3.762068  4.320558
   H ( 14)  2.174875  2.487787  2.755778  3.118824  2.551554  3.761648
             C (  7)   H (  8)   H (  9)   H ( 10)   C ( 11)   H ( 12)
   H (  8)  1.094951
   H (  9)  1.093173  1.766719
   H ( 10)  1.093215  1.766828  1.768473
   C ( 11)  2.508360  2.773821  3.468575  2.756426
   H ( 12)  2.773821  2.589407  3.782512  3.119507  1.094951
   H ( 13)  2.756426  3.119507  3.762243  2.552571  1.093215  1.766828
   H ( 14)  3.468575  3.782512  4.319947  3.762243  1.093173  1.766719
             H ( 13)
   H ( 14)  1.768473
 


 ******************************
 **  OPTIMIZATION CONVERGED  **
 ******************************
 Analysis of SCF Wavefunction
 
 --------------------------------------------------------------
                    Orbital Energies (a.u.)
 --------------------------------------------------------------
 
 Alpha MOs
 -- Occupied --
-10.075 -10.056 -10.056 -10.056  -0.932  -0.805  -0.805  -0.678
 -0.581  -0.545  -0.545  -0.490  -0.490  -0.467  -0.430  -0.430
 -0.422
 -- Virtual --
  0.039   0.057   0.057   0.058   0.079   0.079   0.085   0.094
  0.094   0.113   0.135   0.160   0.160   0.169   0.169   0.173
  0.179   0.196   0.196   0.199   0.214   0.214   0.223   0.223
  0.234   0.236   0.280   0.280   0.286   0.298   0.298   0.321
  0.324   0.362   0.362   0.378   0.378   0.389   0.463   0.487
  0.487   0.557   0.561   0.561   0.578   0.587   0.587   0.631
  0.649   0.651   0.651   0.662   0.662   0.663   0.677   0.701
  0.701   0.732   0.732   0.735   0.772   0.772   0.790   0.808
  0.847   0.847   0.915   0.946   0.946   0.969   1.008   1.008
  1.063   1.070   1.112   1.112   1.165   1.165   1.199   1.228
  1.242   1.242   1.249   1.286   1.286   1.343   1.371   1.371
  1.385   1.385   1.418   1.437   1.437   1.440   1.440   1.441
  1.472   1.493   1.493   1.559   1.565   1.566   1.581   1.641
  1.671   1.671   1.692   1.698   1.707   1.707   1.742   1.742
  1.810   1.814   1.814   2.494   2.494   2.612   2.642   2.643
  2.654   2.732   2.802   2.802   2.825   2.826   2.850   2.903
  2.941   2.941   3.009   3.029   3.029   3.037   3.038   3.065
  3.127   3.127   3.138   3.223   3.223   3.262   3.352   3.360
  3.367   3.367   3.423   3.423   3.450   3.458   3.496   3.496
  3.554   3.562   3.562   3.644   3.647   3.647   3.677   3.677
  3.711   3.794   3.831   3.831   3.863   3.863   3.932   3.932
  3.999   4.040   4.040   4.059   4.073   4.100   4.100   4.134
  4.164   4.164   4.287   4.299   4.299   4.299   4.334   4.355
  4.355   4.373   4.373   4.390   4.488   4.495   4.495   4.585
  4.615   4.615   4.713   4.713   4.730   4.730   4.731   4.795
  4.867   4.867   4.885   4.983   4.983   5.416   5.503   5.503
  5.690   5.778   5.778   5.804   5.809   5.816   5.816  24.089
 24.251  24.251  24.370  27.631  27.631  27.931  28.111  28.111
 28.125  28.159  28.182  28.182  28.395  28.493  28.493  40.941
 40.972  40.981  40.984  40.996  41.009  41.018  41.020  41.191
 41.194  41.194  41.200  41.201  41.211  41.228  41.229  41.254
 41.287  41.292  41.330
 --------------------------------------------------------------
 
          Ground-State Mulliken Net Atomic Charges

     Atom                 Charge (a.u.)
  ----------------------------------------
      1 C                     0.289461
      2 H                     0.059499
      3 C                    -0.375522
      4 H                     0.088434
      5 H                     0.085413
      6 H                     0.085413
      7 C                    -0.375669
      8 H                     0.088484
      9 H                     0.085433
     10 H                     0.085404
     11 C                    -0.375669
     12 H                     0.088484
     13 H                     0.085404
     14 H                     0.085433
  ----------------------------------------
  Sum of atomic charges =     0.000000

 -----------------------------------------------------------------
                    Cartesian Multipole Moments
 -----------------------------------------------------------------
    Charge (ESU x 10^10)
                 0.0000
    Dipole Moment (Debye)
         X       0.0001      Y       0.0000      Z       0.1232
       Tot       0.1232
    Quadrupole Moments (Debye-Ang)
        XX     -28.7600     XY       0.0000     YY     -28.7623
        XZ       0.0001     YZ       0.0000     ZZ     -28.2387
    Octapole Moments (Debye-Ang^2)
       XXX      -1.9708    XXY       0.0000    XYY       1.9714
       YYY       0.0000    XXZ      12.1348    XYZ       0.0000
       YYZ      12.1348    XZZ       0.0015    YZZ       0.0000
       ZZZ      30.5594
    Hexadecapole Moments (Debye-Ang^3)
      XXXX    -214.8222   XXXY       0.0000   XXYY     -71.6073
      XYYY       0.0000   YYYY    -214.8590   XXXZ      -0.4252
      XXYZ       0.0000   XYYZ       0.4301   YYYZ       0.0000
      XXZZ     -53.2135   XYZZ       0.0000   YYZZ     -53.2138
      XZZZ       0.0000   YZZZ       0.0000   ZZZZ     -87.3891
 -----------------------------------------------------------------
 Total job time:  943.01s(wall), 938.36s(cpu) 
 Sun Jul  7 11:32:47 2013

        *************************************************************
        *                                                           *
        *  Thank you very much for using Q-Chem.  Have a nice day.  *
        *                                                           *
        *************************************************************


0 sent ACK to 0 
now end server 0 ... 
 
**********************************************************************
Job 2 of 2 
**********************************************************************
 
Process 0 of 1 is on cl239.stfx.acenet.ca - thread support 1
initial socket setup ...start
initial socket setup ...done 
now start server 0 ... 

cmd = /usr/bin/ssh clhead /usr/local/qchem/bin/get_hostid 718433404 > /scratch/tmp/6064164.1.long.q/qchem24686/lic.dat
                  Welcome to Q-Chem
     A Quantum Leap Into The Future Of Chemistry

 Y. Shao, L. Fusti-Molnar, Y. Jung, J. Kussmann, C. Ochsenfeld,
 S. T. Brown, A. T. B. Gilbert, L. V. Slipchenko,S. V. Levchenko,
 D. P. O'Neill, R. A. DiStasio Jr., R. C. Lochan, T. Wang,
 G. J. O. Beran, N. A. Besley, J. M. Herbert, C. Y. Lin,
 T. Van Voorhis, S. H. Chien, A. Sodt, R. P. Steele, 
 V. A. Rassolov, P. E. Maslen, P. P. Korambath, R. D. Adamson,
 B. Austin, J. Baker, E. F. C. Byrd, H. Dachsel, R. J. Doerksen,
 A. Dreuw, B. D. Dunietz, A. D. Dutoi, T. R. Furlani,
 S. R. Gwaltney, A. Heyden, S. Hirata, C.-P. Hsu, G. Kedziora,
 R. Z. Khaliullin, P. Klunzinger, A. M. Lee, M. S. Lee, W. Liang,
 I. Lotan, N. Nair, B. Peters, E. I. Proynov, P. A. Pieniazek, 
 Y. M. Rhee, J. Ritchie, E. Rosta, C. D. Sherrill, 
 A. C. Simmonett, J. E. Subotnik, H. L. Woodcock III,
 W. Zhang, A. T. Bell, A. K. Chakraborty, D. M. Chipman,
 F. J. Keil, A. Warshel, W. J. Hehre, H. F. Schaefer III,
 J. Kong, A. I. Krylov, P. M. W. Gill, M. Head-Gordon,
 Q-Chem, Version 3.1, Q-Chem, Inc., Pittsburgh, PA (2007).

 Additional authors for Version 3.1: 
 Z. Gan, Y. Zhao, N. E. Schultz, D. Truhlar, E. Epifanovsky and M. Oana.

 Additional authors for Version 3.2: 
 R. Baer, B. R. Brooks, D. Casanova, J.-D. Chai, C.-L. Cheng, 
 C. Cramer, D. Crittenden, A. Ghysels, G. Hawkins, E. G. Hohenstein, 
 C. Kelley, W. Kurlancheek, D. Liotard, E. Livshits, P. Manohar, 
 A. Marenich, D. Neuhauser, R. Olson, M. A. Rohrdanz, K. S. Thanthiriwatte, 
 A. J. W. Thom, V. Vanovschi, C. F. Williams, Q. Wu and Z.-Q. You. 


 Intel X86 Linux Version

 Q-chem begins on Sun Jul  7 11:32:50 2013  

 Parallel job on  1  processors
Processing $rem in /usr/local/qchem/config/preferences.

theFileMan(): MAXOPENFILES=974 MAX_SUB_FILE_NUM=16
Maximum size of a physical file is 2.0 GB, maximum size of a tmp-file is 32.0 GB


--------------------------------------------------------------
User input:
--------------------------------------------------------------

$molecule 
READ 
$end 

$xc_functional
C PBE   1.00
X wPBE  1.00
$end


$rem
SYMMETRY_DECOMPOSITION	0
LRC_DFT                 true
exchange 		general
BASIS                   g3large
omega			350 
JOBTYPE                 freq
IDERIV 1
SCF_GUESS READ
mem_static              760
max_scf_cycles          200
scf_final_print         1
sym_ignore              true
$end

--------------------------------------------------------------
 Writing REM_CC_EA           14
 ----------------------------------------------------
       Standard Nuclear Orientation (Angstroms)
    I     Atom         X            Y            Z
 ----------------------------------------------------
    1      C      -0.000035     0.000000     0.005164
    2      H      -0.000084     0.000000     1.102181
    3      C       1.448122     0.000000    -0.466870
    4      H       1.494708     0.000000    -1.560814
    5      H       1.983805     0.884219    -0.111426
    6      H       1.983805    -0.884219    -0.111426
    7      C      -0.724144    -1.254180    -0.466764
    8      H      -0.747318    -1.294703    -1.560720
    9      H      -0.225920    -2.159974    -0.111325
   10      H      -1.757778    -1.276285    -0.111476
   11      C      -0.724144     1.254180    -0.466764
   12      H      -0.747318     1.294703    -1.560720
   13      H      -1.757778     1.276285    -0.111476
   14      H      -0.225919     2.159974    -0.111325
 ----------------------------------------------------
 Nuclear Repulsion Energy =   135.0121823566 hartrees
 There are       17 alpha and       17 beta electrons
 Requested basis set is G3large
 There are 100 shells and 268 basis functions

Total QAlloc Memory Limit   2000 MB
Mega-Array Size       759 MB
MEM_STATIC part       760 MB

                       Distance Matrix (Angstroms)
             C (  1)   H (  2)   C (  3)   H (  4)   H (  5)   H (  6)
   H (  2)  1.097017
   C (  3)  1.523146  2.135234
   H (  4)  2.164843  3.053841  1.094935
   H (  5)  2.175099  2.488072  1.093225  1.766858
   H (  6)  2.175099  2.488072  1.093225  1.766858  1.768439
   C (  7)  1.523161  2.135139  2.508327  2.773665  3.468718  2.756107
   H (  8)  2.164875  3.053794  2.773575  2.589003  3.782484  3.118971
   H (  9)  2.174875  2.487787  2.755778  3.118824  3.761648  2.551555
   H ( 10)  2.175355  2.488243  3.468862  3.782612  4.320558  3.762069
   C ( 11)  1.523161  2.135139  2.508327  2.773665  2.756106  3.468718
   H ( 12)  2.164875  3.053794  2.773575  2.589003  3.118971  3.782484
   H ( 13)  2.175355  2.488243  3.468862  3.782612  3.762068  4.320558
   H ( 14)  2.174875  2.487787  2.755778  3.118824  2.551554  3.761648
             C (  7)   H (  8)   H (  9)   H ( 10)   C ( 11)   H ( 12)
   H (  8)  1.094951
   H (  9)  1.093173  1.766719
   H ( 10)  1.093215  1.766828  1.768473
   C ( 11)  2.508360  2.773821  3.468575  2.756426
   H ( 12)  2.773821  2.589407  3.782512  3.119507  1.094951
   H ( 13)  2.756426  3.119507  3.762243  2.552571  1.093215  1.766828
   H ( 14)  3.468575  3.782512  4.319947  3.762243  1.093173  1.766719
             H ( 13)
   H ( 14)  1.768473
 
 A cutoff of  1.0D-11 yielded   4852 shell pairs
 There are  34918 function pairs ( 41614 Cartesian)
Evaluating contribution to one-electron hamiltonian from nuclear
 Smallest overlap matrix eigenvalue = 3.15E-05
 Multipole matrices computed through 2nd order
 Guess MOs from SCF MO coefficient file
Reading MOs from coefficient file
Reading MOs from coefficient file
 Long-range K will be added via erf
 Coulomb attenuation parameter = 0.35 bohr**(-1)
 A restricted Kohn-Sham SCF calculation will be
 performed using Pulay DIIS extrapolation
 Exchange:  wPBE + LR-HF      Correlation:  PBE
 Using SG-1 standard quadrature grid
 SCF converges when DIIS error is below 1.0E-08
 ---------------------------------------
  Cycle       Energy         DIIS Error
 ---------------------------------------
    1    -158.3866049228      7.46E-10
    2    -158.3866049215      2.61E-10 Convergence criterion met
 ---------------------------------------
 One-Electron    Energy =  -478.6829137593
 Total Coulomb   Energy =   210.6530844568
 Alpha Exchange  Energy =    -3.0007978904
 Beta  Exchange  Energy =    -3.0007978904
 DFT   Exchange  Energy =   -18.2807409705
 DFT Correlation Energy =    -1.0866212243
 Nuclear Repu.   Energy =   135.0121823566
 Nuclear Attr.   Energy =  -636.2128760903
 Kinetic         Energy =   157.5299623310
 SCF time:  CPU 77.51 s  wall 77.88 s
 Final Alpha MO Eigenvalues
            1           2           3           4           5           6
    1 -10.0746493 -10.0560549 -10.0560442 -10.0560287  -0.9318889  -0.8049254
            7           8           9          10          11          12
    1  -0.8049118  -0.6780400  -0.5810134  -0.5445925  -0.5445647  -0.4900457
           13          14          15          16          17          18
    1  -0.4900380  -0.4667372  -0.4302989  -0.4302532  -0.4224361   0.0386661
           19          20          21          22
    1   0.0569701   0.0569730   0.0575824   0.0793762
 Analysis of SCF Wavefunction
 
 --------------------------------------------------------------
                    Orbital Energies (a.u.)
 --------------------------------------------------------------
 
 Alpha MOs
 -- Occupied --
-10.075 -10.056 -10.056 -10.056  -0.932  -0.805  -0.805  -0.678
 -0.581  -0.545  -0.545  -0.490  -0.490  -0.467  -0.430  -0.430
 -0.422
 -- Virtual --
  0.039   0.057   0.057   0.058   0.079   0.079   0.085   0.094
  0.094   0.113   0.135   0.160   0.160   0.169   0.169   0.173
  0.179   0.196   0.196   0.199   0.214   0.214   0.223   0.223
  0.234   0.236   0.280   0.280   0.286   0.298   0.298   0.321
  0.324   0.362   0.362   0.378   0.378   0.389   0.463   0.487
  0.487   0.557   0.561   0.561   0.578   0.587   0.587   0.631
  0.649   0.651   0.651   0.662   0.662   0.663   0.677   0.701
  0.701   0.732   0.732   0.735   0.772   0.772   0.790   0.808
  0.847   0.847   0.915   0.946   0.946   0.969   1.008   1.008
  1.063   1.070   1.112   1.112   1.165   1.165   1.199   1.228
  1.242   1.242   1.249   1.286   1.286   1.343   1.371   1.371
  1.385   1.385   1.418   1.437   1.437   1.440   1.440   1.441
  1.472   1.493   1.493   1.559   1.565   1.566   1.581   1.641
  1.671   1.671   1.692   1.698   1.707   1.707   1.742   1.742
  1.810   1.814   1.814   2.494   2.494   2.612   2.642   2.643
  2.654   2.732   2.802   2.802   2.825   2.826   2.850   2.903
  2.941   2.941   3.009   3.029   3.029   3.037   3.038   3.065
  3.127   3.127   3.138   3.223   3.223   3.262   3.352   3.360
  3.367   3.367   3.423   3.423   3.450   3.458   3.496   3.496
  3.554   3.562   3.562   3.644   3.647   3.647   3.677   3.677
  3.711   3.794   3.831   3.831   3.863   3.863   3.932   3.932
  3.999   4.040   4.040   4.059   4.073   4.100   4.100   4.134
  4.164   4.164   4.287   4.299   4.299   4.299   4.334   4.355
  4.355   4.373   4.373   4.390   4.488   4.495   4.495   4.585
  4.615   4.615   4.713   4.713   4.730   4.730   4.731   4.795
  4.867   4.867   4.885   4.983   4.983   5.416   5.503   5.503
  5.690   5.778   5.778   5.804   5.809   5.816   5.816  24.089
 24.251  24.251  24.370  27.631  27.631  27.931  28.111  28.111
 28.125  28.159  28.182  28.182  28.395  28.493  28.493  40.941
 40.972  40.981  40.984  40.996  41.009  41.018  41.020  41.191
 41.194  41.194  41.200  41.201  41.211  41.228  41.229  41.254
 41.287  41.292  41.330
 --------------------------------------------------------------
 
          Ground-State Mulliken Net Atomic Charges

     Atom                 Charge (a.u.)
  ----------------------------------------
      1 C                     0.289461
      2 H                     0.059499
      3 C                    -0.375522
      4 H                     0.088434
      5 H                     0.085413
      6 H                     0.085413
      7 C                    -0.375669
      8 H                     0.088484
      9 H                     0.085432
     10 H                     0.085404
     11 C                    -0.375669
     12 H                     0.088484
     13 H                     0.085404
     14 H                     0.085432
  ----------------------------------------
  Sum of atomic charges =     0.000000

 -----------------------------------------------------------------
                    Cartesian Multipole Moments
 -----------------------------------------------------------------
    Charge (ESU x 10^10)
                 0.0000
    Dipole Moment (Debye)
         X       0.0001      Y       0.0000      Z       0.1232
       Tot       0.1232
    Quadrupole Moments (Debye-Ang)
        XX     -28.7600     XY       0.0000     YY     -28.7623
        XZ       0.0001     YZ       0.0000     ZZ     -28.2387
    Octapole Moments (Debye-Ang^2)
       XXX      -1.9708    XXY       0.0000    XYY       1.9714
       YYY       0.0000    XXZ      12.1348    XYZ       0.0000
       YYZ      12.1348    XZZ       0.0015    YZZ       0.0000
       ZZZ      30.5594
    Hexadecapole Moments (Debye-Ang^3)
      XXXX    -214.8222   XXXY       0.0000   XXYY     -71.6073
      XYYY       0.0000   YYYY    -214.8590   XXXZ      -0.4252
      XXYZ       0.0000   XYYZ       0.4301   YYYZ       0.0000
      XXZZ     -53.2135   XYZZ       0.0000   YYZZ     -53.2138
      XZZZ       0.0000   YZZZ       0.0000   ZZZZ     -87.3891
 -----------------------------------------------------------------
 Calculating analytic gradient of the SCF energy
 Gradient of AOints
            1           2           3           4           5           6
    1  -0.0061254   0.0016604  -4.7578689  -0.8804386  -2.3214918  -2.3214920
    2   0.0000002   0.0000001  -0.0000001  -0.0000000  -2.7825858   2.7825857
    3  -1.5068024  -4.3911013   0.4297761   3.6396500  -1.0510027  -1.0510026
            7           8           9          10          11          12
    1   2.3837079   0.4396829  -1.2508076   3.5702951   2.3837078   0.4396830
    2   4.1190813   0.7631321   3.4008379   0.6202589  -4.1190812  -0.7631322
    3   0.4263313   3.6389574  -1.0504412  -1.0496062   0.4263315   3.6389574
           13          14
    1   3.5702951  -1.2508079
    2  -0.6202591  -3.4008378
    3  -1.0496060  -1.0504413
 Gradient of XC Energy
            1           2           3           4           5           6
    1   0.0000818  -0.0000325  -0.0311795   0.0110279   0.0888857   0.0888857
    2  -0.0000000  -0.0000000   0.0000000   0.0000000   0.1423599  -0.1423599
    3  -0.0274345   0.1792495   0.0098696  -0.1737355   0.0566085   0.0566085
            7           8           9          10          11          12
    1   0.0154759  -0.0055032   0.0789167  -0.1677239   0.0154759  -0.0055032
    2   0.0270672  -0.0095778  -0.1481617  -0.0058330  -0.0270672   0.0095778
    3   0.0099245  -0.1737060   0.0566153   0.0565833   0.0099245  -0.1737060
           13          14
    1  -0.1677239   0.0789167
    2   0.0058330   0.1481617
    3   0.0565833   0.0566153
 Gradient of SCF Energy
            1           2           3           4           5           6
    1   0.0000011   0.0000031  -0.0000192  -0.0000064  -0.0000128  -0.0000128
    2  -0.0000000  -0.0000000  -0.0000000  -0.0000000  -0.0000022   0.0000022
    3   0.0000094  -0.0000078  -0.0000181   0.0000032  -0.0000007  -0.0000007
            7           8           9          10          11          12
    1   0.0000095  -0.0000008   0.0000054   0.0000092   0.0000095  -0.0000008
    2   0.0000174   0.0000028   0.0000119   0.0000105  -0.0000174  -0.0000027
    3  -0.0000120   0.0000080   0.0000040   0.0000073  -0.0000120   0.0000080
           13          14
    1   0.0000092   0.0000054
    2  -0.0000105  -0.0000119
    3   0.0000073   0.0000040
 Max gradient component =       1.922E-05
 RMS gradient           =       8.912E-06
 Gradient time:  CPU 155.68 s  wall 155.86 s
 ######################################################
 ######################################################
 # Starting finite difference calculation for IDERIV  #
 Finite diff step size: 1.89e-03 a.u.
 Writing REM_CC_EA           14
 ----------------------------------------------------
       Standard Nuclear Orientation (Angstroms)
    I     Atom         X            Y            Z
 ----------------------------------------------------
    1      C       0.000965     0.000000     0.005164
    2      H      -0.000084     0.000000     1.102181
    3      C       1.448122     0.000000    -0.466870
    4      H       1.494708     0.000000    -1.560814
    5      H       1.983805     0.884219    -0.111426
    6      H       1.983805    -0.884219    -0.111426
    7      C      -0.724144    -1.254180    -0.466764
    8      H      -0.747318    -1.294703    -1.560720
    9      H      -0.225920    -2.159974    -0.111325
   10      H      -1.757778    -1.276285    -0.111476
   11      C      -0.724144     1.254180    -0.466764
   12      H      -0.747318     1.294703    -1.560720
   13      H      -1.757778     1.276285    -0.111476
   14      H      -0.225919     2.159974    -0.111325
 ----------------------------------------------------
 Nuclear Repulsion Energy =   135.0121846813 hartrees
 There are       17 alpha and       17 beta electrons

                       Distance Matrix (Angstroms)
             C (  1)   H (  2)   C (  3)   H (  4)   H (  5)   H (  6)
   H (  2)  1.097017
   C (  3)  1.522195  2.135234
   H (  4)  2.164152  3.053841  1.094935
   H (  5)  2.174187  2.488072  1.093225  1.766858
   H (  6)  2.174187  2.488072  1.093225  1.766858  1.768439
   C (  7)  1.523636  2.135139  2.508327  2.773665  3.468718  2.756107
   H (  8)  2.165220  3.053794  2.773575  2.589003  3.782484  3.118971
   H (  9)  2.174979  2.487787  2.755778  3.118824  3.761648  2.551555
   H ( 10)  2.176164  2.488243  3.468862  3.782612  4.320558  3.762069
   C ( 11)  1.523636  2.135139  2.508327  2.773665  2.756106  3.468718
   H ( 12)  2.165220  3.053794  2.773575  2.589003  3.118971  3.782484
   H ( 13)  2.176164  2.488243  3.468862  3.782612  3.762068  4.320558
   H ( 14)  2.174979  2.487787  2.755778  3.118824  2.551554  3.761648
             C (  7)   H (  8)   H (  9)   H ( 10)   C ( 11)   H ( 12)
   H (  8)  1.094951
   H (  9)  1.093173  1.766719
   H ( 10)  1.093215  1.766828  1.768473
   C ( 11)  2.508360  2.773821  3.468575  2.756426
   H ( 12)  2.773821  2.589407  3.782512  3.119507  1.094951
   H ( 13)  2.756426  3.119507  3.762243  2.552571  1.093215  1.766828
   H ( 14)  3.468575  3.782512  4.319947  3.762243  1.093173  1.766719
             H ( 13)
   H ( 14)  1.768473
 
 Requested basis set is G3large
 There are 100 shells and 268 basis functions
 A cutoff of  1.0D-11 yielded   4852 shell pairs
 There are  34918 function pairs ( 41614 Cartesian)
Evaluating contribution to one-electron hamiltonian from nuclear
 Smallest overlap matrix eigenvalue = 3.15E-05
 Multipole matrices computed through 2nd order
 Guess MOs from SCF MO coefficient file
Reading MOs from coefficient file
Reading MOs from coefficient file
 Long-range K will be added via erf
 Coulomb attenuation parameter = 0.35 bohr**(-1)
 A restricted Kohn-Sham SCF calculation will be
 performed using Pulay DIIS extrapolation
 Exchange:  wPBE + LR-HF      Correlation:  PBE
 Using SG-1 standard quadrature grid
 SCF converges when DIIS error is below 1.0E-08
 ---------------------------------------
  Cycle       Energy         DIIS Error
 ---------------------------------------
    1    -158.3866034462      2.03E-05
    2    -158.3866040461      2.50E-06
    3    -158.3866039227      1.45E-06
    4    -158.3866039386      2.57E-07
    5    -158.3866039398      6.33E-08
    6    -158.3866039409      7.86E-09 Convergence criterion met
 ---------------------------------------
 One-Electron    Energy =  -478.6829157629
 Total Coulomb   Energy =   210.6530850796
 Alpha Exchange  Energy =    -3.0007978319
 Beta  Exchange  Energy =    -3.0007978319
 DFT   Exchange  Energy =   -18.2807410161
 DFT Correlation Energy =    -1.0866212590
 Nuclear Repu.   Energy =   135.0121846813
 Nuclear Attr.   Energy =  -636.2128797506
 Kinetic         Energy =   157.5299639876
 SCF time:  CPU 198.38 s  wall 199.20 s
 Final Alpha MO Eigenvalues
            1           2           3           4           5           6
    1 -10.0746494 -10.0560530 -10.0560467 -10.0560281  -0.9318892  -0.8049721
            7           8           9          10          11          12
    1  -0.8048652  -0.6780399  -0.5810135  -0.5446484  -0.5445089  -0.4900829
           13          14          15          16          17          18
    1  -0.4900009  -0.4667373  -0.4304952  -0.4300584  -0.4224341   0.0386661
           19          20          21          22
    1   0.0569668   0.0569763   0.0575824   0.0793731
 Analysis of SCF Wavefunction
 
 --------------------------------------------------------------
                    Orbital Energies (a.u.)
 --------------------------------------------------------------
 
 Alpha MOs
 -- Occupied --
-10.075 -10.056 -10.056 -10.056  -0.932  -0.805  -0.805  -0.678
 -0.581  -0.545  -0.545  -0.490  -0.490  -0.467  -0.430  -0.430
 -0.422
 -- Virtual --
  0.039   0.057   0.057   0.058   0.079   0.079   0.085   0.094
  0.094   0.113   0.135   0.160   0.160   0.169   0.169   0.173
  0.179   0.196   0.196   0.199   0.214   0.214   0.223   0.223
  0.234   0.236   0.280   0.280   0.286   0.298   0.298   0.321
  0.324   0.362   0.362   0.378   0.378   0.389   0.463   0.487
  0.487   0.557   0.560   0.561   0.578   0.587   0.587   0.631
  0.649   0.651   0.651   0.662   0.662   0.663   0.677   0.701
  0.701   0.732   0.732   0.735   0.772   0.772   0.790   0.808
  0.847   0.847   0.915   0.946   0.946   0.969   1.008   1.008
  1.063   1.070   1.112   1.112   1.165   1.165   1.199   1.228
  1.242   1.242   1.249   1.286   1.286   1.343   1.371   1.371
  1.385   1.385   1.418   1.437   1.437   1.440   1.440   1.441
  1.472   1.493   1.493   1.559   1.565   1.566   1.581   1.641
  1.671   1.671   1.692   1.698   1.707   1.707   1.742   1.742
  1.810   1.814   1.814   2.494   2.494   2.612   2.642   2.643
  2.654   2.732   2.801   2.802   2.825   2.826   2.850   2.903
  2.941   2.941   3.009   3.029   3.029   3.037   3.038   3.065
  3.127   3.127   3.138   3.223   3.223   3.262   3.352   3.360
  3.367   3.367   3.423   3.423   3.450   3.458   3.496   3.496
  3.554   3.562   3.562   3.644   3.647   3.648   3.677   3.677
  3.711   3.794   3.830   3.831   3.863   3.863   3.931   3.932
  3.999   4.040   4.040   4.059   4.073   4.100   4.100   4.134
  4.164   4.164   4.287   4.299   4.299   4.299   4.334   4.355
  4.356   4.373   4.373   4.390   4.488   4.495   4.495   4.585
  4.614   4.615   4.713   4.713   4.730   4.730   4.731   4.795
  4.866   4.867   4.885   4.983   4.983   5.416   5.502   5.504
  5.690   5.778   5.778   5.804   5.809   5.816   5.816  24.089
 24.251  24.252  24.370  27.630  27.632  27.931  28.111  28.111
 28.125  28.159  28.182  28.182  28.395  28.492  28.493  40.940
 40.972  40.981  40.984  40.996  41.009  41.018  41.020  41.191
 41.194  41.194  41.200  41.201  41.211  41.228  41.229  41.255
 41.287  41.292  41.330
 --------------------------------------------------------------
 
          Ground-State Mulliken Net Atomic Charges

     Atom                 Charge (a.u.)
  ----------------------------------------
      1 C                     0.289475
      2 H                     0.059499
      3 C                    -0.375434
      4 H                     0.088423
      5 H                     0.085405
      6 H                     0.085405
      7 C                    -0.375721
      8 H                     0.088490
      9 H                     0.085405
     10 H                     0.085440
     11 C                    -0.375721
     12 H                     0.088490
     13 H                     0.085440
     14 H                     0.085405
  ----------------------------------------
  Sum of atomic charges =     0.000000

 -----------------------------------------------------------------
                    Cartesian Multipole Moments
 -----------------------------------------------------------------
    Charge (ESU x 10^10)
                 0.0000
    Dipole Moment (Debye)
         X       0.0007      Y       0.0000      Z       0.1232
       Tot       0.1232
    Quadrupole Moments (Debye-Ang)
        XX     -28.7570     XY       0.0000     YY     -28.7653
        XZ      -0.0007     YZ       0.0000     ZZ     -28.2387
    Octapole Moments (Debye-Ang^2)
       XXX      -1.9869    XXY       0.0000    XYY       1.9661
       YYY       0.0000    XXZ      12.1331    XYZ       0.0000
       YYZ      12.1365    XZZ      -0.0022    YZZ       0.0000
       ZZZ      30.5594
    Hexadecapole Moments (Debye-Ang^3)
      XXXX    -214.8004   XXXY       0.0000   XXYY     -71.6004
      XYYY       0.0000   YYYY    -214.8948   XXXZ      -0.4265
      XXYZ       0.0000   XYYZ       0.4297   YYYZ       0.0000
      XXZZ     -53.2096   XYZZ       0.0000   YYZZ     -53.2178
      XZZZ      -0.0048   YZZZ       0.0000   ZZZZ     -87.3891
 -----------------------------------------------------------------
 Calculating analytic gradient of the SCF energy
 Gradient of AOints
            1           2           3           4           5           6
    1  -0.0210865   0.0070470  -4.7595963  -0.8803577  -2.3210636  -2.3210639
    2   0.0000002   0.0000001  -0.0000001  -0.0000000  -2.7830482   2.7830481
    3  -1.5067424  -4.3911076   0.4328656   3.6403517  -1.0513986  -1.0513984
            7           8           9          10          11          12
    1   2.3878131   0.4399120  -1.2506971   3.5710325   2.3878131   0.4399121
    2   4.1157946   0.7630366   3.3998150   0.6212621  -4.1157945  -0.7630367
    3   0.4247601   3.6385987  -1.0505352  -1.0491088   0.4247602   3.6385988
           13          14
    1   3.5710326  -1.2506973
    2  -0.6212623  -3.3998149
    3  -1.0491086  -1.0505353
 Gradient of XC Energy
            1           2           3           4           5           6
    1   0.0004657  -0.0002448  -0.0310640   0.0110242   0.0888681   0.0888682
    2  -0.0000000  -0.0000000   0.0000000   0.0000000   0.1423707  -0.1423707
    3  -0.0274367   0.1792498   0.0097646  -0.1737522   0.0566200   0.0566200
            7           8           9          10          11          12
    1   0.0153766  -0.0055070   0.0789180  -0.1677463   0.0153766  -0.0055071
    2   0.0271895  -0.0095776  -0.1481341  -0.0058681  -0.0271895   0.0095776
    3   0.0099779  -0.1736976   0.0566184   0.0565686   0.0099779  -0.1736976
           13          14
    1  -0.1677463   0.0789180
    2   0.0058681   0.1481341
    3   0.0565686   0.0566184
 Gradient of SCF Energy
            1           2           3           4           5           6
    1   0.0009512  -0.0000869  -0.0003868  -0.0000097  -0.0000391  -0.0000391
    2  -0.0000000  -0.0000000  -0.0000000  -0.0000000   0.0000010  -0.0000010
    3   0.0000074  -0.0000073   0.0000627   0.0000038   0.0000098   0.0000098
            7           8           9          10          11          12
    1  -0.0001931  -0.0000027   0.0000180  -0.0000171  -0.0001931  -0.0000027
    2  -0.0000764   0.0000019   0.0000373  -0.0000374   0.0000764  -0.0000019
    3  -0.0000516   0.0000075   0.0000151  -0.0000140  -0.0000517   0.0000075
           13          14
    1  -0.0000171   0.0000180
    2   0.0000374  -0.0000373
    3  -0.0000140   0.0000151
 Max gradient component =       9.512E-04
 RMS gradient           =       1.668E-04
 Gradient time:  CPU 158.82 s  wall 158.99 s
 Writing REM_CC_EA           14
 ----------------------------------------------------
       Standard Nuclear Orientation (Angstroms)
    I     Atom         X            Y            Z
 ----------------------------------------------------
    1      C      -0.001035     0.000000     0.005164
    2      H      -0.000084     0.000000     1.102181
    3      C       1.448122     0.000000    -0.466870
    4      H       1.494708     0.000000    -1.560814
    5      H       1.983805     0.884219    -0.111426
    6      H       1.983805    -0.884219    -0.111426
    7      C      -0.724144    -1.254180    -0.466764
    8      H      -0.747318    -1.294703    -1.560720
    9      H      -0.225920    -2.159974    -0.111325
   10      H      -1.757778    -1.276285    -0.111476
   11      C      -0.724144     1.254180    -0.466764
   12      H      -0.747318     1.294703    -1.560720
   13      H      -1.757778     1.276285    -0.111476
   14      H      -0.225919     2.159974    -0.111325
 ----------------------------------------------------
 Nuclear Repulsion Energy =   135.0121840337 hartrees
 There are       17 alpha and       17 beta electrons

                       Distance Matrix (Angstroms)
             C (  1)   H (  2)   C (  3)   H (  4)   H (  5)   H (  6)
   H (  2)  1.097017
   C (  3)  1.524097  2.135234
   H (  4)  2.165533  3.053841  1.094935
   H (  5)  2.176011  2.488072  1.093225  1.766858
   H (  6)  2.176011  2.488072  1.093225  1.766858  1.768439
   C (  7)  1.522685  2.135139  2.508327  2.773665  3.468718  2.756107
   H (  8)  2.164530  3.053794  2.773575  2.589003  3.782484  3.118971
   H (  9)  2.174771  2.487787  2.755778  3.118824  3.761648  2.551555
   H ( 10)  2.174548  2.488243  3.468862  3.782612  4.320558  3.762069
   C ( 11)  1.522685  2.135139  2.508327  2.773665  2.756106  3.468718
   H ( 12)  2.164530  3.053794  2.773575  2.589003  3.118971  3.782484
   H ( 13)  2.174548  2.488243  3.468862  3.782612  3.762068  4.320558
   H ( 14)  2.174771  2.487787  2.755778  3.118824  2.551554  3.761648
             C (  7)   H (  8)   H (  9)   H ( 10)   C ( 11)   H ( 12)
   H (  8)  1.094951
   H (  9)  1.093173  1.766719
   H ( 10)  1.093215  1.766828  1.768473
   C ( 11)  2.508360  2.773821  3.468575  2.756426
   H ( 12)  2.773821  2.589407  3.782512  3.119507  1.094951
   H ( 13)  2.756426  3.119507  3.762243  2.552571  1.093215  1.766828
   H ( 14)  3.468575  3.782512  4.319947  3.762243  1.093173  1.766719
             H ( 13)
   H ( 14)  1.768473
 
 Requested basis set is G3large
 There are 100 shells and 268 basis functions
 A cutoff of  1.0D-11 yielded   4852 shell pairs
 There are  34918 function pairs ( 41614 Cartesian)
Evaluating contribution to one-electron hamiltonian from nuclear
 Smallest overlap matrix eigenvalue = 3.15E-05
 Multipole matrices computed through 2nd order
 Guess MOs from SCF MO coefficient file
Reading MOs from coefficient file
Reading MOs from coefficient file
 Long-range K will be added via erf
 Coulomb attenuation parameter = 0.35 bohr**(-1)
 A restricted Kohn-Sham SCF calculation will be
 performed using Pulay DIIS extrapolation
 Exchange:  wPBE + LR-HF      Correlation:  PBE
 Using SG-1 standard quadrature grid
 SCF converges when DIIS error is below 1.0E-08
 ---------------------------------------
  Cycle       Energy         DIIS Error
 ---------------------------------------
    1    -158.3866096537      4.06E-05
    2    -158.3866038708      5.00E-06
    3    -158.3866039750      2.90E-06
    4    -158.3866040255      5.14E-07
    5    -158.3866040278      1.27E-07
    6    -158.3866040290      1.58E-08
    7    -158.3866040290      3.86E-09 Convergence criterion met
 ---------------------------------------
 One-Electron    Energy =  -478.6829153683
 Total Coulomb   Energy =   210.6530853432
 Alpha Exchange  Energy =    -3.0007978625
 Beta  Exchange  Energy =    -3.0007978625
 DFT   Exchange  Energy =   -18.2807411285
 DFT Correlation Energy =    -1.0866211842
 Nuclear Repu.   Energy =   135.0121840337
 Nuclear Attr.   Energy =  -636.2128805858
 Kinetic         Energy =   157.5299652175
 SCF time:  CPU 227.96 s  wall 228.80 s
 Final Alpha MO Eigenvalues
            1           2           3           4           5           6
    1 -10.0746493 -10.0560707 -10.0560354 -10.0560216  -0.9318890  -0.8049858
            7           8           9          10          11          12
    1  -0.8048514  -0.6780399  -0.5810134  -0.5446205  -0.5445368  -0.4900752
           13          14          15          16          17          18
    1  -0.4900086  -0.4667372  -0.4304478  -0.4301062  -0.4224339   0.0386661
           19          20          21          22
    1   0.0569696   0.0569735   0.0575824   0.0793724
 Analysis of SCF Wavefunction
 
 --------------------------------------------------------------
                    Orbital Energies (a.u.)
 --------------------------------------------------------------
 
 Alpha MOs
 -- Occupied --
-10.075 -10.056 -10.056 -10.056  -0.932  -0.805  -0.805  -0.678
 -0.581  -0.545  -0.545  -0.490  -0.490  -0.467  -0.430  -0.430
 -0.422
 -- Virtual --
  0.039   0.057   0.057   0.058   0.079   0.079   0.085   0.094
  0.094   0.113   0.135   0.160   0.160   0.169   0.169   0.173
  0.179   0.196   0.196   0.199   0.214   0.214   0.223   0.223
  0.234   0.236   0.280   0.280   0.286   0.298   0.298   0.321
  0.324   0.362   0.362   0.378   0.378   0.389   0.463   0.487
  0.487   0.557   0.560   0.561   0.578   0.587   0.587   0.631
  0.649   0.651   0.651   0.662   0.662   0.663   0.677   0.701
  0.701   0.732   0.732   0.735   0.772   0.772   0.790   0.808
  0.847   0.847   0.915   0.946   0.946   0.969   1.008   1.008
  1.063   1.070   1.112   1.112   1.165   1.165   1.199   1.228
  1.242   1.242   1.249   1.286   1.286   1.343   1.371   1.371
  1.385   1.385   1.418   1.437   1.437   1.440   1.440   1.441
  1.472   1.493   1.493   1.559   1.565   1.566   1.581   1.641
  1.671   1.671   1.692   1.698   1.707   1.707   1.742   1.742
  1.810   1.814   1.814   2.494   2.494   2.612   2.642   2.643
  2.654   2.732   2.801   2.802   2.825   2.826   2.850   2.903
  2.941   2.941   3.009   3.029   3.029   3.037   3.038   3.065
  3.127   3.127   3.138   3.223   3.223   3.262   3.352   3.360
  3.367   3.367   3.423   3.423   3.450   3.458   3.496   3.496
  3.554   3.562   3.562   3.644   3.647   3.647   3.677   3.677
  3.711   3.794   3.831   3.831   3.863   3.863   3.931   3.932
  3.999   4.040   4.040   4.059   4.073   4.100   4.101   4.134
  4.164   4.164   4.287   4.299   4.299   4.299   4.334   4.355
  4.355   4.373   4.373   4.390   4.488   4.495   4.495   4.585
  4.614   4.615   4.713   4.713   4.729   4.730   4.731   4.795
  4.866   4.867   4.885   4.983   4.983   5.416   5.502   5.504
  5.690   5.778   5.778   5.804   5.809   5.816   5.816  24.089
 24.251  24.252  24.370  27.630  27.632  27.931  28.111  28.111
 28.125  28.159  28.182  28.182  28.395  28.493  28.493  40.941
 40.972  40.981  40.984  40.996  41.009  41.018  41.020  41.191
 41.194  41.194  41.200  41.201  41.211  41.228  41.229  41.254
 41.287  41.292  41.331
 --------------------------------------------------------------
 
          Ground-State Mulliken Net Atomic Charges

     Atom                 Charge (a.u.)
  ----------------------------------------
      1 C                     0.289446
      2 H                     0.059500
      3 C                    -0.375611
      4 H                     0.088445
      5 H                     0.085420
      6 H                     0.085420
      7 C                    -0.375617
      8 H                     0.088478
      9 H                     0.085460
     10 H                     0.085369
     11 C                    -0.375617
     12 H                     0.088478
     13 H                     0.085369
     14 H                     0.085460
  ----------------------------------------
  Sum of atomic charges =     0.000000

 -----------------------------------------------------------------
                    Cartesian Multipole Moments
 -----------------------------------------------------------------
    Charge (ESU x 10^10)
                 0.0000
    Dipole Moment (Debye)
         X      -0.0005      Y       0.0000      Z       0.1232
       Tot       0.1232
    Quadrupole Moments (Debye-Ang)
        XX     -28.7631     XY       0.0000     YY     -28.7593
        XZ       0.0010     YZ       0.0000     ZZ     -28.2387
    Octapole Moments (Debye-Ang^2)
       XXX      -1.9547    XXY       0.0000    XYY       1.9768
       YYY       0.0000    XXZ      12.1365    XYZ       0.0000
       YYZ      12.1332    XZZ       0.0051    YZZ       0.0000
       ZZZ      30.5594
    Hexadecapole Moments (Debye-Ang^3)
      XXXX    -214.8441   XXXY       0.0000   XXYY     -71.6142
      XYYY       0.0000   YYYY    -214.8233   XXXZ      -0.4239
      XXYZ       0.0000   XYYZ       0.4305   YYYZ       0.0000
      XXZZ     -53.2174   XYZZ       0.0000   YYZZ     -53.2099
      XZZZ       0.0049   YZZZ       0.0000   ZZZZ     -87.3892
 -----------------------------------------------------------------
 Calculating analytic gradient of the SCF energy
 Gradient of AOints
            1           2           3           4           5           6
    1   0.0088405  -0.0037253  -4.7561380  -0.8805182  -2.3219174  -2.3219177
    2   0.0000001   0.0000001  -0.0000001  -0.0000000  -2.7821237   2.7821236
    3  -1.5068792  -4.3910843   0.4266954   3.6389484  -1.0506077  -1.0506075
            7           8           9          10          11          12
    1   2.3795977   0.4394538  -1.2509185   3.5695551   2.3795976   0.4394538
    2   4.1223647   0.7632273   3.4018616   0.6192534  -4.1223646  -0.7632274
    3   0.4279022   3.6393161  -1.0503466  -1.0501043   0.4279022   3.6393161
           13          14
    1   3.5695552  -1.2509187
    2  -0.6192536  -3.4018615
    3  -1.0501041  -1.0503467
 Gradient of XC Energy
            1           2           3           4           5           6
    1  -0.0003024   0.0001798  -0.0312952   0.0110316   0.0889032   0.0889032
    2  -0.0000000  -0.0000000   0.0000000   0.0000000   0.1423490  -0.1423490
    3  -0.0274317   0.1792487   0.0099744  -0.1737188   0.0565970   0.0565970
            7           8           9          10          11          12
    1   0.0155754  -0.0054993   0.0789154  -0.1677015   0.0155754  -0.0054993
    2   0.0269451  -0.0095779  -0.1481894  -0.0057979  -0.0269451   0.0095779
    3   0.0098711  -0.1737144   0.0566121   0.0565980   0.0098711  -0.1737144
           13          14
    1  -0.1677015   0.0789154
    2   0.0057979   0.1481893
    3   0.0565979   0.0566121
 Gradient of SCF Energy
            1           2           3           4           5           6
    1  -0.0009469   0.0000930   0.0003461  -0.0000032   0.0000135   0.0000135
    2  -0.0000000  -0.0000000  -0.0000000  -0.0000000  -0.0000053   0.0000053
    3   0.0000097  -0.0000078  -0.0000980   0.0000026  -0.0000113  -0.0000113
            7           8           9          10          11          12
    1   0.0002123   0.0000012  -0.0000072   0.0000356   0.0002122   0.0000012
    2   0.0001117   0.0000036  -0.0000136   0.0000585  -0.0001117  -0.0000036
    3   0.0000279   0.0000085  -0.0000070   0.0000287   0.0000278   0.0000085
           13          14
    1   0.0000356  -0.0000072
    2  -0.0000585   0.0000136
    3   0.0000287  -0.0000070
 Max gradient component =       9.469E-04
 RMS gradient           =       1.665E-04
 Gradient time:  CPU 171.01 s  wall 171.42 s
 Writing REM_CC_EA           14
 ----------------------------------------------------
       Standard Nuclear Orientation (Angstroms)
    I     Atom         X            Y            Z
 ----------------------------------------------------
    1      C      -0.000035     0.001000     0.005164
    2      H      -0.000084     0.000000     1.102181
    3      C       1.448122     0.000000    -0.466870
    4      H       1.494708     0.000000    -1.560814
    5      H       1.983805     0.884219    -0.111426
    6      H       1.983805    -0.884219    -0.111426
    7      C      -0.724144    -1.254180    -0.466764
    8      H      -0.747318    -1.294703    -1.560720
    9      H      -0.225920    -2.159974    -0.111325
   10      H      -1.757778    -1.276285    -0.111476
   11      C      -0.724144     1.254180    -0.466764
   12      H      -0.747318     1.294703    -1.560720
   13      H      -1.757778     1.276285    -0.111476
   14      H      -0.225919     2.159974    -0.111325
 ----------------------------------------------------
 Nuclear Repulsion Energy =   135.0121843587 hartrees
 There are       17 alpha and       17 beta electrons

                       Distance Matrix (Angstroms)
             C (  1)   H (  2)   C (  3)   H (  4)   H (  5)   H (  6)
   H (  2)  1.097017
   C (  3)  1.523146  2.135234
   H (  4)  2.164843  3.053841  1.094935
   H (  5)  2.174693  2.488072  1.093225  1.766858
   H (  6)  2.175506  2.488072  1.093225  1.766858  1.768439
   C (  7)  1.523984  2.135139  2.508327  2.773665  3.468718  2.756107
   H (  8)  2.165473  3.053794  2.773575  2.589003  3.782484  3.118971
   H (  9)  2.175868  2.487787  2.755778  3.118824  3.761648  2.551555
   H ( 10)  2.175942  2.488243  3.468862  3.782612  4.320558  3.762069
   C ( 11)  1.522337  2.135139  2.508327  2.773665  2.756106  3.468718
   H ( 12)  2.164277  3.053794  2.773575  2.589003  3.118971  3.782484
   H ( 13)  2.174769  2.488243  3.468862  3.782612  3.762068  4.320558
   H ( 14)  2.173882  2.487787  2.755778  3.118824  2.551554  3.761648
             C (  7)   H (  8)   H (  9)   H ( 10)   C ( 11)   H ( 12)
   H (  8)  1.094951
   H (  9)  1.093173  1.766719
   H ( 10)  1.093215  1.766828  1.768473
   C ( 11)  2.508360  2.773821  3.468575  2.756426
   H ( 12)  2.773821  2.589407  3.782512  3.119507  1.094951
   H ( 13)  2.756426  3.119507  3.762243  2.552571  1.093215  1.766828
   H ( 14)  3.468575  3.782512  4.319947  3.762243  1.093173  1.766719
             H ( 13)
   H ( 14)  1.768473
 
 Requested basis set is G3large
 There are 100 shells and 268 basis functions
 A cutoff of  1.0D-11 yielded   4852 shell pairs
 There are  34918 function pairs ( 41614 Cartesian)
Evaluating contribution to one-electron hamiltonian from nuclear
 Smallest overlap matrix eigenvalue = 3.15E-05
 Multipole matrices computed through 2nd order
 Guess MOs from SCF MO coefficient file
Reading MOs from coefficient file
Reading MOs from coefficient file
 Long-range K will be added via erf
 Coulomb attenuation parameter = 0.35 bohr**(-1)
 A restricted Kohn-Sham SCF calculation will be
 performed using Pulay DIIS extrapolation
 Exchange:  wPBE + LR-HF      Correlation:  PBE
 Using SG-1 standard quadrature grid
 SCF converges when DIIS error is below 1.0E-08
 ---------------------------------------
  Cycle       Energy         DIIS Error
 ---------------------------------------
    1    -158.3866057315      2.87E-05
    2    -158.3866038571      3.53E-06
    3    -158.3866039883      2.05E-06
    4    -158.3866040184      3.63E-07
    5    -158.3866040188      8.95E-08
    6    -158.3866040197      1.11E-08
    7    -158.3866040197      2.72E-09 Convergence criterion met
 ---------------------------------------
 One-Electron    Energy =  -478.6829155325
 Total Coulomb   Energy =   210.6530851757
 Alpha Exchange  Energy =    -3.0007978471
 Beta  Exchange  Energy =    -3.0007978471
 DFT   Exchange  Energy =   -18.2807411024
 DFT Correlation Energy =    -1.0866212249
 Nuclear Repu.   Energy =   135.0121843587
 Nuclear Attr.   Energy =  -636.2128801232
 Kinetic         Energy =   157.5299645907
 SCF time:  CPU 226.25 s  wall 227.18 s
 Final Alpha MO Eigenvalues
            1           2           3           4           5           6
    1 -10.0746493 -10.0560586 -10.0560491 -10.0560200  -0.9318891  -0.8049794
            7           8           9          10          11          12
    1  -0.8048579  -0.6780399  -0.5810135  -0.5446362  -0.5445211  -0.4900793
           13          14          15          16          17          18
    1  -0.4900045  -0.4667373  -0.4304727  -0.4300811  -0.4224340   0.0386661
           19          20          21          22
    1   0.0569679   0.0569752   0.0575824   0.0793728
 Analysis of SCF Wavefunction
 
 --------------------------------------------------------------
                    Orbital Energies (a.u.)
 --------------------------------------------------------------
 
 Alpha MOs
 -- Occupied --
-10.075 -10.056 -10.056 -10.056  -0.932  -0.805  -0.805  -0.678
 -0.581  -0.545  -0.545  -0.490  -0.490  -0.467  -0.430  -0.430
 -0.422
 -- Virtual --
  0.039   0.057   0.057   0.058   0.079   0.079   0.085   0.094
  0.094   0.113   0.135   0.160   0.160   0.169   0.169   0.173
  0.179   0.196   0.196   0.199   0.214   0.214   0.223   0.223
  0.234   0.236   0.280   0.280   0.286   0.298   0.298   0.321
  0.324   0.362   0.362   0.378   0.378   0.389   0.463   0.487
  0.487   0.557   0.560   0.561   0.578   0.587   0.587   0.631
  0.649   0.651   0.651   0.662   0.662   0.663   0.677   0.701
  0.701   0.732   0.732   0.735   0.772   0.772   0.790   0.808
  0.847   0.847   0.915   0.946   0.946   0.969   1.008   1.008
  1.063   1.070   1.112   1.112   1.165   1.165   1.199   1.228
  1.242   1.242   1.249   1.286   1.286   1.343   1.371   1.371
  1.385   1.385   1.418   1.437   1.437   1.440   1.440   1.441
  1.472   1.493   1.493   1.559   1.565   1.566   1.581   1.641
  1.671   1.671   1.692   1.698   1.707   1.707   1.742   1.742
  1.810   1.814   1.814   2.494   2.494   2.612   2.642   2.643
  2.654   2.732   2.801   2.802   2.825   2.826   2.850   2.903
  2.941   2.941   3.009   3.029   3.029   3.037   3.038   3.065
  3.127   3.127   3.138   3.223   3.223   3.262   3.352   3.360
  3.367   3.367   3.423   3.423   3.450   3.458   3.496   3.496
  3.554   3.562   3.562   3.644   3.647   3.647   3.677   3.677
  3.711   3.794   3.831   3.831   3.863   3.863   3.931   3.932
  3.999   4.040   4.040   4.059   4.073   4.100   4.100   4.134
  4.164   4.164   4.287   4.299   4.299   4.299   4.334   4.355
  4.356   4.373   4.373   4.390   4.488   4.495   4.495   4.585
[...]
 H          0.193 -0.088 -0.016   -0.118 -0.183 -0.008    0.226 -0.385 -0.053
 H          0.132  0.131 -0.049   -0.115 -0.445 -0.025   -0.008 -0.003 -0.215
 H          0.290 -0.134 -0.033   -0.382  0.018 -0.021    0.004  0.005 -0.211
 TransDip   0.000 -0.001  0.000    0.001  0.000  0.000    0.000  0.000 -0.017

 Mode:                 7                      8                      9
 Frequency:       824.37                 921.05                 921.51
 Force Cnst:      1.0640                 0.5826                 0.5845
 Red. Mass:       2.6572                 1.1656                 1.1682
 IR Active:          YES                    YES                    YES
 IR Intens:        0.925                  1.685                  1.665
 Raman Active:       YES                    YES                    YES
               X      Y      Z        X      Y      Z        X      Y      Z
 C          0.001  0.000  0.151    0.001 -0.032  0.000   -0.033 -0.001  0.000
 H          0.001  0.000  0.149   -0.012  0.377  0.000    0.373  0.012  0.000
 C          0.203  0.000 -0.020    0.000 -0.036  0.003    0.000 -0.001 -0.088
 H         -0.036  0.000 -0.033   -0.018  0.088  0.002    0.554  0.003 -0.059
 H          0.317  0.002 -0.188   -0.165  0.049  0.043   -0.161 -0.038  0.257
 H          0.317 -0.002 -0.188    0.175  0.047 -0.060   -0.150  0.042  0.253
 C         -0.102 -0.179 -0.020    0.015 -0.009  0.074   -0.026  0.014  0.047
 H          0.020  0.035 -0.033    0.197  0.430  0.050    0.211  0.217  0.031
 H         -0.158 -0.279 -0.189   -0.099 -0.192 -0.241    0.084  0.022 -0.089
 H         -0.160 -0.273 -0.188   -0.073 -0.010 -0.188   -0.095 -0.202 -0.177
 C         -0.102  0.179 -0.020   -0.013 -0.008 -0.077   -0.027 -0.015  0.042
 H          0.020 -0.035 -0.033   -0.210  0.443 -0.052    0.198 -0.188  0.028
 H         -0.160  0.273 -0.188    0.079 -0.023  0.199   -0.090  0.201 -0.164
 H         -0.158  0.279 -0.189    0.093 -0.190  0.247    0.091 -0.035 -0.073
 TransDip   0.000  0.000 -0.031   -0.001  0.042  0.000    0.041  0.001  0.000

 Mode:                10                     11                     12
 Frequency:       950.11                 990.44                 991.51
 Force Cnst:      0.6404                 0.9921                 0.9905
 Red. Mass:       1.2041                 1.7165                 1.7100
 IR Active:          YES                    YES                    YES
 IR Intens:        0.000                  0.424                  0.438
 Raman Active:       YES                    YES                    YES
               X      Y      Z        X      Y      Z        X      Y      Z
 C          0.000  0.000  0.000    0.000  0.125  0.000   -0.125  0.000  0.001
 H          0.000  0.003  0.000    0.000  0.332  0.000   -0.332  0.000  0.001
 C          0.000  0.076  0.000    0.000  0.108  0.000    0.144  0.000 -0.011
 H          0.000 -0.162  0.000    0.000 -0.145  0.000   -0.031  0.000 -0.024
 H          0.360 -0.112 -0.081    0.406 -0.102 -0.095    0.234  0.010 -0.166
 H         -0.360 -0.112  0.081   -0.405 -0.102  0.094    0.235 -0.010 -0.166
 C          0.067 -0.038  0.001   -0.109 -0.081 -0.009   -0.045  0.108  0.005
 H         -0.143  0.086  0.001    0.078 -0.013 -0.021    0.103 -0.077  0.012
 H         -0.278 -0.259 -0.084    0.050 -0.029 -0.093    0.306  0.361  0.162
 H          0.084  0.370  0.081   -0.165 -0.370 -0.189   -0.037 -0.248  0.000
 C         -0.067 -0.039 -0.001    0.109 -0.081  0.009   -0.045 -0.107  0.005
 H          0.143  0.086 -0.001   -0.078 -0.013  0.021    0.103  0.077  0.012
 H         -0.084  0.370 -0.081    0.165 -0.370  0.189   -0.037  0.249 -0.001
 H          0.278 -0.259  0.084   -0.049 -0.030  0.093    0.305 -0.361  0.161
 TransDip   0.000  0.000  0.000    0.000 -0.021  0.000    0.021  0.000 -0.001

 Mode:                13                     14                     15
 Frequency:      1202.09                1202.20                1208.53
 Force Cnst:      1.4137                 1.4170                 1.6881
 Red. Mass:       1.6604                 1.6640                 1.9617
 IR Active:          YES                    YES                    YES
 IR Intens:        1.901                  1.992                  0.516
 Raman Active:       YES                    YES                    YES
               X      Y      Z        X      Y      Z        X      Y      Z
 C          0.006  0.177  0.000    0.177 -0.006  0.000    0.000  0.000  0.224
 H          0.020  0.632  0.000    0.630 -0.020  0.000    0.000  0.000  0.227
 C         -0.002 -0.097  0.003   -0.049  0.003  0.083   -0.012  0.000 -0.110
 H         -0.011  0.197  0.002   -0.338 -0.006  0.073    0.404  0.000 -0.079
 H         -0.298  0.080  0.034   -0.043  0.039 -0.028   -0.076 -0.084  0.213
 H          0.294  0.077 -0.035   -0.062 -0.044 -0.025   -0.076  0.084  0.213
 C          0.018 -0.060 -0.074   -0.086  0.022 -0.039    0.006  0.011 -0.110
 H         -0.232 -0.213 -0.065    0.075 -0.226 -0.034   -0.204 -0.354 -0.079
 H         -0.157 -0.123  0.009    0.164  0.181  0.041   -0.036  0.106  0.211
 H          0.046  0.080  0.040   -0.067 -0.293 -0.018    0.110  0.019  0.212
 C         -0.024 -0.061  0.071   -0.085 -0.019 -0.043    0.006 -0.011 -0.110
 H          0.236 -0.198  0.062    0.060  0.239 -0.038   -0.204  0.354 -0.079
 H         -0.051  0.099 -0.041   -0.064  0.287 -0.016    0.110 -0.019  0.212
 H          0.167 -0.135 -0.006    0.154 -0.173  0.041   -0.036 -0.106  0.211
 TransDip   0.001  0.044  0.000    0.045 -0.001  0.000    0.000  0.000  0.023

 Mode:                16                     17                     18
 Frequency:      1358.36                1360.48                1400.33
 Force Cnst:      1.4909                 1.4792                 1.6366
 Red. Mass:       1.3714                 1.3564                 1.4165
 IR Active:          YES                    YES                    YES
 IR Intens:        0.143                  0.079                 16.259
 Raman Active:       YES                    YES                    YES
               X      Y      Z        X      Y      Z        X      Y      Z
 C          0.000 -0.158  0.000   -0.153  0.000  0.000    0.000  0.096  0.000
 H          0.000  0.775  0.000    0.765  0.000  0.000   -0.001 -0.272  0.000
 C          0.000  0.039  0.000   -0.011  0.000  0.062    0.000 -0.027  0.000
 H          0.000 -0.140  0.000    0.127  0.000  0.056    0.001  0.139  0.000
 H          0.080 -0.035  0.043    0.232 -0.026 -0.215   -0.033  0.023 -0.061
 H         -0.080 -0.035 -0.042    0.232  0.026 -0.215    0.034  0.023  0.060
 C         -0.020  0.005 -0.053    0.026 -0.020 -0.031   -0.046 -0.106 -0.019
 H          0.108  0.047 -0.048   -0.073  0.112 -0.028    0.138  0.380 -0.032
 H          0.149  0.186  0.160    0.006  0.050  0.145    0.272  0.157  0.171
 H          0.077  0.136  0.204    0.056  0.175  0.071   -0.003  0.354  0.110
 C          0.020  0.005  0.053    0.026  0.020 -0.031    0.045 -0.106  0.019
 H         -0.108  0.047  0.048   -0.073 -0.111 -0.028   -0.138  0.380  0.032
 H         -0.077  0.136 -0.204    0.056 -0.175  0.071    0.003  0.354 -0.110
 H         -0.149  0.186 -0.160    0.006 -0.049  0.145   -0.271  0.157 -0.171
 TransDip   0.000 -0.012  0.000   -0.009  0.000  0.000    0.000  0.129  0.000

 Mode:                19                     20                     21
 Frequency:      1401.76                1419.84                1470.64
 Force Cnst:      1.6510                 1.4894                 1.3336
 Red. Mass:       1.4261                 1.2540                 1.0465
 IR Active:          YES                    YES                    YES
 IR Intens:       16.133                  5.824                  0.005
 Raman Active:       YES                    YES                    YES
               X      Y      Z        X      Y      Z        X      Y      Z
 C          0.101  0.000  0.000    0.001  0.000 -0.010    0.000 -0.001  0.000
 H         -0.296  0.000  0.000   -0.003  0.000 -0.015    0.000  0.004  0.000
 C         -0.132  0.000  0.019   -0.082  0.000  0.030    0.000 -0.035  0.000
 H          0.460  0.000  0.035    0.338  0.000  0.042    0.000  0.424  0.000
 H          0.324 -0.194 -0.153    0.250 -0.110 -0.177    0.090  0.031 -0.268
 H          0.324  0.194 -0.153    0.250  0.110 -0.178   -0.089  0.031  0.269
 C         -0.054 -0.046 -0.010    0.039  0.070  0.031   -0.030  0.017  0.001
 H          0.222  0.140 -0.018   -0.164 -0.295  0.043    0.353 -0.216  0.001
 H          0.198  0.111  0.029   -0.208 -0.161 -0.189   -0.006 -0.089 -0.272
 H          0.002  0.156  0.135   -0.034 -0.263 -0.183    0.067  0.071  0.253
 C         -0.054  0.046 -0.010    0.039 -0.070  0.031    0.030  0.017 -0.001
 H          0.222 -0.141 -0.018   -0.164  0.295  0.043   -0.354 -0.216 -0.001
 H          0.002 -0.157  0.136   -0.034  0.263 -0.183   -0.067  0.071 -0.253
 H          0.199 -0.111  0.030   -0.208  0.161 -0.189    0.006 -0.089  0.272
 TransDip   0.129  0.000  0.001    0.003  0.000 -0.077    0.000  0.002  0.000

 Mode:                22                     23                     24
 Frequency:      1476.33                1478.48                1496.64
 Force Cnst:      1.3346                 1.3380                 1.4174
 Red. Mass:       1.0393                 1.0389                 1.0740
 IR Active:          YES                    YES                    YES
 IR Intens:        0.393                  0.396                  5.597
 Raman Active:       YES                    YES                    YES
               X      Y      Z        X      Y      Z        X      Y      Z
 C          0.000 -0.006  0.000   -0.008  0.000  0.001   -0.001 -0.061  0.000
 H          0.000  0.063  0.000    0.066  0.000  0.001    0.002  0.114  0.000
 C          0.000  0.013  0.000   -0.012  0.000 -0.039    0.000 -0.033  0.000
 H          0.000 -0.162  0.000   -0.307  0.000 -0.036   -0.002  0.535  0.000
 H         -0.036 -0.013  0.103    0.254 -0.296  0.319    0.153  0.032 -0.359
 H          0.037 -0.012 -0.102    0.254  0.296  0.319   -0.152  0.034  0.361
 C         -0.010 -0.008  0.034    0.005 -0.012  0.020    0.022  0.005  0.010
 H         -0.079 -0.264  0.031   -0.190 -0.069  0.017   -0.287  0.048  0.013
 H          0.334  0.048 -0.320    0.207  0.070 -0.081    0.092  0.090  0.106
 H         -0.102  0.333 -0.241   -0.090  0.176 -0.245   -0.075  0.007 -0.260
 C          0.010 -0.008 -0.034    0.005  0.012  0.020   -0.023  0.004 -0.010
 H          0.078 -0.264 -0.031   -0.190  0.069  0.018    0.298  0.056 -0.013
 H          0.102  0.332  0.240   -0.090 -0.176 -0.245    0.078  0.003  0.268
 H         -0.333  0.048  0.320    0.208 -0.070 -0.082   -0.093  0.093 -0.117
 TransDip   0.000  0.020  0.000    0.020  0.000 -0.002    0.001  0.076  0.000

 Mode:                25                     26                     27
 Frequency:      1496.86                1504.35                3045.17
 Force Cnst:      1.4179                 1.3943                 5.6649
 Red. Mass:       1.0741                 1.0457                 1.0369
 IR Active:          YES                    YES                    YES
 IR Intens:        5.639                 23.119                 27.292
 Raman Active:       YES                    YES                    YES
               X      Y      Z        X      Y      Z        X      Y      Z
 C         -0.061  0.001  0.002    0.002  0.000  0.038   -0.002  0.000 -0.008
 H          0.116 -0.002  0.002   -0.004  0.000  0.045    0.003  0.000  0.092
 C          0.018  0.000 -0.010    0.015  0.000  0.022    0.034  0.000 -0.018
 H         -0.108 -0.007 -0.014    0.240  0.000  0.023   -0.011  0.000  0.490
 H          0.043 -0.051  0.084   -0.211  0.231 -0.226   -0.193 -0.336 -0.140
 H          0.047  0.050  0.074   -0.211 -0.231 -0.226   -0.193  0.336 -0.140
 C         -0.022  0.021  0.006   -0.007 -0.014  0.020    0.010  0.019  0.014
 H          0.380 -0.289  0.007   -0.124 -0.185  0.021   -0.004 -0.007 -0.336
 H          0.007 -0.121 -0.367    0.293  0.069 -0.202    0.120 -0.209  0.087
 H          0.078  0.154  0.271   -0.092  0.284 -0.221   -0.236  0.001  0.087
 C         -0.021 -0.021  0.006   -0.007  0.014  0.020    0.009 -0.015  0.012
 H          0.371  0.288  0.008   -0.124  0.184  0.021   -0.003  0.006 -0.280
 H          0.076 -0.154  0.263   -0.092 -0.284 -0.221   -0.195  0.000  0.072
 H          0.010  0.118 -0.364    0.293 -0.069 -0.202    0.100  0.173  0.072
 TransDip   0.076 -0.001 -0.005   -0.003  0.000 -0.154    0.167  0.010 -0.001

 Mode:                28                     29                     30
 Frequency:      3045.24                3047.45                3050.02
 Force Cnst:      5.6629                 5.9140                 5.7023
 Red. Mass:       1.0364                 1.0808                 1.0404
 IR Active:          YES                    YES                    YES
 IR Intens:       27.647                  6.163                 16.298
 Raman Active:       YES                    YES                    YES
               X      Y      Z        X      Y      Z        X      Y      Z
 C          0.000 -0.002  0.000    0.000  0.000 -0.077    0.000  0.000 -0.024
 H          0.000  0.003 -0.004   -0.001  0.000  0.918    0.000  0.000  0.293
 C         -0.002  0.000  0.001   -0.009  0.000  0.017    0.028  0.000 -0.011
 H          0.001  0.001 -0.030    0.008  0.000 -0.269   -0.011  0.000  0.357
 H          0.014  0.023  0.009    0.045  0.071  0.032   -0.157 -0.270 -0.111
 H          0.010 -0.018  0.008    0.045 -0.071  0.033   -0.157  0.270 -0.112
 C          0.015  0.026  0.017    0.001  0.002  0.014   -0.012 -0.022 -0.010
 H         -0.005 -0.008 -0.451   -0.003 -0.005 -0.174    0.005  0.008  0.323
 H          0.170 -0.292  0.123    0.001 -0.009  0.005   -0.140  0.243 -0.100
 H         -0.337  0.000  0.122   -0.008 -0.003  0.005    0.280  0.001 -0.100
 C         -0.016  0.028 -0.019    0.001 -0.002  0.014   -0.012  0.022 -0.010
 H          0.006 -0.009  0.487   -0.003  0.005 -0.176    0.005 -0.008  0.324
 H          0.362  0.000 -0.131   -0.009  0.003  0.005    0.281 -0.001 -0.100
 H         -0.182 -0.314 -0.132    0.002  0.010  0.006   -0.140 -0.243 -0.100
 TransDip  -0.010  0.168  0.000   -0.020  0.000 -0.077    0.008  0.000 -0.129

 Mode:                31                     32                     33
 Frequency:      3118.74                3118.95                3126.54
 Force Cnst:      6.3146                 6.3161                 6.3389
 Red. Mass:       1.1019                 1.1020                 1.1006
 IR Active:          YES                    YES                    YES
 IR Intens:        7.400                  7.344                 73.267
 Raman Active:       YES                    YES                    YES
               X      Y      Z        X      Y      Z        X      Y      Z
 C          0.000  0.000  0.000    0.000  0.000  0.002    0.000  0.000 -0.021
 H          0.000 -0.003  0.000   -0.003  0.000 -0.016    0.000  0.000  0.222
 C          0.001  0.002  0.001   -0.027  0.000 -0.067   -0.022  0.000 -0.052
 H          0.000  0.002 -0.011   -0.023  0.000  0.580   -0.024  0.000  0.460
 H         -0.012 -0.020 -0.009    0.171  0.299  0.108    0.137  0.235  0.086
 H          0.005 -0.008  0.005    0.171 -0.299  0.108    0.138 -0.237  0.087
 C         -0.012 -0.021  0.060   -0.007 -0.015  0.039    0.011  0.016 -0.045
 H         -0.011 -0.017 -0.515   -0.006 -0.012 -0.339    0.011  0.018  0.394
 H         -0.159  0.272 -0.098   -0.109  0.188 -0.070    0.114 -0.200  0.072
 H          0.314 -0.001 -0.099    0.196 -0.001 -0.060   -0.251 -0.001  0.080
 C          0.013 -0.022 -0.061   -0.006  0.014  0.037    0.011 -0.016 -0.045
 H          0.011 -0.018  0.528   -0.005  0.012 -0.318    0.011 -0.018  0.394
 H         -0.322 -0.001  0.101    0.184  0.001 -0.056   -0.249  0.001  0.079
 H          0.163  0.280  0.101   -0.103 -0.177 -0.066    0.115  0.201  0.073
 TransDip   0.002 -0.087  0.000   -0.085 -0.002  0.018   -0.001  0.000 -0.274

 Mode:                34                     35                     36
 Frequency:      3129.03                3132.56                3132.58
 Force Cnst:      6.3671                 6.3750                 6.3748
 Red. Mass:       1.1038                 1.1026                 1.1026
 IR Active:          YES                    YES                    YES
 IR Intens:        0.477                 40.033                 39.296
 Raman Active:       YES                    YES                    YES
               X      Y      Z        X      Y      Z        X      Y      Z
 C          0.000  0.000  0.000   -0.002  0.000  0.000    0.000 -0.002  0.000
 H          0.000  0.000  0.001    0.001  0.000  0.004    0.000  0.002  0.000
 C          0.000 -0.061  0.000   -0.001 -0.006 -0.003    0.000 -0.070  0.000
 H          0.000 -0.012  0.001   -0.001 -0.001  0.020    0.000 -0.014 -0.002
 H          0.226  0.371  0.156    0.032  0.049  0.020    0.260  0.424  0.178
 H         -0.225  0.370 -0.156   -0.012  0.023 -0.010   -0.261  0.426 -0.179
 C         -0.044  0.025  0.001   -0.053  0.031  0.000    0.042 -0.024  0.001
 H         -0.008  0.005 -0.006   -0.011  0.007  0.002    0.009 -0.005 -0.008
 H          0.167 -0.305  0.126    0.211 -0.385  0.157   -0.167  0.310 -0.126
 H          0.361  0.008 -0.130    0.441  0.012 -0.158   -0.339 -0.007  0.121
 C          0.043  0.024 -0.001   -0.060 -0.035  0.000   -0.032 -0.019 -0.001
 H          0.008  0.005  0.008   -0.012 -0.007  0.003   -0.007 -0.004  0.008
 H         -0.361  0.008  0.130    0.493 -0.013 -0.177    0.259 -0.005 -0.093
 H         -0.166 -0.303 -0.125    0.236  0.433  0.177    0.129  0.240  0.098
 TransDip   0.000 -0.022 -0.001   -0.202 -0.017 -0.005    0.017 -0.200  0.000

 STANDARD THERMODYNAMIC QUANTITIES AT   298.18 K  AND     1.00 ATM

   This Molecule has  0 Imaginary Frequencies
   Zero point vibrational energy:       82.724 kcal/mol

   Atom    1 Element C  Has Mass   12.00000
   Atom    2 Element H  Has Mass    1.00783
   Atom    3 Element C  Has Mass   12.00000
   Atom    4 Element H  Has Mass    1.00783
   Atom    5 Element H  Has Mass    1.00783
   Atom    6 Element H  Has Mass    1.00783
   Atom    7 Element C  Has Mass   12.00000
   Atom    8 Element H  Has Mass    1.00783
   Atom    9 Element H  Has Mass    1.00783
   Atom   10 Element H  Has Mass    1.00783
   Atom   11 Element C  Has Mass   12.00000
   Atom   12 Element H  Has Mass    1.00783
   Atom   13 Element H  Has Mass    1.00783
   Atom   14 Element H  Has Mass    1.00783
   Molecular Mass:    58.078300 amu
   Principal axes and moments of inertia in atomic units:
                             1           2           3
    Eigenvalues --      229.57982   229.58903   395.61669
          X               0.00066     1.00000     0.00004
          Y               1.00000    -0.00066     0.00000
          Z               0.00000    -0.00004     1.00000
   Rotational Symmetry Number is   1
   The Molecule is an Asymmetric Top
   Translational Enthalpy:        0.889 kcal/mol
   Rotational Enthalpy:           0.889 kcal/mol
   Vibrational Enthalpy:         84.566 kcal/mol
   gas constant (RT):             0.593 kcal/mol
   Translational Entropy:        38.099  cal/mol.K
   Rotational Entropy:           24.548  cal/mol.K
   Vibrational Entropy:           9.773  cal/mol.K

   Total Enthalpy:               86.936 kcal/mol
   Total Entropy:                72.420  cal/mol.K
 Total job time:  32166.43s(wall), 32062.54s(cpu) 
 Sun Jul  7 20:28:57 2013

        *************************************************************
        *                                                           *
        *  Thank you very much for using Q-Chem.  Have a nice day.  *
        *                                                           *
        *************************************************************


0 sent ACK to 0 
now end server 0 ... 
