Process 0 of 1 is on cl121.stfx.acenet.ca - thread support 1
initial socket setup ...start
initial socket setup ...done 
now start server 0 ... 

cmd = /usr/bin/ssh clhead /usr/local/qchem/bin/get_hostid 1663506740 > /scratch/tmp/5956461.1.short.q/qchem6394/lic.dat
                  Welcome to Q-Chem
     A Quantum Leap Into The Future Of Chemistry

 Y. Shao, L. Fusti-Molnar, Y. Jung, J. Kussmann, C. Ochsenfeld,
 S. T. Brown, A. T. B. Gilbert, L. V. Slipchenko,S. V. Levchenko,
 D. P. O'Neill, R. A. DiStasio Jr., R. C. Lochan, T. Wang,
 G. J. O. Beran, N. A. Besley, J. M. Herbert, C. Y. Lin,
 T. Van Voorhis, S. H. Chien, A. Sodt, R. P. Steele, 
 V. A. Rassolov, P. E. Maslen, P. P. Korambath, R. D. Adamson,
 B. Austin, J. Baker, E. F. C. Byrd, H. Dachsel, R. J. Doerksen,
 A. Dreuw, B. D. Dunietz, A. D. Dutoi, T. R. Furlani,
 S. R. Gwaltney, A. Heyden, S. Hirata, C.-P. Hsu, G. Kedziora,
 R. Z. Khaliullin, P. Klunzinger, A. M. Lee, M. S. Lee, W. Liang,
 I. Lotan, N. Nair, B. Peters, E. I. Proynov, P. A. Pieniazek, 
 Y. M. Rhee, J. Ritchie, E. Rosta, C. D. Sherrill, 
 A. C. Simmonett, J. E. Subotnik, H. L. Woodcock III,
 W. Zhang, A. T. Bell, A. K. Chakraborty, D. M. Chipman,
 F. J. Keil, A. Warshel, W. J. Hehre, H. F. Schaefer III,
 J. Kong, A. I. Krylov, P. M. W. Gill, M. Head-Gordon,
 Q-Chem, Version 3.1, Q-Chem, Inc., Pittsburgh, PA (2007).

 Additional authors for Version 3.1: 
 Z. Gan, Y. Zhao, N. E. Schultz, D. Truhlar, E. Epifanovsky and M. Oana.

 Additional authors for Version 3.2: 
 R. Baer, B. R. Brooks, D. Casanova, J.-D. Chai, C.-L. Cheng, 
 C. Cramer, D. Crittenden, A. Ghysels, G. Hawkins, E. G. Hohenstein, 
 C. Kelley, W. Kurlancheek, D. Liotard, E. Livshits, P. Manohar, 
 A. Marenich, D. Neuhauser, R. Olson, M. A. Rohrdanz, K. S. Thanthiriwatte, 
 A. J. W. Thom, V. Vanovschi, C. F. Williams, Q. Wu and Z.-Q. You. 


 Intel X86 Linux Version

 Q-chem begins on Tue Apr 30 22:51:19 2013  

 Parallel job on  1  processors
Processing $rem in /usr/local/qchem/config/preferences.

theFileMan(): MAXOPENFILES=974 MAX_SUB_FILE_NUM=16
Maximum size of a physical file is 2.0 GB, maximum size of a tmp-file is 32.0 GB


--------------------------------------------------------------
User input:
--------------------------------------------------------------

$molecule
-1,2
C,0.741167814,0.8054998119,0.
S,0.,-0.8753990055,0.
C,-0.741167814,0.8054998119,0.
H,1.2584073082,1.0850965864,-0.9145221968
H,1.2584073082,1.0850965864,0.9145221968
H,-1.2584073082,1.0850965864,0.9145221968
H,-1.2584073082,1.0850965864,-0.9145221968

$end

$comment
negative
$end

$xc_functional
C PBE   1.00
X wPBE  1.00
$end

$rem
SYMMETRY_DECOMPOSITION	0
exchange 		general
LRC_DFT                 true
BASIS                   g3large
omega			260
mem_static              760
max_scf_cycles          200
scf_final_print         1
sym_ignore              true
$end

--------------------------------------------------------------
 Writing REM_CC_EA            7
 ----------------------------------------------------
       Standard Nuclear Orientation (Angstroms)
    I     Atom         X            Y            Z
 ----------------------------------------------------
    1      C       0.741168     0.805500     0.000000
    2      S       0.000000    -0.875399     0.000000
    3      C      -0.741168     0.805500     0.000000
    4      H       1.258407     1.085097    -0.914522
    5      H       1.258407     1.085097     0.914522
    6      H      -1.258407     1.085097     0.914522
    7      H      -1.258407     1.085097    -0.914522
 ----------------------------------------------------
 Nuclear Repulsion Energy =   100.4416739056 hartrees
 There are       17 alpha and       16 beta electrons
 Requested basis set is G3large
 There are 63 shells and 190 basis functions

Total QAlloc Memory Limit   2000 MB
Mega-Array Size       743 MB
MEM_STATIC part       760 MB

                       Distance Matrix (Angstroms)
             C (  1)   S (  2)   C (  3)   H (  4)   H (  5)   H (  6)
   S (  2)  1.837049
   C (  3)  1.482336  1.837049
   H (  4)  1.087227  2.502695  2.216490
   H (  5)  1.087227  2.502695  2.216490  1.829044
   H (  6)  2.216490  2.502695  1.087227  3.111231  2.516815
   H (  7)  2.216490  2.502695  1.087227  2.516815  3.111231  1.829044

 
 A cutoff of  1.0D-08 yielded   1912 shell pairs
 There are  17613 function pairs ( 22653 Cartesian)
Evaluating contribution to one-electron hamiltonian from nuclear
 Smallest overlap matrix eigenvalue = 7.97E-05

 Q-Chem warning in module mkSTV.C, line 194:

 Overlap eigenvalue is smaller than square root of threshold

 Multipole matrices computed through 2nd order

  Scale SEOQF with 1.000000e-01/1.000000e-01/1.000000e-01

 Standard Electronic Orientation quadrupole field applied
 Nucleus-field energy     =     0.0000000019 hartrees
 Guess from superposition of atomic densities
 Warning:  Energy on first SCF cycle will be non-variational
 Long-range K will be added via erf
 Coulomb attenuation parameter = 0.26 bohr**(-1)
 An unrestricted Kohn-Sham SCF calculation will be
 performed using Pulay DIIS extrapolation
 Exchange:  wPBE + LR-HF      Correlation:  PBE
 Using SG-1 standard quadrature grid
 SCF converges when DIIS error is below 1.0E-05
 Requested basis set is G3large
 There are 63 shells and 190 basis functions
 A cutoff of  1.0D-08 yielded   1912 shell pairs
 There are  17613 function pairs ( 22653 Cartesian)
 Warning!  Inaccurate integrated density:
   Number of electrons =    33
   Numerical integral  =    32.000240494725
   Relative error      =    -3.0295742584 %
 ---------------------------------------
  Cycle       Energy         DIIS Error
 ---------------------------------------
    1    -477.2000541398      3.06E-02
    2    -476.4283451134      3.93E-03
    3    -476.4540376272      4.54E-03
    4    -476.5499388204      5.37E-04
    5    -476.5534769932      3.45E-04
    6    -476.5558559666      2.21E-04
    7    -476.5574747693      1.48E-04
    8    -476.5592117932      8.85E-05
    9    -476.5602460163      3.74E-05
   10    -476.5605899097      3.44E-05
   11    -476.5607072676      3.43E-05
   12    -476.5605700106      3.31E-05
   13    -476.5601339253      1.71E-05
   14    -476.5600805221      1.20E-05
   15    -476.5600704670      3.32E-06 Convergence criterion met
 ---------------------------------------
 One-Electron    Energy =  -858.8665762459
 Total Coulomb   Energy =   319.7522689367
 Alpha Exchange  Energy =    -2.2777659459
 Beta  Exchange  Energy =    -2.2140934420
 DFT   Exchange  Energy =   -32.2503975744
 DFT Correlation Energy =    -1.1451801028
 Nuclear Repu.   Energy =   100.4416739075
 Nuclear Attr.   Energy = -1334.5872651266
 Kinetic         Energy =   475.7206888807
 <S^2> = 0.7507
 SCF time:  CPU 218.70 s  wall 220.84 s
 Final Alpha MO Eigenvalues
            1           2           3           4           5           6
    1 -88.0340428  -9.9208727  -9.9207314  -7.6669164  -5.6873548  -5.6841537
            7           8           9          10          11          12
    1  -5.6765800  -0.7937921  -0.5598605  -0.5590074  -0.4339474  -0.3907320
           13          14          15          16          17          18
    1  -0.3210160  -0.2676267  -0.2549704  -0.1715632   0.0384220   0.1279533
           19          20          21          22
    1   0.1527270   0.1684414   0.1775959   0.1881405
 Final Beta MO Eigenvalues
            1           2           3           4           5           6
    1 -88.0339769  -9.9198165  -9.9196726  -7.6668227  -5.6873894  -5.6837481
            7           8           9          10          11          12
    1  -5.6765809  -0.7919583  -0.5586225  -0.5562670  -0.4328628  -0.3884130
           13          14          15          16          17          18
    1  -0.3196564  -0.2643738  -0.2499293  -0.1709807   0.1454064   0.1501767
           19          20          21
    1   0.1574568   0.1800208   0.1805159
 Analysis of SCF Wavefunction
 
 --------------------------------------------------------------
                    Orbital Energies (a.u.)
 --------------------------------------------------------------
 
 Alpha MOs
 -- Occupied --
-88.034  -9.921  -9.921  -7.667  -5.687  -5.684  -5.677  -0.794
 -0.560  -0.559  -0.434  -0.391  -0.321  -0.268  -0.255  -0.172
  0.038
 -- Virtual --
  0.128   0.153   0.168   0.178   0.188   0.226   0.233   0.237
  0.238   0.268   0.279   0.291   0.299   0.304   0.308   0.312
  0.324   0.360   0.401   0.416   0.442   0.463   0.501   0.515
  0.542   0.542   0.558   0.605   0.613   0.640   0.658   0.686
  0.749   0.756   0.758   0.771   0.788   0.790   0.812   0.840
  0.878   0.939   0.987   0.998   1.072   1.073   1.091   1.104
  1.130   1.185   1.187   1.198   1.212   1.229   1.265   1.270
  1.340   1.377   1.403   1.413   1.445   1.446   1.484   1.506
  1.515   1.555   1.568   1.581   1.623   1.632   1.661   1.669
  1.704   1.706   1.755   1.794   1.825   2.104   2.290   2.359
  2.684   2.687   2.858   2.869   2.972   2.994   3.017   3.076
  3.102   3.165   3.226   3.246   3.275   3.311   3.320   3.336
  3.350   3.448   3.510   3.551   3.559   3.590   3.611   3.708
  3.714   3.730   3.761   3.813   3.818   3.821   3.838   3.913
  3.983   4.008   4.148   4.171   4.189   4.272   4.371   4.374
  4.382   4.410   4.493   4.499   4.604   4.695   4.699   4.808
  4.853   4.999   5.097   5.267   5.327   5.419   5.504   5.733
  5.792   5.837   8.557  17.239  17.418  17.585  23.544  23.657
 23.690  23.739  23.788  24.118  24.330  27.524  27.804  28.037
 28.145  28.204  28.510  30.990  30.990  30.995  31.000  31.006
 31.012  31.032  40.938  41.002  41.021  41.123  41.212  41.226
 41.233  41.235  41.312  41.332 189.103
 
 Beta MOs
 -- Occupied --
-88.034  -9.920  -9.920  -7.667  -5.687  -5.684  -5.677  -0.792
 -0.559  -0.556  -0.433  -0.388  -0.320  -0.264  -0.250  -0.171
 -- Virtual --
  0.145   0.150   0.157   0.180   0.181   0.207   0.231   0.236
  0.238   0.238   0.267   0.280   0.294   0.300   0.305   0.308
  0.315   0.325   0.361   0.403   0.418   0.442   0.462   0.501
  0.517   0.542   0.543   0.559   0.607   0.613   0.641   0.657
  0.687   0.749   0.757   0.762   0.772   0.788   0.789   0.812
  0.842   0.879   0.940   0.990   0.999   1.074   1.075   1.092
  1.106   1.130   1.187   1.189   1.199   1.214   1.230   1.266
  1.272   1.341   1.379   1.404   1.413   1.446   1.448   1.485
  1.506   1.517   1.557   1.570   1.583   1.624   1.634   1.662
  1.671   1.707   1.708   1.756   1.796   1.827   2.104   2.292
  2.360   2.684   2.688   2.860   2.869   2.973   2.995   3.018
  3.080   3.103   3.168   3.229   3.247   3.278   3.313   3.321
  3.338   3.352   3.450   3.514   3.553   3.561   3.593   3.613
  3.710   3.717   3.732   3.763   3.813   3.820   3.823   3.840
  3.914   3.984   4.009   4.149   4.173   4.190   4.273   4.372
  4.375   4.382   4.410   4.494   4.501   4.605   4.697   4.699
  4.809   4.854   5.001   5.097   5.268   5.328   5.420   5.505
  5.734   5.793   5.839   8.557  17.239  17.419  17.585  23.544
 23.657  23.690  23.739  23.788  24.119  24.331  27.526  27.806
 28.038  28.146  28.205  28.511  30.990  30.990  30.995  31.000
 31.006  31.012  31.033  40.939  41.003  41.022  41.124  41.213
 41.227  41.234  41.237  41.312  41.332 189.103
 --------------------------------------------------------------
 
          Ground-State Mulliken Net Atomic Charges

     Atom                 Charge (a.u.)    Spin (a.u.)
  --------------------------------------------------------
      1 C                     0.990714      -0.954210
      2 S                    -0.820448       0.431180
      3 C                     0.978600      -0.941802
      4 H                    -0.539512       0.618542
      5 H                    -0.538932       0.617965
      6 H                    -0.535415       0.614369
      7 H                    -0.535006       0.613956
  --------------------------------------------------------
  Sum of atomic charges =    -1.000000
  Sum of spin   charges =     1.000000

 -----------------------------------------------------------------
                    Cartesian Multipole Moments
 -----------------------------------------------------------------
    Charge (ESU x 10^10)
                -4.8032
    Dipole Moment (Debye)
         X      -0.0283      Y      -1.9794      Z       0.0006
       Tot       1.9796
    Quadrupole Moments (Debye-Ang)
        XX     -69.8353     XY       0.0066     YY     -47.7758
        XZ       0.0078     YZ       0.0005     ZZ     -45.0424
    Octapole Moments (Debye-Ang^2)
       XXX      -0.3451    XXY     -47.6316    XYY      -0.1098
       YYY     -43.8322    XXZ       0.0040    XYZ       0.0096
       YYZ       0.0020    XZZ      -0.1470    YZZ     -15.5768
       ZZZ       0.0042
    Hexadecapole Moments (Debye-Ang^3)
      XXXX    -805.2502   XXXY      -0.0945   XXYY    -231.1973
      XYYY       0.0414   YYYY    -379.2873   XXXZ       0.0838
      XXYZ       0.0050   XYYZ       0.0329   YYYZ       0.0047
      XXZZ    -188.9205   XYZZ      -0.0737   YYZZ    -110.7408
      XZZZ       0.0731   YZZZ       0.0050   ZZZZ    -238.0231
 -----------------------------------------------------------------
 Total job time:  221.09s(wall), 218.93s(cpu) 
 Tue Apr 30 22:55:00 2013

        *************************************************************
        *                                                           *
        *  Thank you very much for using Q-Chem.  Have a nice day.  *
        *                                                           *
        *************************************************************


0 sent ACK to 0 
now end server 0 ... 
 
**********************************************************************
Job 2 of 3 
**********************************************************************
 
Process 0 of 1 is on cl121.stfx.acenet.ca - thread support 1
initial socket setup ...start
initial socket setup ...done 
now start server 0 ... 

cmd = /usr/bin/ssh clhead /usr/local/qchem/bin/get_hostid 873209117 > /scratch/tmp/5956461.1.short.q/qchem6394/lic.dat
                  Welcome to Q-Chem
     A Quantum Leap Into The Future Of Chemistry

 Y. Shao, L. Fusti-Molnar, Y. Jung, J. Kussmann, C. Ochsenfeld,
 S. T. Brown, A. T. B. Gilbert, L. V. Slipchenko,S. V. Levchenko,
 D. P. O'Neill, R. A. DiStasio Jr., R. C. Lochan, T. Wang,
 G. J. O. Beran, N. A. Besley, J. M. Herbert, C. Y. Lin,
 T. Van Voorhis, S. H. Chien, A. Sodt, R. P. Steele, 
 V. A. Rassolov, P. E. Maslen, P. P. Korambath, R. D. Adamson,
 B. Austin, J. Baker, E. F. C. Byrd, H. Dachsel, R. J. Doerksen,
 A. Dreuw, B. D. Dunietz, A. D. Dutoi, T. R. Furlani,
 S. R. Gwaltney, A. Heyden, S. Hirata, C.-P. Hsu, G. Kedziora,
 R. Z. Khaliullin, P. Klunzinger, A. M. Lee, M. S. Lee, W. Liang,
 I. Lotan, N. Nair, B. Peters, E. I. Proynov, P. A. Pieniazek, 
 Y. M. Rhee, J. Ritchie, E. Rosta, C. D. Sherrill, 
 A. C. Simmonett, J. E. Subotnik, H. L. Woodcock III,
 W. Zhang, A. T. Bell, A. K. Chakraborty, D. M. Chipman,
 F. J. Keil, A. Warshel, W. J. Hehre, H. F. Schaefer III,
 J. Kong, A. I. Krylov, P. M. W. Gill, M. Head-Gordon,
 Q-Chem, Version 3.1, Q-Chem, Inc., Pittsburgh, PA (2007).

 Additional authors for Version 3.1: 
 Z. Gan, Y. Zhao, N. E. Schultz, D. Truhlar, E. Epifanovsky and M. Oana.

 Additional authors for Version 3.2: 
 R. Baer, B. R. Brooks, D. Casanova, J.-D. Chai, C.-L. Cheng, 
 C. Cramer, D. Crittenden, A. Ghysels, G. Hawkins, E. G. Hohenstein, 
 C. Kelley, W. Kurlancheek, D. Liotard, E. Livshits, P. Manohar, 
 A. Marenich, D. Neuhauser, R. Olson, M. A. Rohrdanz, K. S. Thanthiriwatte, 
 A. J. W. Thom, V. Vanovschi, C. F. Williams, Q. Wu and Z.-Q. You. 


 Intel X86 Linux Version

 Q-chem begins on Tue Apr 30 22:55:03 2013  

 Parallel job on  1  processors
Processing $rem in /usr/local/qchem/config/preferences.

theFileMan(): MAXOPENFILES=974 MAX_SUB_FILE_NUM=16
Maximum size of a physical file is 2.0 GB, maximum size of a tmp-file is 32.0 GB


--------------------------------------------------------------
User input:
--------------------------------------------------------------

$molecule
0,1
C,0.741167814,0.8054998119,0.
S,0.,-0.8753990055,0.
C,-0.741167814,0.8054998119,0.
H,1.2584073082,1.0850965864,-0.9145221968
H,1.2584073082,1.0850965864,0.9145221968
H,-1.2584073082,1.0850965864,0.9145221968
H,-1.2584073082,1.0850965864,-0.9145221968

$end

$comment
neutral
$end

$xc_functional
C PBE   1.00
X wPBE  1.00
$end


$rem
SYMMETRY_DECOMPOSITION	0
LRC_DFT                 true
exchange 		general
BASIS                   g3large
omega			260
mem_static              760
max_scf_cycles          200
scf_final_print         1
sym_ignore              true
$end

--------------------------------------------------------------
 Writing REM_CC_EA            7
 ----------------------------------------------------
       Standard Nuclear Orientation (Angstroms)
    I     Atom         X            Y            Z
 ----------------------------------------------------
    1      C       0.741168     0.805500     0.000000
    2      S       0.000000    -0.875399     0.000000
    3      C      -0.741168     0.805500     0.000000
    4      H       1.258407     1.085097    -0.914522
    5      H       1.258407     1.085097     0.914522
    6      H      -1.258407     1.085097     0.914522
    7      H      -1.258407     1.085097    -0.914522
 ----------------------------------------------------
 Nuclear Repulsion Energy =   100.4416739056 hartrees
 There are       16 alpha and       16 beta electrons
 Requested basis set is G3large
 There are 63 shells and 190 basis functions

Total QAlloc Memory Limit   2000 MB
Mega-Array Size       743 MB
MEM_STATIC part       760 MB

                       Distance Matrix (Angstroms)
             C (  1)   S (  2)   C (  3)   H (  4)   H (  5)   H (  6)
   S (  2)  1.837049
   C (  3)  1.482336  1.837049
   H (  4)  1.087227  2.502695  2.216490
   H (  5)  1.087227  2.502695  2.216490  1.829044
   H (  6)  2.216490  2.502695  1.087227  3.111231  2.516815
   H (  7)  2.216490  2.502695  1.087227  2.516815  3.111231  1.829044

 
 A cutoff of  1.0D-08 yielded   1912 shell pairs
 There are  17613 function pairs ( 22653 Cartesian)
Evaluating contribution to one-electron hamiltonian from nuclear
 Smallest overlap matrix eigenvalue = 7.97E-05

 Q-Chem warning in module mkSTV.C, line 194:

 Overlap eigenvalue is smaller than square root of threshold

 Multipole matrices computed through 2nd order

  Scale SEOQF with 1.000000e-01/1.000000e-01/1.000000e-01

 Standard Electronic Orientation quadrupole field applied
 Nucleus-field energy     =     0.0000000019 hartrees
 Guess from superposition of atomic densities
 Warning:  Energy on first SCF cycle will be non-variational
 Long-range K will be added via erf
 Coulomb attenuation parameter = 0.26 bohr**(-1)
 A restricted Kohn-Sham SCF calculation will be
 performed using Pulay DIIS extrapolation
 Exchange:  wPBE + LR-HF      Correlation:  PBE
 Using SG-1 standard quadrature grid
 SCF converges when DIIS error is below 1.0E-05
 Requested basis set is G3large
 There are 63 shells and 190 basis functions
 A cutoff of  1.0D-08 yielded   1912 shell pairs
 There are  17613 function pairs ( 22653 Cartesian)
 ---------------------------------------
  Cycle       Energy         DIIS Error
 ---------------------------------------
    1    -477.2000541398      3.06E-02
    2    -476.5696129877      2.32E-03
    3    -476.5922831573      1.43E-03
    4    -476.5999787225      4.07E-04
    5    -476.6007904827      1.29E-04
    6    -476.6008990360      4.48E-05
    7    -476.6009136322      1.60E-05
    8    -476.6009153882      6.52E-06 Convergence criterion met
 ---------------------------------------
 One-Electron    Energy =  -854.2356042222
 Total Coulomb   Energy =   314.9861825584
 Alpha Exchange  Energy =    -2.2155796369
 Beta  Exchange  Energy =    -2.2155796369
 DFT   Exchange  Energy =   -32.2263856836
 DFT Correlation Energy =    -1.1356226743
 Nuclear Repu.   Energy =   100.4416739075
 Nuclear Attr.   Energy = -1329.8510752024
 Kinetic         Energy =   475.6154709802
 SCF time:  CPU 91.71 s  wall 92.36 s
 Final Alpha MO Eigenvalues
            1           2           3           4           5           6
    1 -88.1787040 -10.0717260 -10.0715650  -7.8123782  -5.8328322  -5.8299364
            7           8           9          10          11          12
    1  -5.8214625  -0.9403180  -0.7051049  -0.7048707  -0.5794019  -0.5362606
           13          14          15          16          17          18
    1  -0.4667228  -0.4118990  -0.3987664  -0.3139985   0.0389527   0.0438798
           19          20          21
    1   0.0549352   0.0685910   0.0763816
 Analysis of SCF Wavefunction
 
 --------------------------------------------------------------
                    Orbital Energies (a.u.)
 --------------------------------------------------------------
 
 Alpha MOs
 -- Occupied --
-88.179 -10.072 -10.072  -7.812  -5.833  -5.830  -5.821  -0.940
 -0.705  -0.705  -0.579  -0.536  -0.467  -0.412  -0.399  -0.314
 -- Virtual --
  0.039   0.044   0.055   0.069   0.076   0.084   0.121   0.122
  0.127   0.131   0.156   0.163   0.183   0.184   0.185   0.194
  0.196   0.197   0.227   0.270   0.283   0.310   0.331   0.364
  0.382   0.412   0.412   0.432   0.473   0.481   0.503   0.524
  0.555   0.615   0.619   0.621   0.635   0.652   0.653   0.675
  0.699   0.738   0.798   0.846   0.857   0.931   0.933   0.950
  0.964   0.989   1.046   1.046   1.057   1.074   1.088   1.123
  1.129   1.199   1.235   1.263   1.271   1.303   1.306   1.343
  1.367   1.372   1.414   1.427   1.441   1.482   1.490   1.522
  1.528   1.563   1.566   1.614   1.654   1.682   1.963   2.147
  2.215   2.538   2.542   2.712   2.725   2.825   2.849   2.872
  2.931   2.957   3.019   3.081   3.100   3.130   3.166   3.174
  3.190   3.205   3.303   3.364   3.406   3.414   3.444   3.466
  3.563   3.569   3.584   3.616   3.668   3.672   3.675   3.693
  3.767   3.837   3.862   4.002   4.025   4.043   4.126   4.225
  4.228   4.236   4.264   4.347   4.353   4.458   4.549   4.552
  4.662   4.708   4.852   4.952   5.120   5.182   5.272   5.358
  5.587   5.646   5.691   8.412  17.094  17.273  17.440  23.398
 23.512  23.545  23.594  23.642  23.967  24.180  27.374  27.654
 27.887  27.994  28.053  28.359  30.844  30.844  30.849  30.855
 30.860  30.867  30.887  40.787  40.852  40.871  40.973  41.061
 41.076  41.083  41.085  41.161  41.181 188.958
 --------------------------------------------------------------
 
          Ground-State Mulliken Net Atomic Charges

     Atom                 Charge (a.u.)
  ----------------------------------------
      1 C                     0.002134
      2 S                    -0.349762
      3 C                     0.002685
      4 H                     0.086259
      5 H                     0.086257
      6 H                     0.086205
      7 H                     0.086223
  ----------------------------------------
  Sum of atomic charges =     0.000000

 -----------------------------------------------------------------
                    Cartesian Multipole Moments
 -----------------------------------------------------------------
    Charge (ESU x 10^10)
                 0.0000
    Dipole Moment (Debye)
         X      -0.0006      Y       1.9745      Z       0.0001
       Tot       1.9745
    Quadrupole Moments (Debye-Ang)
        XX     -24.5065     XY       0.0000     YY     -26.2022
        XZ       0.0001     YZ      -0.0001     ZZ     -26.3217
    Octapole Moments (Debye-Ang^2)
       XXX      -0.0008    XXY       2.0639    XYY      -0.0014
       YYY      -1.9323    XXZ       0.0001    XYZ      -0.0006
       YYZ       0.0005    XZZ       0.0000    YZZ       4.1086
       ZZZ       0.0002
    Hexadecapole Moments (Debye-Ang^3)
      XXXX     -91.2426   XXXY       0.0008   XXYY     -37.9713
      XYYY      -0.0004   YYYY    -152.6140   XXXZ       0.0001
      XXYZ      -0.0001   XYYZ       0.0003   YYYZ      -0.0006
      XXZZ     -20.0596   XYZZ       0.0001   YYZZ     -33.9833
      XZZZ       0.0002   YZZZ      -0.0002   ZZZZ     -47.8661
 -----------------------------------------------------------------
 Total job time:  92.59s(wall), 91.93s(cpu) 
 Tue Apr 30 22:56:36 2013

        *************************************************************
        *                                                           *
        *  Thank you very much for using Q-Chem.  Have a nice day.  *
        *                                                           *
        *************************************************************


0 sent ACK to 0 
now end server 0 ... 
 
**********************************************************************
Job 3 of 3 
**********************************************************************
 
Process 0 of 1 is on cl121.stfx.acenet.ca - thread support 1
initial socket setup ...start
initial socket setup ...done 
now start server 0 ... 

cmd = /usr/bin/ssh clhead /usr/local/qchem/bin/get_hostid 666703570 > /scratch/tmp/5956461.1.short.q/qchem6394/lic.dat
                  Welcome to Q-Chem
     A Quantum Leap Into The Future Of Chemistry

 Y. Shao, L. Fusti-Molnar, Y. Jung, J. Kussmann, C. Ochsenfeld,
 S. T. Brown, A. T. B. Gilbert, L. V. Slipchenko,S. V. Levchenko,
 D. P. O'Neill, R. A. DiStasio Jr., R. C. Lochan, T. Wang,
 G. J. O. Beran, N. A. Besley, J. M. Herbert, C. Y. Lin,
 T. Van Voorhis, S. H. Chien, A. Sodt, R. P. Steele, 
 V. A. Rassolov, P. E. Maslen, P. P. Korambath, R. D. Adamson,
 B. Austin, J. Baker, E. F. C. Byrd, H. Dachsel, R. J. Doerksen,
 A. Dreuw, B. D. Dunietz, A. D. Dutoi, T. R. Furlani,
 S. R. Gwaltney, A. Heyden, S. Hirata, C.-P. Hsu, G. Kedziora,
 R. Z. Khaliullin, P. Klunzinger, A. M. Lee, M. S. Lee, W. Liang,
 I. Lotan, N. Nair, B. Peters, E. I. Proynov, P. A. Pieniazek, 
 Y. M. Rhee, J. Ritchie, E. Rosta, C. D. Sherrill, 
 A. C. Simmonett, J. E. Subotnik, H. L. Woodcock III,
 W. Zhang, A. T. Bell, A. K. Chakraborty, D. M. Chipman,
 F. J. Keil, A. Warshel, W. J. Hehre, H. F. Schaefer III,
 J. Kong, A. I. Krylov, P. M. W. Gill, M. Head-Gordon,
 Q-Chem, Version 3.1, Q-Chem, Inc., Pittsburgh, PA (2007).

 Additional authors for Version 3.1: 
 Z. Gan, Y. Zhao, N. E. Schultz, D. Truhlar, E. Epifanovsky and M. Oana.

 Additional authors for Version 3.2: 
 R. Baer, B. R. Brooks, D. Casanova, J.-D. Chai, C.-L. Cheng, 
 C. Cramer, D. Crittenden, A. Ghysels, G. Hawkins, E. G. Hohenstein, 
 C. Kelley, W. Kurlancheek, D. Liotard, E. Livshits, P. Manohar, 
 A. Marenich, D. Neuhauser, R. Olson, M. A. Rohrdanz, K. S. Thanthiriwatte, 
 A. J. W. Thom, V. Vanovschi, C. F. Williams, Q. Wu and Z.-Q. You. 


 Intel X86 Linux Version

 Q-chem begins on Tue Apr 30 22:56:39 2013  

 Parallel job on  1  processors
Processing $rem in /usr/local/qchem/config/preferences.

theFileMan(): MAXOPENFILES=974 MAX_SUB_FILE_NUM=16
Maximum size of a physical file is 2.0 GB, maximum size of a tmp-file is 32.0 GB


--------------------------------------------------------------
User input:
--------------------------------------------------------------

$molecule
1,2
C,0.741167814,0.8054998119,0.
S,0.,-0.8753990055,0.
C,-0.741167814,0.8054998119,0.
H,1.2584073082,1.0850965864,-0.9145221968
H,1.2584073082,1.0850965864,0.9145221968
H,-1.2584073082,1.0850965864,0.9145221968
H,-1.2584073082,1.0850965864,-0.9145221968

$end

$comment
positive
$end

$xc_functional
C PBE   1.00
X wPBE  1.00
$end

$rem
SYMMETRY_DECOMPOSITION	0
LRC_DFT                 true
exchange 		general
BASIS                   g3large
omega			260
mem_static              760
max_scf_cycles          200
scf_final_print         1
sym_ignore              true
$end

--------------------------------------------------------------
 Writing REM_CC_EA            7
 ----------------------------------------------------
       Standard Nuclear Orientation (Angstroms)
    I     Atom         X            Y            Z
 ----------------------------------------------------
    1      C       0.741168     0.805500     0.000000
    2      S       0.000000    -0.875399     0.000000
    3      C      -0.741168     0.805500     0.000000
    4      H       1.258407     1.085097    -0.914522
    5      H       1.258407     1.085097     0.914522
    6      H      -1.258407     1.085097     0.914522
    7      H      -1.258407     1.085097    -0.914522
 ----------------------------------------------------
 Nuclear Repulsion Energy =   100.4416739056 hartrees
 There are       16 alpha and       15 beta electrons
 Requested basis set is G3large
 There are 63 shells and 190 basis functions

Total QAlloc Memory Limit   2000 MB
Mega-Array Size       743 MB
MEM_STATIC part       760 MB

                       Distance Matrix (Angstroms)
             C (  1)   S (  2)   C (  3)   H (  4)   H (  5)   H (  6)
   S (  2)  1.837049
   C (  3)  1.482336  1.837049
   H (  4)  1.087227  2.502695  2.216490
   H (  5)  1.087227  2.502695  2.216490  1.829044
   H (  6)  2.216490  2.502695  1.087227  3.111231  2.516815
   H (  7)  2.216490  2.502695  1.087227  2.516815  3.111231  1.829044

 
 A cutoff of  1.0D-08 yielded   1912 shell pairs
 There are  17613 function pairs ( 22653 Cartesian)
Evaluating contribution to one-electron hamiltonian from nuclear
 Smallest overlap matrix eigenvalue = 7.97E-05

 Q-Chem warning in module mkSTV.C, line 194:

 Overlap eigenvalue is smaller than square root of threshold

 Multipole matrices computed through 2nd order

  Scale SEOQF with 1.000000e-01/1.000000e-01/1.000000e-01

 Standard Electronic Orientation quadrupole field applied
 Nucleus-field energy     =     0.0000000019 hartrees
 Guess from superposition of atomic densities
 Warning:  Energy on first SCF cycle will be non-variational
 Long-range K will be added via erf
 Coulomb attenuation parameter = 0.26 bohr**(-1)
 An unrestricted Kohn-Sham SCF calculation will be
 performed using Pulay DIIS extrapolation
 Exchange:  wPBE + LR-HF      Correlation:  PBE
 Using SG-1 standard quadrature grid
 SCF converges when DIIS error is below 1.0E-05
 Requested basis set is G3large
 There are 63 shells and 190 basis functions
 A cutoff of  1.0D-08 yielded   1912 shell pairs
 There are  17613 function pairs ( 22653 Cartesian)
 Warning!  Inaccurate integrated density:
   Number of electrons =    31
   Numerical integral  =    32.000240494725
   Relative error      =     3.2265822410 %
 ---------------------------------------
  Cycle       Energy         DIIS Error
 ---------------------------------------
    1    -477.2000541398      3.06E-02
    2    -476.2117942922      3.02E-03
    3    -476.2445901260      2.38E-03
    4    -476.2680751293      4.56E-04
    5    -476.2692868748      2.08E-04
    6    -476.2695681300      4.75E-05
    7    -476.2696163028      1.92E-05
    8    -476.2696246552      1.00E-05
    9    -476.2696264296      2.92E-06 Convergence criterion met
 ---------------------------------------
 One-Electron    Energy =  -845.1659151103
 Total Coulomb   Energy =   305.9498588983
 Alpha Exchange  Energy =    -2.2230406529
 Beta  Exchange  Energy =    -2.0863092939
 DFT   Exchange  Energy =   -32.0891986210
 DFT Correlation Energy =    -1.0966955572
 Nuclear Repu.   Energy =   100.4416739075
 Nuclear Attr.   Energy = -1320.5023883484
 Kinetic         Energy =   475.3364732381
 <S^2> = 0.7555
 SCF time:  CPU 122.85 s  wall 123.78 s
 Final Alpha MO Eigenvalues
            1           2           3           4           5           6
    1 -88.5261076 -10.3163790 -10.3162353  -8.1547834  -6.1783892  -6.1706201
            7           8           9          10          11          12
    1  -6.1669948  -1.2197620  -0.9908871  -0.9444722  -0.8289594  -0.7926816
           13          14          15          16          17          18
    1  -0.7009229  -0.6783883  -0.6725563  -0.6490549  -0.1879670  -0.1509765
           19          20          21
    1  -0.1088551  -0.0915718  -0.0809998
 Final Beta MO Eigenvalues
            1           2           3           4           5           6
    1 -88.5209325 -10.3165953 -10.3164539  -8.1499654  -6.1679461  -6.1640755
            7           8           9          10          11          12
    1  -6.1636378  -1.2060697  -0.9629992  -0.9429534  -0.8141117  -0.7856021
           13          14          15          16          17          18
    1  -0.6960814  -0.6682236  -0.6681437  -0.3453031  -0.1843311  -0.1353913
           19          20
    1  -0.1064756  -0.0884201
 Analysis of SCF Wavefunction
 
 --------------------------------------------------------------
                    Orbital Energies (a.u.)
 --------------------------------------------------------------
 
 Alpha MOs
 -- Occupied --
-88.526 -10.316 -10.316  -8.155  -6.178  -6.171  -6.167  -1.220
 -0.991  -0.944  -0.829  -0.793  -0.701  -0.678  -0.673  -0.649
 -- Virtual --
 -0.188  -0.151  -0.109  -0.092  -0.081  -0.056  -0.041  -0.036
 -0.027  -0.025  -0.023   0.002   0.009   0.016   0.025   0.030
  0.031   0.038   0.049   0.059   0.087   0.109   0.122   0.147
  0.154   0.189   0.198   0.224   0.255   0.256   0.299   0.319
  0.353   0.401   0.410   0.413   0.434   0.449   0.453   0.472
  0.478   0.510   0.555   0.601   0.648   0.673   0.673   0.694
  0.717   0.719   0.778   0.780   0.813   0.838   0.849   0.869
  0.904   0.977   1.000   1.017   1.041   1.047   1.057   1.088
  1.115   1.149   1.187   1.195   1.232   1.246   1.252   1.301
  1.302   1.325   1.343   1.392   1.436   1.454   1.647   1.878
  1.936   2.297   2.307   2.469   2.497   2.586   2.608   2.638
  2.688   2.707   2.768   2.827   2.851   2.870   2.896   2.935
  2.946   2.964   3.059   3.124   3.158   3.173   3.205   3.209
  3.231   3.240   3.325   3.341   3.342   3.392   3.408   3.417
  3.464   3.597   3.626   3.743   3.755   3.808   3.880   3.978
  3.983   3.991   4.037   4.104   4.111   4.210   4.297   4.313
  4.339   4.387   4.612   4.649   4.879   4.910   4.972   5.074
  5.352   5.412   5.454   8.080  16.737  16.938  17.105  23.052
 23.163  23.196  23.256  23.309  23.720  23.935  27.129  27.408
 27.641  27.750  27.809  28.115  30.499  30.500  30.510  30.513
 30.519  30.524  30.553  40.542  40.606  40.626  40.728  40.816
 40.830  40.838  40.840  40.917  40.937 188.612
 
 Beta MOs
 -- Occupied --
-88.521 -10.317 -10.316  -8.150  -6.168  -6.164  -6.164  -1.206
 -0.963  -0.943  -0.814  -0.786  -0.696  -0.668  -0.668
 -- Virtual --
 -0.345  -0.184  -0.135  -0.106  -0.088  -0.081  -0.047  -0.039
 -0.035  -0.026  -0.024  -0.018   0.015   0.016   0.024   0.028
  0.030   0.032   0.043   0.049   0.072   0.095   0.110   0.143
  0.148   0.176   0.203   0.206   0.229   0.260   0.275   0.303
  0.325   0.356   0.402   0.415   0.416   0.437   0.453   0.454
  0.478   0.480   0.514   0.571   0.611   0.651   0.692   0.695
  0.719   0.721   0.744   0.793   0.807   0.823   0.840   0.857
  0.879   0.911   0.988   1.014   1.035   1.052   1.056   1.067
  1.103   1.138   1.149   1.189   1.199   1.235   1.250   1.256
  1.306   1.309   1.333   1.346   1.396   1.438   1.455   1.693
  1.885   1.944   2.298   2.309   2.469   2.500   2.587   2.611
  2.641   2.688   2.713   2.771   2.829   2.856   2.870   2.912
  2.938   2.950   2.965   3.067   3.125   3.163   3.175   3.209
  3.225   3.272   3.280   3.330   3.362   3.386   3.396   3.419
  3.423   3.491   3.600   3.628   3.747   3.756   3.810   3.883
  3.981   3.990   3.994   4.040   4.108   4.113   4.215   4.303
  4.315   4.352   4.402   4.613   4.664   4.883   4.921   4.975
  5.083   5.356   5.415   5.457   8.091  16.764  16.942  17.109
 23.062  23.174  23.206  23.262  23.311  23.720  23.935  27.128
 27.407  27.641  27.750  27.809  28.115  30.504  30.504  30.514
 30.516  30.522  30.527  30.554  40.541  40.606  40.626  40.728
 40.816  40.829  40.837  40.840  40.917  40.937 188.618
 --------------------------------------------------------------
 
          Ground-State Mulliken Net Atomic Charges

     Atom                 Charge (a.u.)    Spin (a.u.)
  --------------------------------------------------------
      1 C                     0.058337      -0.023881
      2 S                     0.284402       0.977286
      3 C                     0.058849      -0.023706
      4 H                     0.149575       0.017476
      5 H                     0.149663       0.017740
      6 H                     0.149563       0.017456
      7 H                     0.149612       0.017630
  --------------------------------------------------------
  Sum of atomic charges =     1.000000
  Sum of spin   charges =     1.000000

 -----------------------------------------------------------------
                    Cartesian Multipole Moments
 -----------------------------------------------------------------
    Charge (ESU x 10^10)
                 4.8032
    Dipole Moment (Debye)
         X       0.0002      Y       0.9870      Z       0.0006
       Tot       0.9870
    Quadrupole Moments (Debye-Ang)
        XX     -19.0916     XY       0.0001     YY     -17.3168
        XZ       0.0036     YZ      -0.0019     ZZ     -19.9619
    Octapole Moments (Debye-Ang^2)
       XXX       0.0003    XXY       4.8100    XYY       0.0006
       YYY      -2.8134    XXZ       0.0004    XYZ      -0.0005
       YYZ       0.0021    XZZ       0.0002    YZZ       2.1983
       ZZZ       0.0006
    Hexadecapole Moments (Debye-Ang^3)
      XXXX     -73.7157   XXXY       0.0003   XXYY     -27.4735
      XYYY       0.0001   YYYY    -120.3170   XXXZ       0.0049
      XXYZ      -0.0002   XYYZ       0.0055   YYYZ      -0.0061
      XXZZ     -13.0867   XYZZ       0.0002   YYZZ     -22.6675
      XZZZ       0.0035   YZZZ      -0.0018   ZZZZ     -31.2998
 -----------------------------------------------------------------
 Total job time:  124.01s(wall), 123.07s(cpu) 
 Tue Apr 30 22:58:43 2013

        *************************************************************
        *                                                           *
        *  Thank you very much for using Q-Chem.  Have a nice day.  *
        *                                                           *
        *************************************************************


0 sent ACK to 0 
now end server 0 ... 
