Process 0 of 1 is on cl149.stfx.acenet.ca - thread support 1
initial socket setup ...start
initial socket setup ...done 
now start server 0 ... 

cmd = /usr/bin/ssh clhead /usr/local/qchem/bin/get_hostid 778210471 > /scratch/tmp/6063593.1.medium.q/qchem18063/lic.dat
                  Welcome to Q-Chem
     A Quantum Leap Into The Future Of Chemistry

 Y. Shao, L. Fusti-Molnar, Y. Jung, J. Kussmann, C. Ochsenfeld,
 S. T. Brown, A. T. B. Gilbert, L. V. Slipchenko,S. V. Levchenko,
 D. P. O'Neill, R. A. DiStasio Jr., R. C. Lochan, T. Wang,
 G. J. O. Beran, N. A. Besley, J. M. Herbert, C. Y. Lin,
 T. Van Voorhis, S. H. Chien, A. Sodt, R. P. Steele, 
 V. A. Rassolov, P. E. Maslen, P. P. Korambath, R. D. Adamson,
 B. Austin, J. Baker, E. F. C. Byrd, H. Dachsel, R. J. Doerksen,
 A. Dreuw, B. D. Dunietz, A. D. Dutoi, T. R. Furlani,
 S. R. Gwaltney, A. Heyden, S. Hirata, C.-P. Hsu, G. Kedziora,
 R. Z. Khaliullin, P. Klunzinger, A. M. Lee, M. S. Lee, W. Liang,
 I. Lotan, N. Nair, B. Peters, E. I. Proynov, P. A. Pieniazek, 
 Y. M. Rhee, J. Ritchie, E. Rosta, C. D. Sherrill, 
 A. C. Simmonett, J. E. Subotnik, H. L. Woodcock III,
 W. Zhang, A. T. Bell, A. K. Chakraborty, D. M. Chipman,
 F. J. Keil, A. Warshel, W. J. Hehre, H. F. Schaefer III,
 J. Kong, A. I. Krylov, P. M. W. Gill, M. Head-Gordon,
 Q-Chem, Version 3.1, Q-Chem, Inc., Pittsburgh, PA (2007).

 Additional authors for Version 3.1: 
 Z. Gan, Y. Zhao, N. E. Schultz, D. Truhlar, E. Epifanovsky and M. Oana.

 Additional authors for Version 3.2: 
 R. Baer, B. R. Brooks, D. Casanova, J.-D. Chai, C.-L. Cheng, 
 C. Cramer, D. Crittenden, A. Ghysels, G. Hawkins, E. G. Hohenstein, 
 C. Kelley, W. Kurlancheek, D. Liotard, E. Livshits, P. Manohar, 
 A. Marenich, D. Neuhauser, R. Olson, M. A. Rohrdanz, K. S. Thanthiriwatte, 
 A. J. W. Thom, V. Vanovschi, C. F. Williams, Q. Wu and Z.-Q. You. 


 Intel X86 Linux Version

 Q-chem begins on Sun Jul  7 08:38:05 2013  

 Parallel job on  1  processors
Processing $rem in /usr/local/qchem/config/preferences.

theFileMan(): MAXOPENFILES=974 MAX_SUB_FILE_NUM=16
Maximum size of a physical file is 2.0 GB, maximum size of a tmp-file is 32.0 GB


--------------------------------------------------------------
User input:
--------------------------------------------------------------

$molecule
-1,2
Cl         0.00000        0.00000        0.01854
F          0.00000        0.00000        1.59361
F          1.66516        0.00000        0.10758
F         -1.66516        0.00000        0.10758
$end

$comment
negative
$end

$xc_functional
C PBE   1.00
X wPBE  1.00
$end

$rem
SYMMETRY_DECOMPOSITION	0
exchange 		general
LRC_DFT                 true
BASIS                   g3large
omega			1000
mem_static              760
max_scf_cycles          200
scf_final_print         1
sym_ignore              true
$end

--------------------------------------------------------------
 Writing REM_CC_EA            4
 ----------------------------------------------------
       Standard Nuclear Orientation (Angstroms)
    I     Atom         X            Y            Z
 ----------------------------------------------------
    1      Cl      0.000000     0.000000     0.018540
    2      F       0.000000     0.000000     1.593610
    3      F       1.665160     0.000000     0.107580
    4      F      -1.665160     0.000000     0.107580
 ----------------------------------------------------
 Nuclear Repulsion Energy =   199.7912942687 hartrees
 There are       23 alpha and       22 beta electrons
 Requested basis set is G3large
 There are 49 shells and 192 basis functions

Total QAlloc Memory Limit   2000 MB
Mega-Array Size       743 MB
MEM_STATIC part       760 MB

                       Distance Matrix (Angstroms)
             Cl(  1)   F (  2)   F (  3)
   F (  2)  1.575070
   F (  3)  1.667539  2.231825
   F (  4)  1.667539  2.231825  3.330320
 
 A cutoff of  1.0D-08 yielded   1013 shell pairs
 There are  16002 function pairs ( 21671 Cartesian)
Evaluating contribution to one-electron hamiltonian from nuclear
 Smallest overlap matrix eigenvalue = 1.54E-03
 Multipole matrices computed through 2nd order

  Scale SEOQF with 1.000000e-01/1.000000e-01/1.000000e-01

 Standard Electronic Orientation quadrupole field applied
 Nucleus-field energy     =    -0.0000000007 hartrees
 Guess from superposition of atomic densities
 Warning:  Energy on first SCF cycle will be non-variational
 Long-range K will be added via erf
 Coulomb attenuation parameter = 1 bohr**(-1)
 An unrestricted Kohn-Sham SCF calculation will be
 performed using Pulay DIIS extrapolation
 Exchange:  wPBE + LR-HF      Correlation:  PBE
 Using SG-1 standard quadrature grid
 SCF converges when DIIS error is below 1.0E-05
 Requested basis set is G3large
 There are 49 shells and 192 basis functions
 A cutoff of  1.0D-08 yielded   1013 shell pairs
 There are  16002 function pairs ( 21671 Cartesian)
 Warning!  Inaccurate integrated density:
   Number of electrons =    45
   Numerical integral  =    43.999580706626
   Relative error      =    -2.2231539853 %
 ---------------------------------------
  Cycle       Energy         DIIS Error
 ---------------------------------------
    1    -760.1354216828      2.75E-02
    2    -759.3235513349      5.80E-03
    3    -759.3908788241      4.35E-03
    4    -759.4391001187      4.74E-04
    5    -759.4418772022      1.83E-04
    6    -759.4425316834      7.44E-05
    7    -759.4426806846      2.78E-05
    8    -759.4427012192      1.38E-05
    9    -759.4427076076      7.71E-06 Convergence criterion met
 ---------------------------------------
 One-Electron    Energy = -1463.1059152277
 Total Coulomb   Energy =   563.7641602101
 Alpha Exchange  Energy =    -9.9298204458
 Beta  Exchange  Energy =    -9.5268446496
 DFT   Exchange  Energy =   -38.7794731290
 DFT Correlation Energy =    -1.6561086337
 Nuclear Repu.   Energy =   199.7912942680
 Nuclear Attr.   Energy = -2222.3227657438
 Kinetic         Energy =   759.2168505162
 <S^2> = 0.7601
 SCF time:  CPU 88.29 s  wall 88.57 s
 Final Alpha MO Eigenvalues
            1           2           3           4           5           6
    1-101.1160801 -24.5100892 -24.5020910 -24.5018176  -9.6232204  -7.4047398
            7           8           9          10          11          12
    1  -7.3947854  -7.3787987  -1.3741841  -1.2714320  -1.2582950  -0.8835661
           13          14          15          16          17          18
    1  -0.5834369  -0.5752720  -0.5213344  -0.4658557  -0.4217572  -0.4160079
           19          20          21          22          23          24
    1  -0.4127574  -0.3726862  -0.3217496  -0.2513801  -0.0904514   0.2585780
           25          26          27          28
    1   0.2716036   0.2763567   0.2918339   0.4102487
 Final Beta MO Eigenvalues
            1           2           3           4           5           6
    1-101.1116592 -24.5011440 -24.5007430 -24.4974507  -9.6181251  -7.4014481
            7           8           9          10          11          12
    1  -7.3833030  -7.3748536  -1.3428396  -1.2679082  -1.2382615  -0.8399901
           13          14          15          16          17          18
    1  -0.5655041  -0.5083938  -0.5039997  -0.4589239  -0.4208117  -0.4043976
           19          20          21          22          23          24
    1  -0.3852617  -0.3584522  -0.3042882  -0.2304414   0.2583522   0.2694354
           25          26          27
    1   0.2729981   0.2776423   0.3760609
 Analysis of SCF Wavefunction
 
 --------------------------------------------------------------
                    Orbital Energies (a.u.)
 --------------------------------------------------------------
 
 Alpha MOs
 -- Occupied --
******* -24.510 -24.502 -24.502  -9.623  -7.405  -7.395  -7.379
 -1.374  -1.271  -1.258  -0.884  -0.583  -0.575  -0.521  -0.466
 -0.422  -0.416  -0.413  -0.373  -0.322  -0.251  -0.090
 -- Virtual --
  0.259   0.272   0.276   0.292   0.410   0.454   0.477   0.493
  0.497   0.516   0.533   0.577   0.581   0.610   0.621   0.653
  0.700   0.711   0.711   0.745   0.748   0.801   0.822   1.024
  1.098   1.390   1.432   1.443   1.452   1.465   1.540   1.544
  1.599   1.610   1.623   1.649   1.651   1.740   1.751   1.754
  1.756   1.757   1.815   1.823   1.889   1.978   2.173   2.374
  2.376   2.461   2.476   2.485   2.495   2.503   2.596   2.627
  2.653   2.656   2.757   2.765   2.796   2.994   3.206   3.279
  3.292   3.351   3.526   4.089   4.790   4.816   4.845   4.876
  4.941   5.034   5.116   5.474   5.487   5.495   5.725   5.874
  6.703   6.708   6.727   6.747   6.757   6.824   6.832   6.956
  7.111   7.145   7.167   7.169   7.174   7.185   7.188   7.193
  7.196   7.198   7.222   7.231   7.240   7.263   7.265   7.279
  7.302   7.306   7.365   7.382   7.451   7.741   9.622   9.630
  9.634   9.682   9.698   9.719   9.766   9.795   9.895   9.963
 10.050  10.063  10.114  10.349  10.479  10.672  21.007  21.240
 21.838  27.617  27.619  27.635  27.684  27.917  37.241  37.250
 37.256  37.256  37.257  37.285  37.288  50.687  50.703  50.715
 50.721  50.725  50.752  50.767  50.792  50.828  50.894  50.899
 50.903  50.910  50.966  51.031  56.167  56.179  56.186  56.204
 56.205  56.253  56.273  56.337  56.505  67.214  67.247  67.287
216.222
 
 Beta MOs
 -- Occupied --
******* -24.501 -24.501 -24.497  -9.618  -7.401  -7.383  -7.375
 -1.343  -1.268  -1.238  -0.840  -0.566  -0.508  -0.504  -0.459
 -0.421  -0.404  -0.385  -0.358  -0.304  -0.230
 -- Virtual --
  0.258   0.269   0.273   0.278   0.376   0.425   0.456   0.485
  0.495   0.498   0.523   0.535   0.578   0.581   0.614   0.624
  0.679   0.706   0.718   0.726   0.773   0.789   0.805   0.830
  1.026   1.129   1.396   1.441   1.459   1.471   1.491   1.550
  1.553   1.605   1.625   1.640   1.655   1.671   1.745   1.758
  1.760   1.761   1.765   1.816   1.826   1.896   1.997   2.177
  2.380   2.392   2.469   2.478   2.488   2.499   2.510   2.598
  2.628   2.660   2.661   2.764   2.768   2.826   3.013   3.223
  3.283   3.295   3.362   3.545   4.092   4.812   4.843   4.867
  4.901   4.953   5.056   5.130   5.484   5.492   5.506   5.737
  5.883   6.710   6.722   6.728   6.748   6.763   6.829   6.841
  6.985   7.115   7.156   7.171   7.174   7.179   7.188   7.189
  7.194   7.198   7.206   7.230   7.232   7.242   7.269   7.272
  7.294   7.314   7.314   7.372   7.397   7.454   7.761   9.632
  9.634   9.640   9.684   9.701   9.729   9.781   9.799   9.934
  9.977  10.052  10.093  10.120  10.367  10.482  10.698  21.011
 21.253  21.841  27.622  27.629  27.645  27.691  27.927  37.244
 37.253  37.257  37.259  37.260  37.289  37.290  50.690  50.705
 50.721  50.726  50.728  50.753  50.778  50.795  50.859  50.896
 50.900  50.914  50.926  51.005  51.033  56.171  56.186  56.188
 56.205  56.209  56.255  56.278  56.360  56.507  67.215  67.260
 67.290 216.228
 --------------------------------------------------------------
 
          Ground-State Mulliken Net Atomic Charges

     Atom                 Charge (a.u.)    Spin (a.u.)
  --------------------------------------------------------
      1 Cl                    0.131881       0.758866
      2 F                    -0.305422       0.221412
      3 F                    -0.412850       0.008793
      4 F                    -0.413609       0.010929
  --------------------------------------------------------
  Sum of atomic charges =    -1.000000
  Sum of spin   charges =     1.000000

 -----------------------------------------------------------------
                    Cartesian Multipole Moments
 -----------------------------------------------------------------
    Charge (ESU x 10^10)
                -4.8032
    Dipole Moment (Debye)
         X       0.0067      Y      -0.0002      Z      -2.2750
       Tot       2.2750
    Quadrupole Moments (Debye-Ang)
        XX     -40.2767     XY       0.0001     YY     -28.7925
        XZ       0.0028     YZ      -0.0014     ZZ     -34.0077
    Octapole Moments (Debye-Ang^2)
       XXX       0.0416    XXY       0.0009    XYY       0.0045
       YYY      -0.0019    XXZ     -10.6554    XYZ       0.0000
       YYZ      -9.3199    XZZ      -0.0019    YZZ       0.0041
       ZZZ     -36.8042
    Hexadecapole Moments (Debye-Ang^3)
      XXXX    -240.9058   XXXY      -0.0001   XXYY     -38.3987
      XYYY       0.0002   YYYY     -25.9958   XXXZ      -0.0005
      XXYZ      -0.0004   XYYZ       0.0031   YYYZ      -0.0029
      XXZZ     -52.4198   XYZZ       0.0001   YYZZ     -22.8263
      XZZZ       0.0036   YZZZ       0.0012   ZZZZ    -125.9136
 -----------------------------------------------------------------
 Total job time:  88.82s(wall), 88.53s(cpu) 
 Sun Jul  7 08:39:33 2013

        *************************************************************
        *                                                           *
        *  Thank you very much for using Q-Chem.  Have a nice day.  *
        *                                                           *
        *************************************************************


0 sent ACK to 0 
now end server 0 ... 
 
**********************************************************************
Job 2 of 3 
**********************************************************************
 
Process 0 of 1 is on cl149.stfx.acenet.ca - thread support 1
initial socket setup ...start
initial socket setup ...done 
now start server 0 ... 

cmd = /usr/bin/ssh clhead /usr/local/qchem/bin/get_hostid 1794309795 > /scratch/tmp/6063593.1.medium.q/qchem18063/lic.dat
                  Welcome to Q-Chem
     A Quantum Leap Into The Future Of Chemistry

 Y. Shao, L. Fusti-Molnar, Y. Jung, J. Kussmann, C. Ochsenfeld,
 S. T. Brown, A. T. B. Gilbert, L. V. Slipchenko,S. V. Levchenko,
 D. P. O'Neill, R. A. DiStasio Jr., R. C. Lochan, T. Wang,
 G. J. O. Beran, N. A. Besley, J. M. Herbert, C. Y. Lin,
 T. Van Voorhis, S. H. Chien, A. Sodt, R. P. Steele, 
 V. A. Rassolov, P. E. Maslen, P. P. Korambath, R. D. Adamson,
 B. Austin, J. Baker, E. F. C. Byrd, H. Dachsel, R. J. Doerksen,
 A. Dreuw, B. D. Dunietz, A. D. Dutoi, T. R. Furlani,
 S. R. Gwaltney, A. Heyden, S. Hirata, C.-P. Hsu, G. Kedziora,
 R. Z. Khaliullin, P. Klunzinger, A. M. Lee, M. S. Lee, W. Liang,
 I. Lotan, N. Nair, B. Peters, E. I. Proynov, P. A. Pieniazek, 
 Y. M. Rhee, J. Ritchie, E. Rosta, C. D. Sherrill, 
 A. C. Simmonett, J. E. Subotnik, H. L. Woodcock III,
 W. Zhang, A. T. Bell, A. K. Chakraborty, D. M. Chipman,
 F. J. Keil, A. Warshel, W. J. Hehre, H. F. Schaefer III,
 J. Kong, A. I. Krylov, P. M. W. Gill, M. Head-Gordon,
 Q-Chem, Version 3.1, Q-Chem, Inc., Pittsburgh, PA (2007).

 Additional authors for Version 3.1: 
 Z. Gan, Y. Zhao, N. E. Schultz, D. Truhlar, E. Epifanovsky and M. Oana.

 Additional authors for Version 3.2: 
 R. Baer, B. R. Brooks, D. Casanova, J.-D. Chai, C.-L. Cheng, 
 C. Cramer, D. Crittenden, A. Ghysels, G. Hawkins, E. G. Hohenstein, 
 C. Kelley, W. Kurlancheek, D. Liotard, E. Livshits, P. Manohar, 
 A. Marenich, D. Neuhauser, R. Olson, M. A. Rohrdanz, K. S. Thanthiriwatte, 
 A. J. W. Thom, V. Vanovschi, C. F. Williams, Q. Wu and Z.-Q. You. 


 Intel X86 Linux Version

 Q-chem begins on Sun Jul  7 08:39:37 2013  

 Parallel job on  1  processors
Processing $rem in /usr/local/qchem/config/preferences.

theFileMan(): MAXOPENFILES=974 MAX_SUB_FILE_NUM=16
Maximum size of a physical file is 2.0 GB, maximum size of a tmp-file is 32.0 GB


--------------------------------------------------------------
User input:
--------------------------------------------------------------

$molecule
0,1
Cl         0.00000        0.00000        0.01854
F          0.00000        0.00000        1.59361
F          1.66516        0.00000        0.10758
F         -1.66516        0.00000        0.10758
$end

$comment
neutral
$end

$xc_functional
C PBE   1.00
X wPBE  1.00
$end


$rem
SYMMETRY_DECOMPOSITION	0
LRC_DFT                 true
exchange 		general
BASIS                   g3large
omega			1000
mem_static              760
max_scf_cycles          200
scf_final_print         1
sym_ignore              true
$end

--------------------------------------------------------------
 Writing REM_CC_EA            4
 ----------------------------------------------------
       Standard Nuclear Orientation (Angstroms)
    I     Atom         X            Y            Z
 ----------------------------------------------------
    1      Cl      0.000000     0.000000     0.018540
    2      F       0.000000     0.000000     1.593610
    3      F       1.665160     0.000000     0.107580
    4      F      -1.665160     0.000000     0.107580
 ----------------------------------------------------
 Nuclear Repulsion Energy =   199.7912942687 hartrees
 There are       22 alpha and       22 beta electrons
 Requested basis set is G3large
 There are 49 shells and 192 basis functions

Total QAlloc Memory Limit   2000 MB
Mega-Array Size       743 MB
MEM_STATIC part       760 MB

                       Distance Matrix (Angstroms)
             Cl(  1)   F (  2)   F (  3)
   F (  2)  1.575070
   F (  3)  1.667539  2.231825
   F (  4)  1.667539  2.231825  3.330320
 
 A cutoff of  1.0D-08 yielded   1013 shell pairs
 There are  16002 function pairs ( 21671 Cartesian)
Evaluating contribution to one-electron hamiltonian from nuclear
 Smallest overlap matrix eigenvalue = 1.54E-03
 Multipole matrices computed through 2nd order

  Scale SEOQF with 1.000000e-01/1.000000e-01/1.000000e-01

 Standard Electronic Orientation quadrupole field applied
 Nucleus-field energy     =    -0.0000000007 hartrees
 Guess from superposition of atomic densities
 Warning:  Energy on first SCF cycle will be non-variational
 Long-range K will be added via erf
 Coulomb attenuation parameter = 1 bohr**(-1)
 A restricted Kohn-Sham SCF calculation will be
 performed using Pulay DIIS extrapolation
 Exchange:  wPBE + LR-HF      Correlation:  PBE
 Using SG-1 standard quadrature grid
 SCF converges when DIIS error is below 1.0E-05
 Requested basis set is G3large
 There are 49 shells and 192 basis functions
 A cutoff of  1.0D-08 yielded   1013 shell pairs
 There are  16002 function pairs ( 21671 Cartesian)
 ---------------------------------------
  Cycle       Energy         DIIS Error
 ---------------------------------------
    1    -760.1354216828      2.75E-02
    2    -759.2335268524      6.79E-03
    3    -759.3219048015      5.15E-03
    4    -759.3908068939      7.05E-04
    5    -759.3935774117      2.67E-04
    6    -759.3945327550      1.09E-04
    7    -759.3947331325      5.40E-05
    8    -759.3947703715      2.21E-05
    9    -759.3947754038      5.68E-06 Convergence criterion met
 ---------------------------------------
 One-Electron    Energy = -1449.3412607517
 Total Coulomb   Energy =   549.5855725710
 Alpha Exchange  Energy =    -9.5755514061
 Beta  Exchange  Energy =    -9.5755514061
 DFT   Exchange  Energy =   -38.6570559941
 DFT Correlation Energy =    -1.6222226848
 Nuclear Repu.   Energy =   199.7912942680
 Nuclear Attr.   Energy = -2207.4237909381
 Kinetic         Energy =   758.0825301864
 SCF time:  CPU 74.90 s  wall 75.13 s
 Final Alpha MO Eigenvalues
            1           2           3           4           5           6
    1-101.4980332 -24.8789363 -24.7790928 -24.7789002  -9.9949467  -7.7739540
            7           8           9          10          11          12
    1  -7.7695564  -7.7503603  -1.6867266  -1.5422567  -1.5394047  -1.1708060
           13          14          15          16          17          18
    1  -0.8600493  -0.8475438  -0.8283516  -0.7605526  -0.7067301  -0.6858413
           19          20          21          22          23          24
    1  -0.6656603  -0.6524738  -0.5845664  -0.5479548  -0.0079988   0.0833398
           25          26          27
    1   0.0849162   0.1097174   0.1284700
 Analysis of SCF Wavefunction
 
 --------------------------------------------------------------
                    Orbital Energies (a.u.)
 --------------------------------------------------------------
 
 Alpha MOs
 -- Occupied --
******* -24.879 -24.779 -24.779  -9.995  -7.774  -7.770  -7.750
 -1.687  -1.542  -1.539  -1.171  -0.860  -0.848  -0.828  -0.761
 -0.707  -0.686  -0.666  -0.652  -0.585  -0.548
 -- Virtual --
 -0.008   0.083   0.085   0.110   0.128   0.155   0.275   0.281
  0.302   0.304   0.306   0.344   0.390   0.392   0.397   0.399
  0.427   0.435   0.471   0.491   0.504   0.522   0.556   0.591
  0.794   0.830   1.103   1.141   1.147   1.147   1.169   1.247
  1.251   1.317   1.319   1.330   1.392   1.410   1.474   1.480
  1.509   1.517   1.519   1.583   1.587   1.631   1.704   1.907
  2.083   2.114   2.159   2.186   2.211   2.229   2.237   2.337
  2.363   2.371   2.374   2.466   2.494   2.496   2.692   2.915
  3.003   3.023   3.058   3.225   3.816   4.457   4.476   4.513
  4.539   4.616   4.703   4.795   5.126   5.139   5.144   5.383
  5.548   6.377   6.406   6.464   6.484   6.485   6.538   6.546
  6.648   6.818   6.832   6.854   6.864   6.883   6.902   6.926
  6.929   6.930   6.931   6.949   6.953   6.963   6.964   6.981
  6.983   7.001   7.035   7.082   7.084   7.174   7.424   9.304
  9.332   9.360   9.416   9.422   9.422   9.474   9.519   9.568
  9.647   9.755   9.781   9.835  10.054  10.209  10.335  20.638
 20.869  21.473  27.248  27.251  27.265  27.315  27.548  36.868
 36.876  36.880  36.883  36.888  36.908  36.919  50.344  50.371
 50.424  50.428  50.439  50.453  50.471  50.483  50.510  50.584
 50.609  50.618  50.622  50.635  50.754  55.815  55.841  55.899
 55.911  55.930  55.963  55.965  56.013  56.224  66.882  66.938
 67.009 215.843
 --------------------------------------------------------------
 
          Ground-State Mulliken Net Atomic Charges

     Atom                 Charge (a.u.)
  ----------------------------------------
      1 Cl                    0.649020
      2 F                    -0.095642
      3 F                    -0.276716
      4 F                    -0.276663
  ----------------------------------------
  Sum of atomic charges =     0.000000

 -----------------------------------------------------------------
                    Cartesian Multipole Moments
 -----------------------------------------------------------------
    Charge (ESU x 10^10)
                 0.0000
    Dipole Moment (Debye)
         X      -0.0005      Y      -0.0001      Z      -0.6934
       Tot       0.6934
    Quadrupole Moments (Debye-Ang)
        XX     -33.2332     XY       0.0000     YY     -25.8489
        XZ       0.0000     YZ      -0.0003     ZZ     -25.7817
    Octapole Moments (Debye-Ang^2)
       XXX      -0.0006    XXY       0.0006    XYY       0.0003
       YYY      -0.0003    XXZ      -9.6915    XYZ       0.0000
       YYZ      -8.4626    XZZ       0.0002    YZZ       0.0012
       ZZZ     -27.2948
    Hexadecapole Moments (Debye-Ang^3)
      XXXX    -203.9169   XXXY      -0.0002   XXYY     -34.6842
      XYYY       0.0000   YYYY     -19.4910   XXXZ      -0.0001
      XXYZ       0.0000   XYYZ       0.0000   YYYZ      -0.0001
      XXZZ     -46.5208   XYZZ       0.0000   YYZZ     -18.3699
      XZZZ       0.0000   YZZZ       0.0015   ZZZZ     -88.6837
 -----------------------------------------------------------------
 Total job time:  75.36s(wall), 75.13s(cpu) 
 Sun Jul  7 08:40:52 2013

        *************************************************************
        *                                                           *
        *  Thank you very much for using Q-Chem.  Have a nice day.  *
        *                                                           *
        *************************************************************


0 sent ACK to 0 
now end server 0 ... 
 
**********************************************************************
Job 3 of 3 
**********************************************************************
 
Process 0 of 1 is on cl149.stfx.acenet.ca - thread support 1
initial socket setup ...start
initial socket setup ...done 
now start server 0 ... 

cmd = /usr/bin/ssh clhead /usr/local/qchem/bin/get_hostid 616925085 > /scratch/tmp/6063593.1.medium.q/qchem18063/lic.dat
                  Welcome to Q-Chem
     A Quantum Leap Into The Future Of Chemistry

 Y. Shao, L. Fusti-Molnar, Y. Jung, J. Kussmann, C. Ochsenfeld,
 S. T. Brown, A. T. B. Gilbert, L. V. Slipchenko,S. V. Levchenko,
 D. P. O'Neill, R. A. DiStasio Jr., R. C. Lochan, T. Wang,
 G. J. O. Beran, N. A. Besley, J. M. Herbert, C. Y. Lin,
 T. Van Voorhis, S. H. Chien, A. Sodt, R. P. Steele, 
 V. A. Rassolov, P. E. Maslen, P. P. Korambath, R. D. Adamson,
 B. Austin, J. Baker, E. F. C. Byrd, H. Dachsel, R. J. Doerksen,
 A. Dreuw, B. D. Dunietz, A. D. Dutoi, T. R. Furlani,
 S. R. Gwaltney, A. Heyden, S. Hirata, C.-P. Hsu, G. Kedziora,
 R. Z. Khaliullin, P. Klunzinger, A. M. Lee, M. S. Lee, W. Liang,
 I. Lotan, N. Nair, B. Peters, E. I. Proynov, P. A. Pieniazek, 
 Y. M. Rhee, J. Ritchie, E. Rosta, C. D. Sherrill, 
 A. C. Simmonett, J. E. Subotnik, H. L. Woodcock III,
 W. Zhang, A. T. Bell, A. K. Chakraborty, D. M. Chipman,
 F. J. Keil, A. Warshel, W. J. Hehre, H. F. Schaefer III,
 J. Kong, A. I. Krylov, P. M. W. Gill, M. Head-Gordon,
 Q-Chem, Version 3.1, Q-Chem, Inc., Pittsburgh, PA (2007).

 Additional authors for Version 3.1: 
 Z. Gan, Y. Zhao, N. E. Schultz, D. Truhlar, E. Epifanovsky and M. Oana.

 Additional authors for Version 3.2: 
 R. Baer, B. R. Brooks, D. Casanova, J.-D. Chai, C.-L. Cheng, 
 C. Cramer, D. Crittenden, A. Ghysels, G. Hawkins, E. G. Hohenstein, 
 C. Kelley, W. Kurlancheek, D. Liotard, E. Livshits, P. Manohar, 
 A. Marenich, D. Neuhauser, R. Olson, M. A. Rohrdanz, K. S. Thanthiriwatte, 
 A. J. W. Thom, V. Vanovschi, C. F. Williams, Q. Wu and Z.-Q. You. 


 Intel X86 Linux Version

 Q-chem begins on Sun Jul  7 08:40:55 2013  

 Parallel job on  1  processors
Processing $rem in /usr/local/qchem/config/preferences.

theFileMan(): MAXOPENFILES=974 MAX_SUB_FILE_NUM=16
Maximum size of a physical file is 2.0 GB, maximum size of a tmp-file is 32.0 GB


--------------------------------------------------------------
User input:
--------------------------------------------------------------

$molecule
1,2
Cl         0.00000        0.00000        0.01854
F          0.00000        0.00000        1.59361
F          1.66516        0.00000        0.10758
F         -1.66516        0.00000        0.10758
$end

$comment
positive
$end

$xc_functional
C PBE   1.00
X wPBE  1.00
$end

$rem
SYMMETRY_DECOMPOSITION	0
LRC_DFT                 true
exchange 		general
BASIS                   g3large
omega			1000
mem_static              760
max_scf_cycles          200
scf_final_print         1
sym_ignore              true
$end

--------------------------------------------------------------
 Writing REM_CC_EA            4
 ----------------------------------------------------
       Standard Nuclear Orientation (Angstroms)
    I     Atom         X            Y            Z
 ----------------------------------------------------
    1      Cl      0.000000     0.000000     0.018540
    2      F       0.000000     0.000000     1.593610
    3      F       1.665160     0.000000     0.107580
    4      F      -1.665160     0.000000     0.107580
 ----------------------------------------------------
 Nuclear Repulsion Energy =   199.7912942687 hartrees
 There are       22 alpha and       21 beta electrons
 Requested basis set is G3large
 There are 49 shells and 192 basis functions

Total QAlloc Memory Limit   2000 MB
Mega-Array Size       743 MB
MEM_STATIC part       760 MB

                       Distance Matrix (Angstroms)
             Cl(  1)   F (  2)   F (  3)
   F (  2)  1.575070
   F (  3)  1.667539  2.231825
   F (  4)  1.667539  2.231825  3.330320
 
 A cutoff of  1.0D-08 yielded   1013 shell pairs
 There are  16002 function pairs ( 21671 Cartesian)
Evaluating contribution to one-electron hamiltonian from nuclear
 Smallest overlap matrix eigenvalue = 1.54E-03
 Multipole matrices computed through 2nd order

  Scale SEOQF with 1.000000e-01/1.000000e-01/1.000000e-01

 Standard Electronic Orientation quadrupole field applied
 Nucleus-field energy     =    -0.0000000007 hartrees
 Guess from superposition of atomic densities
 Warning:  Energy on first SCF cycle will be non-variational
 Long-range K will be added via erf
 Coulomb attenuation parameter = 1 bohr**(-1)
 An unrestricted Kohn-Sham SCF calculation will be
 performed using Pulay DIIS extrapolation
 Exchange:  wPBE + LR-HF      Correlation:  PBE
 Using SG-1 standard quadrature grid
 SCF converges when DIIS error is below 1.0E-05
 Requested basis set is G3large
 There are 49 shells and 192 basis functions
 A cutoff of  1.0D-08 yielded   1013 shell pairs
 There are  16002 function pairs ( 21671 Cartesian)
 Warning!  Inaccurate integrated density:
   Number of electrons =    43
   Numerical integral  =    43.999580706626
   Relative error      =     2.3246062945 %
 ---------------------------------------
  Cycle       Energy         DIIS Error
 ---------------------------------------
    1    -760.1354216828      2.75E-02
    2    -758.5968350132      8.02E-03
    3    -758.7205836977      7.04E-03
    4    -758.8646400848      1.29E-03
    5    -758.8723491725      3.85E-04
    6    -758.8756136539      2.21E-04
    7    -758.8768931289      1.41E-04
    8    -758.8777781144      5.11E-05
    9    -758.8779671950      2.83E-05
   10    -758.8780070478      1.71E-05
   11    -758.8780295912      9.82E-06 Convergence criterion met
 ---------------------------------------
 One-Electron    Energy = -1434.6215125672
 Total Coulomb   Energy =   534.8334443691
 Alpha Exchange  Energy =    -9.6296651979
 Beta  Exchange  Energy =    -9.1458868163
 DFT   Exchange  Energy =   -38.5252580431
 DFT Correlation Energy =    -1.5804456038
 Nuclear Repu.   Energy =   199.7912942680
 Nuclear Attr.   Energy = -2191.7224287644
 Kinetic         Energy =   757.1009161972
 <S^2> = 0.7693
 SCF time:  CPU 113.43 s  wall 113.87 s
 Final Alpha MO Eigenvalues
            1           2           3           4           5           6
    1-101.9141688 -25.2001962 -25.1141673 -25.1127277 -10.3976736  -8.1723227
            7           8           9          10          11          12
    1  -8.1702844  -8.1669850  -2.0089188  -1.8620066  -1.8569847  -1.5244250
           13          14          15          16          17          18
    1  -1.1780585  -1.1747777  -1.1598311  -1.0641111  -1.0314320  -1.0111471
           19          20          21          22          23          24
    1  -0.9698677  -0.9586691  -0.9155438  -0.9008995  -0.3289822  -0.2274033
           25          26          27
    1  -0.1111200  -0.0707188  -0.0519216
 Final Beta MO Eigenvalues
            1           2           3           4           5           6
    1-101.9087950 -25.1977146 -25.1078071 -25.1067608 -10.3921772  -8.1692248
            7           8           9          10          11          12
    1  -8.1647759  -8.1528339  -1.9943213  -1.8440277  -1.8403837  -1.4659008
           13          14          15          16          17          18
    1  -1.1676623  -1.1577610  -1.0911532  -1.0604099  -0.9635756  -0.9565970
           19          20          21          22          23          24
    1  -0.9528883  -0.9188800  -0.8835652  -0.4834690  -0.3071468  -0.2104553
           25          26
    1  -0.1103240  -0.0659786
 Analysis of SCF Wavefunction
 
 --------------------------------------------------------------
                    Orbital Energies (a.u.)
 --------------------------------------------------------------
 
 Alpha MOs
 -- Occupied --
******* -25.200 -25.114 -25.113 -10.398  -8.172  -8.170  -8.167
 -2.009  -1.862  -1.857  -1.524  -1.178  -1.175  -1.160  -1.064
 -1.031  -1.011  -0.970  -0.959  -0.916  -0.901
 -- Virtual --
 -0.329  -0.227  -0.111  -0.071  -0.052  -0.038   0.037   0.047
  0.060   0.099   0.103   0.133   0.148   0.150   0.174   0.182
  0.198   0.204   0.233   0.252   0.285   0.290   0.292   0.351
  0.525   0.558   0.792   0.798   0.814   0.838   0.867   0.911
  0.947   0.991   1.011   1.013   1.124   1.156   1.190   1.218
  1.245   1.252   1.266   1.317   1.328   1.370   1.412   1.615
  1.802   1.803   1.824   1.896   1.920   1.932   1.938   2.040
  2.064   2.067   2.081   2.149   2.182   2.193   2.392   2.624
  2.694   2.709   2.752   2.913   3.514   4.080   4.085   4.137
  4.148   4.233   4.362   4.439   4.750   4.755   4.765   5.004
  5.203   6.071   6.101   6.140   6.160   6.173   6.234   6.235
  6.342   6.512   6.530   6.556   6.566   6.581   6.593   6.615
  6.619   6.620   6.621   6.637   6.645   6.647   6.657   6.668
  6.673   6.686   6.719   6.776   6.777   6.860   7.104   8.990
  9.016   9.034   9.089   9.096   9.101   9.161   9.189   9.253
  9.295   9.445   9.451   9.518   9.732   9.890   9.993  20.220
 20.475  21.079  26.838  26.840  26.872  26.900  27.155  36.467
 36.472  36.476  36.480  36.484  36.513  36.521  50.022  50.049
 50.086  50.091  50.105  50.130  50.134  50.155  50.170  50.259
 50.278  50.288  50.290  50.306  50.421  55.492  55.520  55.571
 55.574  55.590  55.636  55.637  55.685  55.892  66.562  66.605
 66.676 215.430
 
 Beta MOs
 -- Occupied --
******* -25.198 -25.108 -25.107 -10.392  -8.169  -8.165  -8.153
 -1.994  -1.844  -1.840  -1.466  -1.168  -1.158  -1.091  -1.060
 -0.964  -0.957  -0.953  -0.919  -0.884
 -- Virtual --
 -0.483  -0.307  -0.210  -0.110  -0.066  -0.052  -0.038   0.061
  0.064   0.089   0.099   0.103   0.133   0.161   0.168   0.175
  0.182   0.199   0.208   0.246   0.252   0.285   0.291   0.318
  0.358   0.527   0.558   0.801   0.839   0.841   0.842   0.872
  0.936   0.953   1.012   1.017   1.025   1.126   1.158   1.197
  1.225   1.255   1.263   1.269   1.331   1.332   1.372   1.418
  1.623   1.804   1.831   1.849   1.903   1.929   1.944   1.944
  2.053   2.072   2.077   2.086   2.155   2.190   2.206   2.400
  2.625   2.699   2.726   2.756   2.919   3.519   4.105   4.123
  4.163   4.187   4.265   4.363   4.452   4.764   4.766   4.769
  5.021   5.206   6.082   6.105   6.165   6.180   6.185   6.238
  6.240   6.345   6.518   6.534   6.561   6.567   6.585   6.601
  6.628   6.630   6.632   6.633   6.648   6.651   6.659   6.663
  6.678   6.682   6.693   6.731   6.780   6.780   6.866   7.108
  9.003   9.030   9.055   9.111   9.117   9.119   9.166   9.212
  9.263   9.305   9.449   9.473   9.524   9.741   9.900   9.998
 20.242  20.477  21.082  26.851  26.854  26.874  26.918  27.157
 36.469  36.477  36.479  36.484  36.487  36.515  36.523  50.030
 50.057  50.103  50.108  50.120  50.132  50.151  50.165  50.188
 50.262  50.290  50.296  50.297  50.311  50.429  55.499  55.522
 55.576  55.586  55.605  55.639  55.640  55.688  55.896  66.565
 66.612  66.683 215.436
 --------------------------------------------------------------
 
          Ground-State Mulliken Net Atomic Charges

     Atom                 Charge (a.u.)    Spin (a.u.)
  --------------------------------------------------------
      1 Cl                    0.999471       0.599757
      2 F                     0.087461       0.057598
      3 F                    -0.044587       0.166377
      4 F                    -0.042345       0.176269
  --------------------------------------------------------
  Sum of atomic charges =     1.000000
  Sum of spin   charges =     1.000000

 -----------------------------------------------------------------
                    Cartesian Multipole Moments
 -----------------------------------------------------------------
    Charge (ESU x 10^10)
                 4.8032
    Dipole Moment (Debye)
         X      -0.0125      Y       0.0223      Z       0.5552
       Tot       0.5558
    Quadrupole Moments (Debye-Ang)
        XX     -24.7259     XY       0.0015     YY     -22.7765
        XZ      -0.0019     YZ      -0.0253     ZZ     -21.6079
    Octapole Moments (Debye-Ang^2)
       XXX      -0.0456    XXY      -0.0809    XYY      -0.0063
       YYY       0.0184    XXZ      -8.4942    XYZ      -0.0003
       YYZ      -8.1540    XZZ      -0.0022    YZZ       0.0092
       ZZZ     -21.3974
    Hexadecapole Moments (Debye-Ang^3)
      XXXX    -164.0706   XXXY       0.0051   XXYY     -30.8711
      XYYY       0.0009   YYYY     -15.0972   XXXZ      -0.0029
      XXYZ      -0.0216   XYYZ      -0.0015   YYYZ      -0.0171
      XXZZ     -42.6261   XYZZ       0.0002   YYZZ     -16.3918
      XZZZ       0.0006   YZZZ      -0.0179   ZZZZ     -73.2557
 -----------------------------------------------------------------
 Total job time:  114.11s(wall), 113.66s(cpu) 
 Sun Jul  7 08:42:49 2013

        *************************************************************
        *                                                           *
        *  Thank you very much for using Q-Chem.  Have a nice day.  *
        *                                                           *
        *************************************************************


0 sent ACK to 0 
now end server 0 ... 
