Process 0 of 1 is on cl247.stfx.acenet.ca - thread support 1
initial socket setup ...start
initial socket setup ...done 
now start server 0 ... 

cmd = /usr/bin/ssh clhead /usr/local/qchem/bin/get_hostid 1319143032 > /scratch/tmp/4506621.1.long.q/qchem15257/lic.dat
                  Welcome to Q-Chem
     A Quantum Leap Into The Future Of Chemistry

 Y. Shao, L. Fusti-Molnar, Y. Jung, J. Kussmann, C. Ochsenfeld,
 S. T. Brown, A. T. B. Gilbert, L. V. Slipchenko,S. V. Levchenko,
 D. P. O'Neill, R. A. DiStasio Jr., R. C. Lochan, T. Wang,
 G. J. O. Beran, N. A. Besley, J. M. Herbert, C. Y. Lin,
 T. Van Voorhis, S. H. Chien, A. Sodt, R. P. Steele, 
 V. A. Rassolov, P. E. Maslen, P. P. Korambath, R. D. Adamson,
 B. Austin, J. Baker, E. F. C. Byrd, H. Dachsel, R. J. Doerksen,
 A. Dreuw, B. D. Dunietz, A. D. Dutoi, T. R. Furlani,
 S. R. Gwaltney, A. Heyden, S. Hirata, C.-P. Hsu, G. Kedziora,
 R. Z. Khaliullin, P. Klunzinger, A. M. Lee, M. S. Lee, W. Liang,
 I. Lotan, N. Nair, B. Peters, E. I. Proynov, P. A. Pieniazek, 
 Y. M. Rhee, J. Ritchie, E. Rosta, C. D. Sherrill, 
 A. C. Simmonett, J. E. Subotnik, H. L. Woodcock III,
 W. Zhang, A. T. Bell, A. K. Chakraborty, D. M. Chipman,
 F. J. Keil, A. Warshel, W. J. Hehre, H. F. Schaefer III,
 J. Kong, A. I. Krylov, P. M. W. Gill, M. Head-Gordon,
 Q-Chem, Version 3.1, Q-Chem, Inc., Pittsburgh, PA (2007).

 Additional authors for Version 3.1: 
 Z. Gan, Y. Zhao, N. E. Schultz, D. Truhlar, E. Epifanovsky and M. Oana.

 Additional authors for Version 3.2: 
 R. Baer, B. R. Brooks, D. Casanova, J.-D. Chai, C.-L. Cheng, 
 C. Cramer, D. Crittenden, A. Ghysels, G. Hawkins, E. G. Hohenstein, 
 C. Kelley, W. Kurlancheek, D. Liotard, E. Livshits, P. Manohar, 
 A. Marenich, D. Neuhauser, R. Olson, M. A. Rohrdanz, K. S. Thanthiriwatte, 
 A. J. W. Thom, V. Vanovschi, C. F. Williams, Q. Wu and Z.-Q. You. 


 Intel X86 Linux Version

 Q-chem begins on Sat Apr 23 13:49:21 2011  

 Parallel job on  1  processors
Processing $rem in /usr/local/qchem/config/preferences.

theFileMan(): MAXOPENFILES=974 MAX_SUB_FILE_NUM=16
Maximum size of a physical file is 2.0 GB, maximum size of a tmp-file is 32.0 GB


--------------------------------------------------------------
User input:
--------------------------------------------------------------

$molecule
0,1
C
C,1,R1
H,1,R2,2,THETA1
H,1,R3,2,THETA2,3,180.,0
H,2,R4,1,THETA3,4,0.,0
C,2,R5,1,THETA4,5,180.,0
H,6,R6,2,THETA5,5,180.,0
X,6,1.,2,THETA6,5,0.,0
H,6,R7,8,THETA7,2,90.,0
H,6,R7,8,THETA7,2,-90.,0

 R1=1.33337529
 R2=1.08851751
 R3=1.08675279
 R4=1.09114675
 R5=1.50216239
 R6=1.09522828
 R7=1.09843254
 THETA1=121.64706661
 THETA2=121.8195312
 THETA3=118.84981094
 THETA4=125.21285063
 THETA5=111.49386433
 THETA6=127.20106315
 THETA7=53.28528043

$end

$comment
neutral
$end

$xc_functional
   X HF 1.0
   X BNL 1.0
   C LYP 1.0
$end

$rem
SYMMETRY_DECOMPOSITION	0
exchange 		general
BASIS                   g3large
omega			360 
JOBTYPE                 opt
separate_jk		true
mem_static              760
max_scf_cycles          200
scf_final_print         1
sym_ignore              true
$end


--------------------------------------------------------------
 Writing REM_CC_EA            9
 ----------------------------------------------------
       Standard Nuclear Orientation (Angstroms)
    I     Atom         X            Y            Z
 ----------------------------------------------------
    1      C       0.000000     0.000000     0.000000
    2      C       0.000000     0.000000     1.333375
    3      H       0.926651     0.000000    -0.571129
    4      H      -0.923428     0.000000    -0.572985
    5      H      -0.955722     0.000000     1.859870
    6      C       1.227290     0.000000     2.199546
    7      H       2.142760     0.000000     1.598347
    8      H       1.250073     0.880528     2.855827
    9      H       1.250073    -0.880528     2.855827
 ----------------------------------------------------
 Nuclear Repulsion Energy =    70.5797413188 hartrees
 There are       12 alpha and       12 beta electrons
 Requested basis set is G3large
 There are 66 shells and 186 basis functions

Total QAlloc Memory Limit   2000 MB
Mega-Array Size       743 MB
MEM_STATIC part       760 MB
 A cutoff of  1.0D-11 yielded   2144 shell pairs
 There are  17130 function pairs ( 20691 Cartesian)
Evaluating contribution to one-electron hamiltonian from nuclear
 Smallest overlap matrix eigenvalue = 4.60E-05
 Multipole matrices computed through 2nd order

  Scale SEOQF with 1.000000e-01/1.000000e-01/1.000000e-01

 Standard Electronic Orientation quadrupole field applied
 Nucleus-field energy     =    -0.0000000059 hartrees
 Guess from superposition of atomic densities
 Warning:  Energy on first SCF cycle will be non-variational
 A restricted hybrid HF-DFT SCF calculation will be
 performed using Pulay DIIS extrapolation
 Exchange:     1.0000 Hartree-Fock + 1.0000 BNL
 Correlation:  1.0000 LYP
 Using SG-1 standard quadrature grid
 SCF converges when DIIS error is below 1.0E-08
 ---------------------------------------
  Cycle       Energy         DIIS Error
 ---------------------------------------
    1    -117.1186595458      3.19E-02
    2    -116.4132077728      3.03E-03
    3    -116.4428343490      1.93E-03
    4    -116.4586734165      2.41E-04
    5    -116.4593201099      5.77E-05
    6    -116.4593749613      2.20E-05
    7    -116.4593798970      1.35E-05
    8    -116.4593810952      2.65E-06
    9    -116.4593811301      7.27E-07
   10    -116.4593811463      3.12E-07
   11    -116.4593811807      6.37E-08
   12    -116.4593811787      1.17E-08
   13    -116.4593811781      2.57E-09 Convergence criterion met
 ---------------------------------------
 One-Electron    Energy =  -296.4390361925
 Total Coulomb   Energy =   126.2958241062
 Alpha Exchange  Energy =    -2.1620530699
 Beta  Exchange  Energy =    -2.1620530699
 DFT   Exchange  Energy =   -11.8140127797
 DFT Correlation Energy =    -0.7577914852
 Nuclear Repu.   Energy =    70.5797413129
 Nuclear Attr.   Energy =  -412.1421323998
 Kinetic         Energy =   115.7030962073
 SCF time:  CPU 136.63 s  wall 137.97 s
 Final Alpha MO Eigenvalues
            1           2           3           4           5           6
    1  -9.9585776  -9.9449515  -9.9405470  -0.9044874  -0.8003925  -0.6655754
            7           8           9          10          11          12
    1  -0.5798208  -0.5301719  -0.5225614  -0.4742573  -0.4451621  -0.3647309
           13          14          15          16          17
    1   0.0329147   0.0508305   0.0525696   0.0642079   0.0741535
 Analysis of SCF Wavefunction
 
 --------------------------------------------------------------
                    Orbital Energies (a.u.)
 --------------------------------------------------------------
 
 Alpha MOs
 -- Occupied --
 -9.959  -9.945  -9.941  -0.904  -0.800  -0.666  -0.580  -0.530
 -0.523  -0.474  -0.445  -0.365
 -- Virtual --
  0.033   0.051   0.053   0.064   0.074   0.079   0.087   0.123
  0.134   0.144   0.145   0.157   0.167   0.186   0.186   0.192
  0.198   0.209   0.217   0.257   0.262   0.274   0.290   0.336
  0.358   0.423   0.456   0.506   0.519   0.541   0.561   0.596
  0.602   0.622   0.625   0.642   0.645   0.656   0.683   0.725
  0.738   0.738   0.758   0.775   0.791   0.830   0.859   0.879
  0.913   0.960   1.017   1.031   1.037   1.106   1.111   1.182
  1.203   1.223   1.257   1.258   1.304   1.323   1.339   1.393
  1.408   1.442   1.488   1.509   1.533   1.537   1.583   1.615
  1.616   1.623   1.662   1.729   1.818   1.972   2.493   2.494
  2.615   2.657   2.706   2.766   2.771   2.777   2.837   2.851
  2.915   2.950   2.961   2.966   3.051   3.112   3.128   3.172
  3.191   3.199   3.236   3.249   3.281   3.310   3.330   3.361
  3.370   3.401   3.457   3.464   3.491   3.537   3.599   3.680
  3.731   3.761   3.767   3.812   3.873   3.912   3.926   3.975
  4.009   4.101   4.146   4.199   4.238   4.275   4.326   4.337
  4.347   4.407   4.458   4.512   4.579   4.590   4.654   4.731
  4.760   4.826   4.889   5.209   5.297   5.529   5.613   5.730
  5.733   5.751   6.060  24.081  24.424  24.865  27.332  27.536
 27.841  28.162  28.180  28.239  28.288  28.412  28.615  40.833
 40.916  40.938  40.962  41.005  41.193  41.201  41.235  41.252
 41.274  41.304  41.305  41.330  41.369  41.423
 --------------------------------------------------------------
 
          Ground-State Mulliken Net Atomic Charges

     Atom                 Charge (a.u.)
  ----------------------------------------
      1 C                    -0.424166
      2 C                     0.082246
      3 H                     0.123813
      4 H                     0.115461
      5 H                     0.157632
      6 C                    -0.406545
      7 H                     0.124779
      8 H                     0.113390
      9 H                     0.113390
  ----------------------------------------
  Sum of atomic charges =     0.000000

 -----------------------------------------------------------------
                    Cartesian Multipole Moments
 -----------------------------------------------------------------
    Charge (ESU x 10^10)
                 0.0000
    Dipole Moment (Debye)
         X       0.1623      Y       0.0000      Z       0.4087
       Tot       0.4397
    Quadrupole Moments (Debye-Ang)
        XX     -19.4873     XY       0.0000     YY     -22.4831
        XZ       0.2118     YZ       0.0000     ZZ     -18.4492
    Octapole Moments (Debye-Ang^2)
       XXX     -28.2192    XXY       0.0000    XYY      -9.0698
       YYY       0.0000    XXZ     -24.8603    XYZ       0.0000
       YYZ     -24.6125    XZZ      -9.1050    YZZ       0.0000
       ZZZ     -69.8338
    Hexadecapole Moments (Debye-Ang^3)
      XXXX    -118.9647   XXXY       0.0000   XXYY     -26.9166
      XYYY       0.0000   YYYY     -35.1313   XXXZ     -66.4075
      XXYZ       0.0000   XYYZ     -19.8766   YYYZ       0.0000
      XXZZ     -76.4512   XYZZ       0.0000   YYZZ     -59.3361
      XZZZ     -63.1160   YZZZ       0.0000   ZZZZ    -333.0132
 -----------------------------------------------------------------
 Calculating analytic gradient of the SCF energy
 Gradient of AOints
            1           2           3           4           5           6
    1   0.8799627   2.1663380  -2.4469215   2.5994453   2.8173206  -2.6135605
    2   0.0000006   0.0000003  -0.0000001  -0.0000001  -0.0000001  -0.0000004
    3   7.7683985  -4.9593143   1.8955516   1.8244342  -1.5012318  -2.2667372
            7           8           9
    1  -2.7421481  -0.3302184  -0.3302183
    2  -0.0000001  -2.2291113   2.2291114
    3   1.2675672  -2.0143340  -2.0143342
 Gradient of XC Energy
            1           2           3           4           5           6
    1   0.0024524   0.0040467   0.1360770  -0.1403801  -0.1368028  -0.0094652
    2  -0.0000000  -0.0000000   0.0000000   0.0000000   0.0000000   0.0000000
    3  -0.1355181   0.1438273  -0.0818223  -0.0855921   0.0737526  -0.0242756
            7           8           9
    1   0.1334981   0.0052869   0.0052869
    2   0.0000000   0.1250667  -0.1250667
    3  -0.0858277   0.0977279   0.0977279
 Gradient of SCF Energy
            1           2           3           4           5           6
    1  -0.0004222  -0.0109392  -0.0045605   0.0042261   0.0037538   0.0086994
    2  -0.0000000  -0.0000000  -0.0000000   0.0000000   0.0000000   0.0000000
    3  -0.0207105   0.0128824   0.0010361   0.0009709  -0.0013846   0.0067612
            7           8           9
    1  -0.0019923   0.0006175   0.0006175
    2   0.0000000  -0.0017097   0.0017097
    3   0.0020906  -0.0008230  -0.0008230
 Max gradient component =       2.071E-02
 RMS gradient           =       5.803E-03
 Gradient time:  CPU 49.93 s  wall 50.22 s
 Geometry Optimization Parameters
   NAtoms,    NIC,     NZ,  NCons,   NDum,   NFix, NCnnct, MaxDiis
        9      48      10       0       0       0       0       0


** GEOMETRY OPTIMIZATION IN DELOCALIZED INTERNAL COORDINATES **
   Searching for a Minimum

   Optimization Cycle:   1

                       Coordinates (Angstroms)
     ATOM              X           Y           Z
    1  C           0.000000    0.000000    0.000000
    2  C           0.000000    0.000000    1.333375
    3  H           0.926651    0.000000   -0.571129
    4  H          -0.923428    0.000000   -0.572985
    5  H          -0.955722    0.000000    1.859870
    6  C           1.227290    0.000000    2.199546
    7  H           2.142760    0.000000    1.598347
    8  H           1.250073    0.880528    2.855827
    9  H           1.250073   -0.880528    2.855827
   Point Group: c1    Number of degrees of freedom:  21


   Energy is   -116.459381178


 Attempting to Generate Delocalized Internal Coordinates

 16 Hessian modes will be used to form the next step
  Hessian Eigenvalues:
     0.073102    0.160000    0.160000    0.160000    0.160000    0.160000
     0.160000    0.220000    0.321515    0.338561    0.338561    0.342154
     0.346805    0.349845    0.351906    0.587155

 Minimum Search - Taking Simple RFO Step
 Searching for Lamda that Minimizes Along All modes
 Value Taken    Lamda =  -0.00122228
 Step Taken.  Stepsize is  0.056006

                             Maximum     Tolerance    Cnvgd?
         Gradient           0.013119      0.000300      NO
         Displacement       0.034035      0.001200      NO
         Energy change     *********      0.000001      NO


 New Cartesian Coordinates Obtained by Inverse Iteration

 Displacement from previous Coordinates is:  0.107132
 Writing REM_CC_EA            9
 ----------------------------------------------------
       Standard Nuclear Orientation (Angstroms)
    I     Atom         X            Y            Z
 ----------------------------------------------------
    1      C       0.008865     0.000000     0.018701
    2      C       0.003584     0.000000     1.335247
    3      H       0.947434     0.000000    -0.545690
    4      H      -0.920607     0.000000    -0.556198
    5      H      -0.959331     0.000000     1.861135
    6      C       1.220377     0.000000     2.185991
    7      H       2.134760     0.000000     1.575307
    8      H       1.241307     0.884299     2.842093
    9      H       1.241307    -0.884299     2.842093
 ----------------------------------------------------
 Nuclear Repulsion Energy =    71.0770931302 hartrees
 There are       12 alpha and       12 beta electrons
 Applying Cartesian multipole field
    Component          Value
    ---------          -----
     (2,0,0)        1.00000E-11
     (0,2,0)        2.00000E-11
     (0,0,2)       -3.00000E-11
 Nucleus-field energy     =    -0.0000000059 hartrees
 Requested basis set is G3large
 There are 66 shells and 186 basis functions
 A cutoff of  1.0D-11 yielded   2146 shell pairs
 There are  17154 function pairs ( 20715 Cartesian)
Evaluating contribution to one-electron hamiltonian from nuclear
 Smallest overlap matrix eigenvalue = 4.26E-05
 Multipole matrices computed through 2nd order
 Guess MOs from SCF MO coefficient file
Reading MOs from coefficient file
Reading MOs from coefficient file
 A restricted hybrid HF-DFT SCF calculation will be
 performed using Pulay DIIS extrapolation
 Exchange:     1.0000 Hartree-Fock + 1.0000 BNL
 Correlation:  1.0000 LYP
 Using SG-1 standard quadrature grid
 SCF converges when DIIS error is below 1.0E-08
 ---------------------------------------
  Cycle       Energy         DIIS Error
 ---------------------------------------
    1    -116.4480094079      6.66E-04
    2    -116.4599113829      7.81E-05
    3    -116.4599288659      5.42E-05
    4    -116.4599392006      1.27E-05
    5    -116.4599398076      3.18E-06
    6    -116.4599399169      1.40E-06
    7    -116.4599399948      1.75E-07
    8    -116.4599400066      5.35E-08
    9    -116.4599400118      1.67E-08
   10    -116.4599400151      4.13E-09 Convergence criterion met
 ---------------------------------------
 One-Electron    Energy =  -297.4335263428
 Total Coulomb   Energy =   126.8030675449
 Alpha Exchange  Energy =    -2.1624917409
 Beta  Exchange  Energy =    -2.1624917409
 DFT   Exchange  Energy =   -11.8230102950
 DFT Correlation Energy =    -0.7585805647
 Nuclear Repu.   Energy =    71.0770931243
 Nuclear Attr.   Energy =  -413.1845799518
 Kinetic         Energy =   115.7510536090
 SCF time:  CPU 106.08 s  wall 107.14 s
 Final Alpha MO Eigenvalues
            1           2           3           4           5           6
    1  -9.9546875  -9.9442326  -9.9384541  -0.9089683  -0.8002757  -0.6628533
            7           8           9          10          11          12
    1  -0.5817018  -0.5305581  -0.5241449  -0.4725977  -0.4439425  -0.3662798
           13          14          15          16          17
    1   0.0330074   0.0506970   0.0527109   0.0641619   0.0742967
 Analysis of SCF Wavefunction
 
 --------------------------------------------------------------
                    Orbital Energies (a.u.)
 --------------------------------------------------------------
 
 Alpha MOs
 -- Occupied --
 -9.955  -9.944  -9.938  -0.909  -0.800  -0.663  -0.582  -0.531
 -0.524  -0.473  -0.444  -0.366
 -- Virtual --
  0.033   0.051   0.053   0.064   0.074   0.081   0.087   0.123
  0.134   0.145   0.146   0.157   0.167   0.185   0.186   0.192
  0.198   0.209   0.216   0.257   0.261   0.274   0.290   0.339
  0.360   0.425   0.459   0.507   0.518   0.543   0.559   0.595
  0.601   0.625   0.626   0.641   0.644   0.656   0.683   0.729
  0.737   0.740   0.761   0.779   0.792   0.835   0.860   0.876
  0.920   0.957   1.010   1.036   1.037   1.103   1.111   1.184
  1.204   1.227   1.262   1.263   1.307   1.329   1.343   1.394
  1.416   1.442   1.490   1.508   1.531   1.537   1.579   1.614
  1.615   1.629   1.660   1.731   1.817   1.977   2.500   2.503
  2.624   2.663   2.715   2.763   2.770   2.776   2.846   2.852
  2.924   2.942   2.962   2.967   3.051   3.111   3.128   3.191
  3.192   3.194   3.233   3.252   3.287   3.311   3.327   3.373
  3.374   3.405   3.457   3.470   3.486   3.546   3.607   3.679
  3.744   3.771   3.781   3.821   3.865   3.914   3.930   3.982
  4.012   4.097   4.150   4.202   4.244   4.283   4.322   4.337
  4.354   4.419   4.464   4.525   4.591   4.598   4.662   4.741
  4.766   4.873   4.916   5.220   5.301   5.535   5.623   5.716
  5.718   5.741   6.078  24.064  24.433  24.928  27.339  27.549
 27.881  28.164  28.182  28.246  28.328  28.409  28.601  40.832
 40.917  40.939  40.963  41.008  41.194  41.204  41.238  41.254
 41.296  41.302  41.322  41.329  41.376  41.439
 --------------------------------------------------------------
 
          Ground-State Mulliken Net Atomic Charges

     Atom                 Charge (a.u.)
  ----------------------------------------
      1 C                    -0.423735
      2 C                     0.091223
      3 H                     0.119414
      4 H                     0.113136
      5 H                     0.154126
      6 C                    -0.399573
      7 H                     0.121599
      8 H                     0.111906
      9 H                     0.111906
  ----------------------------------------
  Sum of atomic charges =     0.000000

 -----------------------------------------------------------------
                    Cartesian Multipole Moments
 -----------------------------------------------------------------
    Charge (ESU x 10^10)
                 0.0000
    Dipole Moment (Debye)
         X       0.1499      Y       0.0000      Z       0.4123
       Tot       0.4387
    Quadrupole Moments (Debye-Ang)
        XX     -19.5069     XY       0.0000     YY     -22.4127
        XZ       0.1433     YZ       0.0000     ZZ     -18.5744
    Octapole Moments (Debye-Ang^2)
       XXX     -28.4290    XXY       0.0000    XYY      -9.1065
       YYY       0.0000    XXZ     -25.0501    XYZ       0.0000
       YYZ     -24.5853    XZZ      -9.3667    YZZ       0.0000
       ZZZ     -70.2198
    Hexadecapole Moments (Debye-Ang^3)
      XXXX    -118.7084   XXXY       0.0000   XXYY     -26.8271
      XYYY       0.0000   YYYY     -34.9483   XXXZ     -66.0425
      XXYZ       0.0000   XYYZ     -19.6253   YYYZ       0.0000
      XXZZ     -76.4594   XYZZ       0.0000   YYZZ     -58.7836
      XZZZ     -63.0726   YZZZ       0.0000   ZZZZ    -331.4060
 -----------------------------------------------------------------
 Calculating analytic gradient of the SCF energy
 Gradient of AOints
            1           2           3           4           5           6
    1   0.8519436   2.2247655  -2.4901353   2.6257303   2.8539431  -2.7134948
    2   0.0000001  -0.0000001  -0.0000000  -0.0000000  -0.0000000  -0.0000000
    3   7.8890933  -5.0720787   1.8587891   1.7965960  -1.4890597  -2.2756041
            7           8           9
    1  -2.7427822  -0.3049851  -0.3049851
    2   0.0000000  -2.2522942   2.2522942
    3   1.3051176  -2.0064268  -2.0064267
 Gradient of XC Energy
            1           2           3           4           5           6
    1   0.0039162   0.0012838   0.1370244  -0.1406775  -0.1373431  -0.0051837
    2  -0.0000000   0.0000000   0.0000000   0.0000000   0.0000000   0.0000000
    3  -0.1405942   0.1481363  -0.0792709  -0.0840089   0.0727863  -0.0238573
            7           8           9
    1   0.1325410   0.0042195   0.0042195
    2  -0.0000000   0.1255251  -0.1255251
    3  -0.0871378   0.0969733   0.0969733
 Gradient of SCF Energy
            1           2           3           4           5           6
    1   0.0010098  -0.0009214  -0.0001110  -0.0000878   0.0002906   0.0006739
    2  -0.0000000  -0.0000000   0.0000000   0.0000000   0.0000000  -0.0000000
    3   0.0025646  -0.0017444  -0.0000756   0.0001978  -0.0000857  -0.0000634
            7           8           9
    1  -0.0001163  -0.0003689  -0.0003689
    2   0.0000000   0.0000731  -0.0000731
    3  -0.0000847  -0.0003542  -0.0003542
 Max gradient component =       2.565E-03
 RMS gradient           =       6.847E-04
 Gradient time:  CPU 49.72 s  wall 50.01 s
 Geometry Optimization Parameters
   NAtoms,    NIC,     NZ,  NCons,   NDum,   NFix, NCnnct, MaxDiis
        9      48      10       0       0       0       0       0

 Cartesian Hessian Update
 Hessian Updated using BFGS Update


** GEOMETRY OPTIMIZATION IN DELOCALIZED INTERNAL COORDINATES **
   Searching for a Minimum

   Optimization Cycle:   2

                       Coordinates (Angstroms)
     ATOM              X           Y           Z
    1  C           0.008865    0.000000    0.018701
    2  C           0.003584    0.000000    1.335247
    3  H           0.947434    0.000000   -0.545690
    4  H          -0.920607    0.000000   -0.556198
    5  H          -0.959331    0.000000    1.861135
    6  C           1.220377    0.000000    2.185991
    7  H           2.134760    0.000000    1.575307
    8  H           1.241307    0.884299    2.842093
    9  H           1.241307   -0.884299    2.842093
   Point Group: c1    Number of degrees of freedom:  21


   Energy is   -116.459940015

 Hessian Updated using BFGS Update

 11 Hessian modes will be used to form the next step
  Hessian Eigenvalues:
     0.073103    0.158193    0.163062    0.222500    0.322536    0.336623
     0.341251    0.344499    0.349147    0.351493    0.644628

 Minimum Search - Taking Simple RFO Step
 Searching for Lamda that Minimizes Along All modes
 Value Taken    Lamda =  -0.00002327
 Step Taken.  Stepsize is  0.008770

                             Maximum     Tolerance    Cnvgd?
         Gradient           0.002109      0.000300      NO
         Displacement       0.006193      0.001200      NO
         Energy change     -0.000559      0.000001      NO


 New Cartesian Coordinates Obtained by Inverse Iteration

 Displacement from previous Coordinates is:  0.015946
 Writing REM_CC_EA            9
 ----------------------------------------------------
       Standard Nuclear Orientation (Angstroms)
    I     Atom         X            Y            Z
 ----------------------------------------------------
    1      C       0.006976     0.000000     0.015980
    2      C       0.004127     0.000000     1.334565
    3      H       0.945722     0.000000    -0.548414
    4      H      -0.922398     0.000000    -0.559270
    5      H      -0.959324     0.000000     1.860458
    6      C       1.220346     0.000000     2.187463
    7      H       2.135581     0.000000     1.577858
    8      H       1.243333     0.883489     2.845020
    9      H       1.243333    -0.883489     2.845020
 ----------------------------------------------------
 Nuclear Repulsion Energy =    71.0109553391 hartrees
 There are       12 alpha and       12 beta electrons
 Applying Cartesian multipole field
    Component          Value
    ---------          -----
     (2,0,0)        1.00000E-11
     (0,2,0)        2.00000E-11
     (0,0,2)       -3.00000E-11
 Nucleus-field energy     =    -0.0000000059 hartrees
 Requested basis set is G3large
 There are 66 shells and 186 basis functions
 A cutoff of  1.0D-11 yielded   2146 shell pairs
 There are  17154 function pairs ( 20715 Cartesian)
Evaluating contribution to one-electron hamiltonian from nuclear
 Smallest overlap matrix eigenvalue = 4.29E-05
 Multipole matrices computed through 2nd order
 Guess MOs from SCF MO coefficient file
Reading MOs from coefficient file
Reading MOs from coefficient file
 A restricted hybrid HF-DFT SCF calculation will be
 performed using Pulay DIIS extrapolation
 Exchange:     1.0000 Hartree-Fock + 1.0000 BNL
 Correlation:  1.0000 LYP
 Using SG-1 standard quadrature grid
 SCF converges when DIIS error is below 1.0E-08
 ---------------------------------------
  Cycle       Energy         DIIS Error
 ---------------------------------------
    1    -116.4607747650      7.73E-05
    2    -116.4599519654      7.25E-06
    3    -116.4599521372      4.57E-06
    4    -116.4599521181      1.27E-06
    5    -116.4599521681      3.58E-07
    6    -116.4599521656      1.32E-07
    7    -116.4599521508      1.61E-08
    8    -116.4599521517      5.23E-09 Convergence criterion met
 ---------------------------------------
 One-Electron    Energy =  -297.3021224282
 Total Coulomb   Energy =   126.7353017257
 Alpha Exchange  Energy =    -2.1623504032
 Beta  Exchange  Energy =    -2.1623504032
 DFT   Exchange  Energy =   -11.8209417508
 DFT Correlation Energy =    -0.7584442252
 Nuclear Repu.   Energy =    71.0109553332
 Nuclear Attr.   Energy =  -413.0429211566
 Kinetic         Energy =   115.7407987284
 SCF time:  CPU 83.95 s  wall 84.74 s
 Final Alpha MO Eigenvalues
            1           2           3           4           5           6
    1  -9.9552072  -9.9444889  -9.9389111  -0.9085020  -0.8002929  -0.6629188
            7           8           9          10          11          12
    1  -0.5815769  -0.5304221  -0.5237615  -0.4729254  -0.4439093  -0.3660487
           13          14          15          16          17
    1   0.0329960   0.0506930   0.0526910   0.0641376   0.0742584
 Analysis of SCF Wavefunction
 
 --------------------------------------------------------------
                    Orbital Energies (a.u.)
 --------------------------------------------------------------
 
 Alpha MOs
 -- Occupied --
 -9.955  -9.944  -9.939  -0.909  -0.800  -0.663  -0.582  -0.530
 -0.524  -0.473  -0.444  -0.366
 -- Virtual --
  0.033   0.051   0.053   0.064   0.074   0.081   0.087   0.123
  0.134   0.145   0.145   0.157   0.167   0.186   0.186   0.192
  0.198   0.209   0.216   0.257   0.261   0.274   0.290   0.339
  0.360   0.425   0.459   0.506   0.518   0.543   0.559   0.595
  0.600   0.625   0.626   0.641   0.644   0.656   0.683   0.728
  0.737   0.740   0.760   0.779   0.792   0.835   0.860   0.876
  0.919   0.957   1.010   1.035   1.037   1.104   1.111   1.183
  1.204   1.226   1.261   1.262   1.307   1.328   1.342   1.394
  1.415   1.442   1.489   1.508   1.532   1.537   1.578   1.613
  1.615   1.627   1.659   1.731   1.818   1.978   2.499   2.502
  2.624   2.664   2.715   2.764   2.770   2.776   2.845   2.852
  2.922   2.943   2.962   2.966   3.051   3.110   3.128   3.191
  3.191   3.195   3.233   3.251   3.286   3.311   3.329   3.371
  3.373   3.405   3.457   3.469   3.487   3.545   3.606   3.678
  3.742   3.770   3.778   3.819   3.865   3.914   3.928   3.981
  4.009   4.097   4.148   4.202   4.241   4.280   4.322   4.336
  4.353   4.417   4.460   4.522   4.589   4.594   4.665   4.740
  4.765   4.867   4.911   5.217   5.299   5.532   5.620   5.715
  5.718   5.741   6.074  24.064  24.431  24.919  27.338  27.548
 27.879  28.163  28.181  28.244  28.322  28.408  28.602  40.832
 40.917  40.938  40.962  41.007  41.194  41.204  41.238  41.254
 41.294  41.300  41.319  41.329  41.375  41.437
 --------------------------------------------------------------
 
          Ground-State Mulliken Net Atomic Charges

     Atom                 Charge (a.u.)
  ----------------------------------------
      1 C                    -0.423683
      2 C                     0.091638
      3 H                     0.119407
      4 H                     0.113568
      5 H                     0.153872
      6 C                    -0.400791
      7 H                     0.121820
      8 H                     0.112084
      9 H                     0.112084
  ----------------------------------------
  Sum of atomic charges =     0.000000

 -----------------------------------------------------------------
                    Cartesian Multipole Moments
 -----------------------------------------------------------------
    Charge (ESU x 10^10)
                 0.0000
    Dipole Moment (Debye)
         X       0.1530      Y       0.0000      Z       0.4140
       Tot       0.4414
    Quadrupole Moments (Debye-Ang)
        XX     -19.5029     XY       0.0000     YY     -22.4285
        XZ       0.1697     YZ       0.0000     ZZ     -18.5516
    Octapole Moments (Debye-Ang^2)
       XXX     -28.3974    XXY       0.0000    XYY      -9.1014
       YYY       0.0000    XXZ     -25.0120    XYZ       0.0000
       YYZ     -24.5921    XZZ      -9.2836    YZZ       0.0000
       ZZZ     -70.1053
    Hexadecapole Moments (Debye-Ang^3)
      XXXX    -118.7533   XXXY       0.0000   XXYY     -26.8422
      XYYY       0.0000   YYYY     -34.9843   XXXZ     -66.0611
      XXYZ       0.0000   XYYZ     -19.6572   YYYZ       0.0000
      XXZZ     -76.3968   XYZZ       0.0000   YYZZ     -58.8708
      XZZZ     -62.8953   YZZZ       0.0000   ZZZZ    -331.3990
 -----------------------------------------------------------------
 Calculating analytic gradient of the SCF energy
 Gradient of AOints
            1           2           3           4           5           6
    1   0.8755311   2.1988093  -2.4882742   2.6244352   2.8488670  -2.6871415
    2  -0.0000000  -0.0000000   0.0000000  -0.0000000   0.0000000   0.0000000
    3   7.8839931  -5.0493363   1.8547284   1.8012616  -1.4874489  -2.2781595
            7           8           9
    1  -2.7412892  -0.3154688  -0.3154689
    2  -0.0000000  -2.2443158   2.2443158
    3   1.3001615  -2.0126000  -2.0125999
 Gradient of XC Energy
            1           2           3           4           5           6
    1   0.0029982   0.0021508   0.1370190  -0.1406392  -0.1372032  -0.0063187
    2   0.0000000   0.0000000  -0.0000000   0.0000000  -0.0000000  -0.0000000
    3  -0.1404628   0.1473993  -0.0791713  -0.0842289   0.0727346  -0.0238982
            7           8           9
    1   0.1325744   0.0047093   0.0047093
    2  -0.0000000   0.1252210  -0.1252210
    3  -0.0869322   0.0972797   0.0972797
 Gradient of SCF Energy
            1           2           3           4           5           6
    1   0.0002323  -0.0003387  -0.0000238  -0.0000885   0.0000478   0.0003847
    2   0.0000000   0.0000000  -0.0000000  -0.0000000   0.0000000  -0.0000000
    3   0.0001236  -0.0001696  -0.0000509  -0.0000715   0.0000309   0.0002743
            7           8           9
    1  -0.0000811  -0.0000663  -0.0000663
    2  -0.0000000   0.0000314  -0.0000314
    3  -0.0000451  -0.0000459  -0.0000459
 Max gradient component =       3.847E-04
 RMS gradient           =       1.332E-04
 Gradient time:  CPU 50.18 s  wall 50.53 s
 Geometry Optimization Parameters
   NAtoms,    NIC,     NZ,  NCons,   NDum,   NFix, NCnnct, MaxDiis
        9      48      10       0       0       0       0       0

 Cartesian Hessian Update
 Hessian Updated using BFGS Update


** GEOMETRY OPTIMIZATION IN DELOCALIZED INTERNAL COORDINATES **
   Searching for a Minimum

   Optimization Cycle:   3

                       Coordinates (Angstroms)
     ATOM              X           Y           Z
    1  C           0.006976    0.000000    0.015980
    2  C           0.004127    0.000000    1.334565
    3  H           0.945722    0.000000   -0.548414
    4  H          -0.922398    0.000000   -0.559270
    5  H          -0.959324    0.000000    1.860458
    6  C           1.220346    0.000000    2.187463
    7  H           2.135581    0.000000    1.577858
    8  H           1.243333    0.883489    2.845020
    9  H           1.243333   -0.883489    2.845020
   Point Group: c1    Number of degrees of freedom:  21


   Energy is   -116.459952152

 Hessian Updated using BFGS Update

 12 Hessian modes will be used to form the next step
  Hessian Eigenvalues:
     0.073114    0.142289    0.159697    0.162812    0.218212    0.328655
     0.339822    0.341220    0.346216    0.349011    0.352521    0.668209

 Minimum Search - Taking Simple RFO Step
 Searching for Lamda that Minimizes Along All modes
 Value Taken    Lamda =   0.00000000
 Step Taken.  Stepsize is  0.002048

                             Maximum     Tolerance    Cnvgd?
         Gradient           0.000310      0.000300      NO
         Displacement       0.001615      0.001200      NO
         Energy change     -0.000012      0.000001      NO


 New Cartesian Coordinates Obtained by Inverse Iteration

 Displacement from previous Coordinates is:  0.001752
 Writing REM_CC_EA            9
 ----------------------------------------------------
       Standard Nuclear Orientation (Angstroms)
    I     Atom         X            Y            Z
 ----------------------------------------------------
    1      C       0.006705     0.000000     0.015844
    2      C       0.004283     0.000000     1.334473
    3      H       0.945607     0.000000    -0.548313
    4      H      -0.922556     0.000000    -0.559261
    5      H      -0.959366     0.000000     1.860140
    6      C       1.220125     0.000000     2.187228
    7      H       2.135865     0.000000     1.578249
    8      H       1.243517     0.883225     2.845159
    9      H       1.243517    -0.883225     2.845159
 ----------------------------------------------------
 Nuclear Repulsion Energy =    71.0140042717 hartrees
 There are       12 alpha and       12 beta electrons
 Applying Cartesian multipole field
    Component          Value
    ---------          -----
     (2,0,0)        1.00000E-11
     (0,2,0)        2.00000E-11
     (0,0,2)       -3.00000E-11
 Nucleus-field energy     =    -0.0000000059 hartrees
 Requested basis set is G3large
 There are 66 shells and 186 basis functions
 A cutoff of  1.0D-11 yielded   2146 shell pairs
 There are  17154 function pairs ( 20715 Cartesian)
Evaluating contribution to one-electron hamiltonian from nuclear
 Smallest overlap matrix eigenvalue = 4.29E-05
 Multipole matrices computed through 2nd order
 Guess MOs from SCF MO coefficient file
Reading MOs from coefficient file
Reading MOs from coefficient file
 A restricted hybrid HF-DFT SCF calculation will be
 performed using Pulay DIIS extrapolation
 Exchange:     1.0000 Hartree-Fock + 1.0000 BNL
 Correlation:  1.0000 LYP
 Using SG-1 standard quadrature grid
 SCF converges when DIIS error is below 1.0E-08
 ---------------------------------------
  Cycle       Energy         DIIS Error
 ---------------------------------------
    1    -116.4598367271      1.53E-05
    2    -116.4599525747      1.24E-06
    3    -116.4599525472      4.69E-07
    4    -116.4599525577      2.15E-07
    5    -116.4599525373      6.47E-08
    6    -116.4599525465      1.76E-08
    7    -116.4599525491      3.45E-09 Convergence criterion met
 ---------------------------------------
 One-Electron    Energy =  -297.3079669695
 Total Coulomb   Energy =   126.7382132493
 Alpha Exchange  Energy =    -2.1623535568
 Beta  Exchange  Energy =    -2.1623535568
 DFT   Exchange  Energy =   -11.8210442745
 DFT Correlation Energy =    -0.7584517066
 Nuclear Repu.   Energy =    71.0140042658
 Nuclear Attr.   Energy =  -413.0492119042
 Kinetic         Energy =   115.7412449347
 SCF time:  CPU 71.41 s  wall 72.08 s
 Final Alpha MO Eigenvalues
            1           2           3           4           5           6
    1  -9.9551985  -9.9444878  -9.9388968  -0.9085333  -0.8003269  -0.6629198
            7           8           9          10          11          12
    1  -0.5816328  -0.5304464  -0.5237214  -0.4729324  -0.4439396  -0.3660206
           13          14          15          16          17
    1   0.0329939   0.0506872   0.0526932   0.0641332   0.0742550
 Analysis of SCF Wavefunction
 
 --------------------------------------------------------------
                    Orbital Energies (a.u.)
 --------------------------------------------------------------
 
 Alpha MOs
 -- Occupied --
 -9.955  -9.944  -9.939  -0.909  -0.800  -0.663  -0.582  -0.530
 -0.524  -0.473  -0.444  -0.366
 -- Virtual --
  0.033   0.051   0.053   0.064   0.074   0.081   0.087   0.123
  0.134   0.145   0.145   0.157   0.167   0.186   0.186   0.192
  0.198   0.209   0.216   0.257   0.261   0.274   0.290   0.339
  0.360   0.425   0.459   0.506   0.518   0.543   0.559   0.595
  0.600   0.625   0.626   0.641   0.644   0.656   0.683   0.728
  0.737   0.740   0.760   0.779   0.792   0.835   0.860   0.876
  0.919   0.957   1.010   1.035   1.037   1.104   1.111   1.183
  1.204   1.226   1.261   1.262   1.307   1.328   1.342   1.394
  1.415   1.442   1.489   1.508   1.532   1.537   1.578   1.613
  1.615   1.627   1.659   1.731   1.818   1.978   2.499   2.502
  2.624   2.664   2.715   2.764   2.770   2.776   2.845   2.852
  2.922   2.944   2.962   2.966   3.051   3.110   3.128   3.191
  3.191   3.195   3.232   3.251   3.286   3.311   3.329   3.371
  3.373   3.405   3.457   3.469   3.487   3.545   3.605   3.677
  3.742   3.770   3.779   3.819   3.865   3.914   3.928   3.981
  4.009   4.097   4.148   4.202   4.241   4.280   4.322   4.336
  4.353   4.417   4.459   4.522   4.590   4.594   4.666   4.740
  4.765   4.867   4.911   5.217   5.299   5.533   5.620   5.715
  5.719   5.741   6.074  24.065  24.431  24.919  27.338  27.548
 27.880  28.162  28.181  28.244  28.322  28.408  28.602  40.832
 40.917  40.939  40.962  41.007  41.194  41.204  41.238  41.254
 41.294  41.300  41.319  41.329  41.375  41.437
 --------------------------------------------------------------
 
          Ground-State Mulliken Net Atomic Charges

     Atom                 Charge (a.u.)
  ----------------------------------------
      1 C                    -0.423829
      2 C                     0.092004
      3 H                     0.119351
      4 H                     0.113663
      5 H                     0.153833
      6 C                    -0.401117
      7 H                     0.121868
      8 H                     0.112114
      9 H                     0.112114
  ----------------------------------------
  Sum of atomic charges =     0.000000

 -----------------------------------------------------------------
                    Cartesian Multipole Moments
 -----------------------------------------------------------------
    Charge (ESU x 10^10)
                 0.0000
    Dipole Moment (Debye)
         X       0.1536      Y       0.0000      Z       0.4148
       Tot       0.4423
    Quadrupole Moments (Debye-Ang)
        XX     -19.4998     XY       0.0000     YY     -22.4297
        XZ       0.1747     YZ       0.0000     ZZ     -18.5492
    Octapole Moments (Debye-Ang^2)
       XXX     -28.3865    XXY       0.0000    XYY      -9.1009
       YYY       0.0000    XXZ     -25.0005    XYZ       0.0000
       YYZ     -24.5932    XZZ      -9.2682    YZZ       0.0000
       ZZZ     -70.0874
    Hexadecapole Moments (Debye-Ang^3)
      XXXX    -118.7251   XXXY       0.0000   XXYY     -26.8411
      XYYY       0.0000   YYYY     -34.9841   XXXZ     -66.0333
      XXYZ       0.0000   XYYZ     -19.6582   YYYZ       0.0000
      XXZZ     -76.3619   XYZZ       0.0000   YYZZ     -58.8731
      XZZZ     -62.8443   YZZZ       0.0000   ZZZZ    -331.3180
 -----------------------------------------------------------------
 Calculating analytic gradient of the SCF energy
 Gradient of AOints
            1           2           3           4           5           6
    1   0.8795381   2.1960615  -2.4888877   2.6250387   2.8494593  -2.6835510
    2  -0.0000000   0.0000000  -0.0000000  -0.0000000  -0.0000000  -0.0000000
    3   7.8851706  -5.0487327   1.8531596   1.8013257  -1.4860460  -2.2740150
            7           8           9
    1  -2.7427591  -0.3174499  -0.3174500
    2   0.0000000  -2.2424887   2.2424887
    3   1.2973509  -2.0141066  -2.0141065
 Gradient of XC Energy
            1           2           3           4           5           6
    1   0.0028725   0.0022417   0.1370474  -0.1406688  -0.1372254  -0.0065117
    2   0.0000000  -0.0000000   0.0000000   0.0000000   0.0000000   0.0000000
    3  -0.1405083   0.1473915  -0.0791012  -0.0842344   0.0726709  -0.0241220
            7           8           9
    1   0.1326459   0.0047993   0.0047993
    2  -0.0000000   0.1251455  -0.1251455
    3  -0.0867985   0.0973510   0.0973510
 Gradient of SCF Energy
            1           2           3           4           5           6
    1   0.0000201  -0.0000513  -0.0000001  -0.0000000  -0.0000009   0.0000821
    2   0.0000000   0.0000000  -0.0000000  -0.0000000  -0.0000000  -0.0000000
    3   0.0000065  -0.0000376  -0.0000102  -0.0000234   0.0000077   0.0000879
            7           8           9
    1  -0.0000172  -0.0000164  -0.0000164
    2  -0.0000000  -0.0000005   0.0000005
    3  -0.0000122  -0.0000094  -0.0000094
 Max gradient component =       8.794E-05
 RMS gradient           =       2.778E-05
 Gradient time:  CPU 50.17 s  wall 50.46 s
 Geometry Optimization Parameters
   NAtoms,    NIC,     NZ,  NCons,   NDum,   NFix, NCnnct, MaxDiis
        9      48      10       0       0       0       0       0

 Cartesian Hessian Update
 Hessian Updated using BFGS Update


** GEOMETRY OPTIMIZATION IN DELOCALIZED INTERNAL COORDINATES **
   Searching for a Minimum

   Optimization Cycle:   4

                       Coordinates (Angstroms)
     ATOM              X           Y           Z
    1  C           0.006705    0.000000    0.015844
    2  C           0.004283    0.000000    1.334473
    3  H           0.945607    0.000000   -0.548313
    4  H          -0.922556    0.000000   -0.559261
    5  H          -0.959366    0.000000    1.860140
    6  C           1.220125    0.000000    2.187228
    7  H           2.135865    0.000000    1.578249
    8  H           1.243517    0.883225    2.845159
    9  H           1.243517   -0.883225    2.845159
   Point Group: c1    Number of degrees of freedom:  21


   Energy is   -116.459952549

 Hessian Updated using BFGS Update

 14 Hessian modes will be used to form the next step
  Hessian Eigenvalues:
     0.072340    0.121188    0.159307    0.160673    0.163058    0.219523
     0.313995    0.338194    0.338561    0.341618    0.344100    0.349242
     0.351893    0.667260

 Minimum Search - Taking Simple RFO Step
 Searching for Lamda that Minimizes Along All modes
 Value Taken    Lamda =   0.00000000
 Step Taken.  Stepsize is  0.000556

                             Maximum     Tolerance    Cnvgd?
         Gradient           0.000055      0.000300     YES
         Displacement       0.000383      0.001200     YES
         Energy change      0.000000      0.000001     YES


                       Distance Matrix (Angstroms)
             C (  1)   C (  2)   H (  3)   H (  4)   H (  5)   C (  6)
   C (  2)  1.318631
   H (  3)  1.095358  2.104988
   H (  4)  1.092828  2.108378  1.868195
   H (  5)  2.081999  1.097700  3.070760  2.419680
   C (  6)  2.487428  1.485080  2.749281  3.483430  2.203899
   H (  7)  2.640915  2.145476  2.437002  3.731339  3.108041  1.099743
   H (  8)  3.211668  2.144285  3.519160  4.130622  2.569639  1.101593
   H (  9)  3.211668  2.144285  3.519160  4.130622  2.569639  1.101593
             H (  7)   H (  8)
   H (  8)  1.783657
   H (  9)  1.783657  1.766451
 


 ******************************
 **  OPTIMIZATION CONVERGED  **
 ******************************
 Analysis of SCF Wavefunction
 
 --------------------------------------------------------------
                    Orbital Energies (a.u.)
 --------------------------------------------------------------
 
 Alpha MOs
 -- Occupied --
 -9.955  -9.944  -9.939  -0.909  -0.800  -0.663  -0.582  -0.530
 -0.524  -0.473  -0.444  -0.366
 -- Virtual --
  0.033   0.051   0.053   0.064   0.074   0.081   0.087   0.123
  0.134   0.145   0.145   0.157   0.167   0.186   0.186   0.192
  0.198   0.209   0.216   0.257   0.261   0.274   0.290   0.339
  0.360   0.425   0.459   0.506   0.518   0.543   0.559   0.595
  0.600   0.625   0.626   0.641   0.644   0.656   0.683   0.728
  0.737   0.740   0.760   0.779   0.792   0.835   0.860   0.876
  0.919   0.957   1.010   1.035   1.037   1.104   1.111   1.183
  1.204   1.226   1.261   1.262   1.307   1.328   1.342   1.394
  1.415   1.442   1.489   1.508   1.532   1.537   1.578   1.613
  1.615   1.627   1.659   1.731   1.818   1.978   2.499   2.502
  2.624   2.664   2.715   2.764   2.770   2.776   2.845   2.852
  2.922   2.944   2.962   2.966   3.051   3.110   3.128   3.191
  3.191   3.195   3.232   3.251   3.286   3.311   3.329   3.371
  3.373   3.405   3.457   3.469   3.487   3.545   3.605   3.677
  3.742   3.770   3.779   3.819   3.865   3.914   3.928   3.981
  4.009   4.097   4.148   4.202   4.241   4.280   4.322   4.336
  4.353   4.417   4.459   4.522   4.590   4.594   4.666   4.740
  4.765   4.867   4.911   5.217   5.299   5.533   5.620   5.715
  5.719   5.741   6.074  24.065  24.431  24.919  27.338  27.548
 27.880  28.162  28.181  28.244  28.322  28.408  28.602  40.832
 40.917  40.939  40.962  41.007  41.194  41.204  41.238  41.254
 41.294  41.300  41.319  41.329  41.375  41.437
 --------------------------------------------------------------
 
          Ground-State Mulliken Net Atomic Charges

     Atom                 Charge (a.u.)
  ----------------------------------------
      1 C                    -0.423829
      2 C                     0.092004
      3 H                     0.119351
      4 H                     0.113663
      5 H                     0.153833
      6 C                    -0.401117
      7 H                     0.121868
      8 H                     0.112114
      9 H                     0.112114
  ----------------------------------------
  Sum of atomic charges =     0.000000

 -----------------------------------------------------------------
                    Cartesian Multipole Moments
 -----------------------------------------------------------------
    Charge (ESU x 10^10)
                 0.0000
    Dipole Moment (Debye)
         X       0.1536      Y       0.0000      Z       0.4148
       Tot       0.4423
    Quadrupole Moments (Debye-Ang)
        XX     -19.4998     XY       0.0000     YY     -22.4297
        XZ       0.1747     YZ       0.0000     ZZ     -18.5492
    Octapole Moments (Debye-Ang^2)
       XXX     -28.3865    XXY       0.0000    XYY      -9.1009
       YYY       0.0000    XXZ     -25.0005    XYZ       0.0000
       YYZ     -24.5932    XZZ      -9.2682    YZZ       0.0000
       ZZZ     -70.0874
    Hexadecapole Moments (Debye-Ang^3)
      XXXX    -118.7251   XXXY       0.0000   XXYY     -26.8411
      XYYY       0.0000   YYYY     -34.9841   XXXZ     -66.0333
      XXYZ       0.0000   XYYZ     -19.6582   YYYZ       0.0000
      XXZZ     -76.3619   XYZZ       0.0000   YYZZ     -58.8731
      XZZZ     -62.8443   YZZZ       0.0000   ZZZZ    -331.3180
 -----------------------------------------------------------------
 Total job time:  603.95s(wall), 598.82s(cpu) 
 Sat Apr 23 13:59:25 2011

        *************************************************************
        *                                                           *
        *  Thank you very much for using Q-Chem.  Have a nice day.  *
        *                                                           *
        *************************************************************


0 sent ACK to 0 
now end server 0 ... 
 
**********************************************************************
Job 2 of 2 
**********************************************************************
 
Process 0 of 1 is on cl247.stfx.acenet.ca - thread support 1
initial socket setup ...start
initial socket setup ...done 
now start server 0 ... 

cmd = /usr/bin/ssh clhead /usr/local/qchem/bin/get_hostid 626681708 > /scratch/tmp/4506621.1.long.q/qchem15257/lic.dat
                  Welcome to Q-Chem
     A Quantum Leap Into The Future Of Chemistry

 Y. Shao, L. Fusti-Molnar, Y. Jung, J. Kussmann, C. Ochsenfeld,
 S. T. Brown, A. T. B. Gilbert, L. V. Slipchenko,S. V. Levchenko,
 D. P. O'Neill, R. A. DiStasio Jr., R. C. Lochan, T. Wang,
 G. J. O. Beran, N. A. Besley, J. M. Herbert, C. Y. Lin,
 T. Van Voorhis, S. H. Chien, A. Sodt, R. P. Steele, 
 V. A. Rassolov, P. E. Maslen, P. P. Korambath, R. D. Adamson,
 B. Austin, J. Baker, E. F. C. Byrd, H. Dachsel, R. J. Doerksen,
 A. Dreuw, B. D. Dunietz, A. D. Dutoi, T. R. Furlani,
 S. R. Gwaltney, A. Heyden, S. Hirata, C.-P. Hsu, G. Kedziora,
 R. Z. Khaliullin, P. Klunzinger, A. M. Lee, M. S. Lee, W. Liang,
 I. Lotan, N. Nair, B. Peters, E. I. Proynov, P. A. Pieniazek, 
 Y. M. Rhee, J. Ritchie, E. Rosta, C. D. Sherrill, 
 A. C. Simmonett, J. E. Subotnik, H. L. Woodcock III,
 W. Zhang, A. T. Bell, A. K. Chakraborty, D. M. Chipman,
 F. J. Keil, A. Warshel, W. J. Hehre, H. F. Schaefer III,
 J. Kong, A. I. Krylov, P. M. W. Gill, M. Head-Gordon,
 Q-Chem, Version 3.1, Q-Chem, Inc., Pittsburgh, PA (2007).

 Additional authors for Version 3.1: 
 Z. Gan, Y. Zhao, N. E. Schultz, D. Truhlar, E. Epifanovsky and M. Oana.

 Additional authors for Version 3.2: 
 R. Baer, B. R. Brooks, D. Casanova, J.-D. Chai, C.-L. Cheng, 
 C. Cramer, D. Crittenden, A. Ghysels, G. Hawkins, E. G. Hohenstein, 
 C. Kelley, W. Kurlancheek, D. Liotard, E. Livshits, P. Manohar, 
 A. Marenich, D. Neuhauser, R. Olson, M. A. Rohrdanz, K. S. Thanthiriwatte, 
 A. J. W. Thom, V. Vanovschi, C. F. Williams, Q. Wu and Z.-Q. You. 


 Intel X86 Linux Version

 Q-chem begins on Sat Apr 23 13:59:28 2011  

 Parallel job on  1  processors
Processing $rem in /usr/local/qchem/config/preferences.

theFileMan(): MAXOPENFILES=974 MAX_SUB_FILE_NUM=16
Maximum size of a physical file is 2.0 GB, maximum size of a tmp-file is 32.0 GB


--------------------------------------------------------------
User input:
--------------------------------------------------------------

$molecule 
READ 
$end 

$xc_functional
   X HF 1.0
   X BNL 1.0
   C LYP 1.0
$end

$rem
SYMMETRY_DECOMPOSITION	0
exchange 		general
BASIS                   g3large
omega			360 
JOBTYPE                 freq
IDERIV 1
SCF_GUESS READ
separate_jk		true
mem_static              760
max_scf_cycles          200
scf_final_print         1
sym_ignore              true
$end

--------------------------------------------------------------
 Writing REM_CC_EA            9
 ----------------------------------------------------
       Standard Nuclear Orientation (Angstroms)
    I     Atom         X            Y            Z
 ----------------------------------------------------
    1      C       0.006705     0.000000     0.015844
    2      C       0.004283     0.000000     1.334473
    3      H       0.945607     0.000000    -0.548313
    4      H      -0.922556     0.000000    -0.559261
    5      H      -0.959366     0.000000     1.860140
    6      C       1.220125     0.000000     2.187228
    7      H       2.135865     0.000000     1.578249
    8      H       1.243517     0.883225     2.845159
    9      H       1.243517    -0.883225     2.845159
 ----------------------------------------------------
 Nuclear Repulsion Energy =    71.0140042717 hartrees
 There are       12 alpha and       12 beta electrons
 Requested basis set is G3large
 There are 66 shells and 186 basis functions

Total QAlloc Memory Limit   2000 MB
Mega-Array Size       759 MB
MEM_STATIC part       760 MB

                       Distance Matrix (Angstroms)
             C (  1)   C (  2)   H (  3)   H (  4)   H (  5)   C (  6)
   C (  2)  1.318631
   H (  3)  1.095358  2.104988
   H (  4)  1.092828  2.108378  1.868195
   H (  5)  2.081999  1.097700  3.070760  2.419680
   C (  6)  2.487428  1.485080  2.749281  3.483430  2.203899
   H (  7)  2.640915  2.145476  2.437002  3.731339  3.108041  1.099743
   H (  8)  3.211668  2.144285  3.519160  4.130622  2.569639  1.101593
   H (  9)  3.211668  2.144285  3.519160  4.130622  2.569639  1.101593
             H (  7)   H (  8)
   H (  8)  1.783657
   H (  9)  1.783657  1.766451
 
 A cutoff of  1.0D-11 yielded   2146 shell pairs
 There are  17154 function pairs ( 20715 Cartesian)
Evaluating contribution to one-electron hamiltonian from nuclear
 Smallest overlap matrix eigenvalue = 4.29E-05
 Multipole matrices computed through 2nd order
 Guess MOs from SCF MO coefficient file
Reading MOs from coefficient file
Reading MOs from coefficient file
 A restricted hybrid HF-DFT SCF calculation will be
 performed using Pulay DIIS extrapolation
 Exchange:     1.0000 Hartree-Fock + 1.0000 BNL
 Correlation:  1.0000 LYP
 Using SG-1 standard quadrature grid
 SCF converges when DIIS error is below 1.0E-08
 ---------------------------------------
  Cycle       Energy         DIIS Error
 ---------------------------------------
    1    -116.4599526052      8.98E-10
    2    -116.4599526051      6.16E-10 Convergence criterion met
 ---------------------------------------
 One-Electron    Energy =  -297.3079677823
 Total Coulomb   Energy =   126.7382141140
 Alpha Exchange  Energy =    -2.1623535568
 Beta  Exchange  Energy =    -2.1623535568
 DFT   Exchange  Energy =   -11.8210443806
 DFT Correlation Energy =    -0.7584517143
 Nuclear Repu.   Energy =    71.0140042717
 Nuclear Attr.   Energy =  -413.0492131366
 Kinetic         Energy =   115.7412453543
 SCF time:  CPU 23.25 s  wall 23.48 s
 Final Alpha MO Eigenvalues
            1           2           3           4           5           6
    1  -9.9551985  -9.9444878  -9.9388968  -0.9085333  -0.8003269  -0.6629198
            7           8           9          10          11          12
    1  -0.5816328  -0.5304464  -0.5237214  -0.4729324  -0.4439396  -0.3660206
           13          14          15          16          17
    1   0.0329939   0.0506872   0.0526932   0.0641332   0.0742550
 Analysis of SCF Wavefunction
 
 --------------------------------------------------------------
                    Orbital Energies (a.u.)
 --------------------------------------------------------------
 
 Alpha MOs
 -- Occupied --
 -9.955  -9.944  -9.939  -0.909  -0.800  -0.663  -0.582  -0.530
 -0.524  -0.473  -0.444  -0.366
 -- Virtual --
  0.033   0.051   0.053   0.064   0.074   0.081   0.087   0.123
  0.134   0.145   0.145   0.157   0.167   0.186   0.186   0.192
  0.198   0.209   0.216   0.257   0.261   0.274   0.290   0.339
  0.360   0.425   0.459   0.506   0.518   0.543   0.559   0.595
  0.600   0.625   0.626   0.641   0.644   0.656   0.683   0.728
  0.737   0.740   0.760   0.779   0.792   0.835   0.860   0.876
  0.919   0.957   1.010   1.035   1.037   1.104   1.111   1.183
  1.204   1.226   1.261   1.262   1.307   1.328   1.342   1.394
  1.415   1.442   1.489   1.508   1.532   1.537   1.578   1.613
  1.615   1.627   1.659   1.731   1.818   1.978   2.499   2.502
  2.624   2.664   2.715   2.764   2.770   2.776   2.845   2.852
  2.922   2.944   2.962   2.966   3.051   3.110   3.128   3.191
  3.191   3.195   3.232   3.251   3.286   3.311   3.329   3.371
  3.373   3.405   3.457   3.469   3.487   3.545   3.605   3.677
  3.742   3.770   3.779   3.819   3.865   3.914   3.928   3.981
  4.009   4.097   4.148   4.202   4.241   4.280   4.322   4.336
  4.353   4.417   4.459   4.522   4.590   4.594   4.666   4.740
  4.765   4.867   4.911   5.217   5.299   5.533   5.620   5.715
  5.719   5.741   6.074  24.065  24.431  24.919  27.338  27.548
 27.880  28.162  28.181  28.244  28.322  28.408  28.602  40.832
 40.917  40.939  40.962  41.007  41.194  41.204  41.238  41.254
 41.294  41.300  41.319  41.329  41.375  41.437
 --------------------------------------------------------------
 
          Ground-State Mulliken Net Atomic Charges

     Atom                 Charge (a.u.)
  ----------------------------------------
      1 C                    -0.423829
      2 C                     0.092005
      3 H                     0.119351
      4 H                     0.113664
      5 H                     0.153833
      6 C                    -0.401117
      7 H                     0.121868
      8 H                     0.112114
      9 H                     0.112114
  ----------------------------------------
  Sum of atomic charges =     0.000000

 -----------------------------------------------------------------
                    Cartesian Multipole Moments
 -----------------------------------------------------------------
    Charge (ESU x 10^10)
                 0.0000
    Dipole Moment (Debye)
         X       0.1536      Y       0.0000      Z       0.4148
       Tot       0.4423
    Quadrupole Moments (Debye-Ang)
        XX     -19.4998     XY       0.0000     YY     -22.4297
        XZ       0.1747     YZ       0.0000     ZZ     -18.5492
    Octapole Moments (Debye-Ang^2)
       XXX     -28.3865    XXY       0.0000    XYY      -9.1009
       YYY       0.0000    XXZ     -25.0005    XYZ       0.0000
       YYZ     -24.5932    XZZ      -9.2682    YZZ       0.0000
       ZZZ     -70.0874
    Hexadecapole Moments (Debye-Ang^3)
      XXXX    -118.7251   XXXY       0.0000   XXYY     -26.8411
      XYYY       0.0000   YYYY     -34.9841   XXXZ     -66.0333
      XXYZ       0.0000   XYYZ     -19.6582   YYYZ       0.0000
      XXZZ     -76.3619   XYZZ       0.0000   YYZZ     -58.8731
      XZZZ     -62.8442   YZZZ       0.0000   ZZZZ    -331.3180
 -----------------------------------------------------------------
 Calculating analytic gradient of the SCF energy
 Gradient of AOints
            1           2           3           4           5           6
    1   0.8795376   2.1960622  -2.4888877   2.6250387   2.8494595  -2.6835511
    2  -0.0000000  -0.0000000  -0.0000000  -0.0000000  -0.0000000   0.0000000
    3   7.8851706  -5.0487328   1.8531597   1.8013257  -1.4860459  -2.2740150
            7           8           9
    1  -2.7427591  -0.3174501  -0.3174501
    2   0.0000000  -2.2424888   2.2424888
    3   1.2973510  -2.0141066  -2.0141066
 Gradient of XC Energy
            1           2           3           4           5           6
    1   0.0028725   0.0022417   0.1370474  -0.1406688  -0.1372254  -0.0065117
    2   0.0000000   0.0000000   0.0000000   0.0000000   0.0000000   0.0000000
    3  -0.1405083   0.1473915  -0.0791012  -0.0842344   0.0726709  -0.0241220
            7           8           9
    1   0.1326459   0.0047993   0.0047993
    2  -0.0000000   0.1251455  -0.1251455
    3  -0.0867985   0.0973510   0.0973510
 Gradient of SCF Energy
            1           2           3           4           5           6
    1   0.0000202  -0.0000513  -0.0000001  -0.0000000  -0.0000009   0.0000821
    2  -0.0000000   0.0000000   0.0000000  -0.0000000  -0.0000000  -0.0000000
    3   0.0000065  -0.0000376  -0.0000102  -0.0000234   0.0000077   0.0000880
            7           8           9
    1  -0.0000172  -0.0000164  -0.0000164
    2  -0.0000000  -0.0000005   0.0000005
    3  -0.0000122  -0.0000094  -0.0000094
 Max gradient component =       8.795E-05
 RMS gradient           =       2.778E-05
 Gradient time:  CPU 50.43 s  wall 50.88 s
 ######################################################
 ######################################################
 # Starting finite difference calculation for IDERIV  #
 Finite diff step size: 1.89e-03 a.u.
 Writing REM_CC_EA            9
 ----------------------------------------------------
       Standard Nuclear Orientation (Angstroms)
    I     Atom         X            Y            Z
 ----------------------------------------------------
    1      C       0.007705     0.000000     0.015844
    2      C       0.004283     0.000000     1.334473
    3      H       0.945607     0.000000    -0.548313
    4      H      -0.922556     0.000000    -0.559261
    5      H      -0.959366     0.000000     1.860140
    6      C       1.220125     0.000000     2.187228
    7      H       2.135865     0.000000     1.578249
    8      H       1.243517     0.883225     2.845159
    9      H       1.243517    -0.883225     2.845159
 ----------------------------------------------------
 Nuclear Repulsion Energy =    71.0157565261 hartrees
 There are       12 alpha and       12 beta electrons

                       Distance Matrix (Angstroms)
             C (  1)   C (  2)   H (  3)   H (  4)   H (  5)   C (  6)
   C (  2)  1.318633
   H (  3)  1.094501  2.104988
   H (  4)  1.093678  2.108378  1.868195
   H (  5)  2.082463  1.097700  3.070760  2.419680
   C (  6)  2.486940  1.485080  2.749281  3.483430  2.203899
   H (  7)  2.640109  2.145476  2.437002  3.731339  3.108041  1.099743
   H (  8)  3.211283  2.144285  3.519160  4.130622  2.569639  1.101593
   H (  9)  3.211283  2.144285  3.519160  4.130622  2.569639  1.101593
             H (  7)   H (  8)
   H (  8)  1.783657
   H (  9)  1.783657  1.766451
 
 Requested basis set is G3large
 There are 66 shells and 186 basis functions
 A cutoff of  1.0D-11 yielded   2146 shell pairs
 There are  17154 function pairs ( 20715 Cartesian)
Evaluating contribution to one-electron hamiltonian from nuclear
 Smallest overlap matrix eigenvalue = 4.29E-05
 Multipole matrices computed through 2nd order
 Guess MOs from SCF MO coefficient file
Reading MOs from coefficient file
Reading MOs from coefficient file
 A restricted hybrid HF-DFT SCF calculation will be
 performed using Pulay DIIS extrapolation
 Exchange:     1.0000 Hartree-Fock + 1.0000 BNL
 Correlation:  1.0000 LYP
 Using SG-1 standard quadrature grid
 SCF converges when DIIS error is below 1.0E-08
 ---------------------------------------
  Cycle       Energy         DIIS Error
 ---------------------------------------
    1    -116.4599671406      2.76E-05
    2    -116.4599514004      3.24E-06
    3    -116.4599514857      1.13E-06
    4    -116.4599514620      1.64E-07
    5    -116.4599514627      5.72E-08
    6    -116.4599514609      2.38E-08
    7    -116.4599514609      3.97E-09 Convergence criterion met
 ---------------------------------------
 One-Electron    Energy =  -297.3116027245
 Total Coulomb   Energy =   126.7401182451
 Alpha Exchange  Energy =    -2.1623553539
 Beta  Exchange  Energy =    -2.1623553539
 DFT   Exchange  Energy =   -11.8210596979
 DFT Correlation Energy =    -0.7584531018
 Nuclear Repu.   Energy =    71.0157565261
 Nuclear Attr.   Energy =  -413.0529322205
 Kinetic         Energy =   115.7413294960
 SCF time:  CPU 72.24 s  wall 72.71 s
 Final Alpha MO Eigenvalues
            1           2           3           4           5           6
    1  -9.9551983  -9.9444600  -9.9388936  -0.9085438  -0.8002860  -0.6629696
            7           8           9          10          11          12
    1  -0.5815297  -0.5305565  -0.5237095  -0.4728343  -0.4439903  -0.3660137
           13          14          15          16          17
    1   0.0329876   0.0506871   0.0526950   0.0641340   0.0742636
 Analysis of SCF Wavefunction
 
 --------------------------------------------------------------
                    Orbital Energies (a.u.)
 --------------------------------------------------------------
 
 Alpha MOs
 -- Occupied --
 -9.955  -9.944  -9.939  -0.909  -0.800  -0.663  -0.582  -0.531
 -0.524  -0.473  -0.444  -0.366
 -- Virtual --
  0.033   0.051   0.053   0.064   0.074   0.081   0.087   0.123
  0.134   0.145   0.145   0.157   0.167   0.186   0.186   0.192
  0.198   0.209   0.216   0.257   0.261   0.274   0.290   0.339
  0.360   0.425   0.459   0.506   0.518   0.543   0.559   0.595
  0.600   0.625   0.626   0.641   0.644   0.656   0.683   0.728
  0.737   0.740   0.760   0.779   0.792   0.835   0.860   0.876
  0.919   0.957   1.010   1.035   1.037   1.104   1.111   1.184
  1.204   1.226   1.261   1.262   1.307   1.328   1.342   1.394
  1.415   1.442   1.489   1.508   1.532   1.537   1.578   1.614
  1.615   1.628   1.659   1.731   1.818   1.978   2.499   2.502
  2.625   2.664   2.715   2.764   2.770   2.776   2.845   2.852
  2.922   2.943   2.962   2.966   3.051   3.110   3.128   3.191
  3.191   3.195   3.232   3.251   3.286   3.311   3.329   3.372
  3.373   3.405   3.457   3.469   3.487   3.545   3.605   3.677
  3.742   3.770   3.779   3.819   3.866   3.914   3.928   3.981
  4.009   4.097   4.148   4.202   4.241   4.281   4.323   4.336
  4.353   4.417   4.459   4.523   4.589   4.594   4.666   4.740
  4.765   4.867   4.912   5.217   5.298   5.532   5.621   5.714
  5.719   5.741   6.074  24.065  24.431  24.919  27.338  27.548
 27.880  28.163  28.181  28.244  28.322  28.407  28.602  40.832
 40.917  40.939  40.962  41.007  41.194  41.204  41.238  41.254
 41.294  41.300  41.319  41.329  41.375  41.437
 --------------------------------------------------------------
 
          Ground-State Mulliken Net Atomic Charges

     Atom                 Charge (a.u.)
  ----------------------------------------
      1 C                    -0.423779
      2 C                     0.091712
      3 H                     0.119721
      4 H                     0.113339
      5 H                     0.153937
      6 C                    -0.400953
      7 H                     0.121863
      8 H                     0.112080
      9 H                     0.112080
  ----------------------------------------
  Sum of atomic charges =     0.000000

 -----------------------------------------------------------------
                    Cartesian Multipole Moments
 -----------------------------------------------------------------
    Charge (ESU x 10^10)
                 0.0000
    Dipole Moment (Debye)
         X       0.1537      Y       0.0000      Z       0.4146
       Tot       0.4422
    Quadrupole Moments (Debye-Ang)
        XX     -19.4998     XY       0.0000     YY     -22.4299
        XZ       0.1703     YZ       0.0000     ZZ     -18.5504
    Octapole Moments (Debye-Ang^2)
       XXX     -28.4002    XXY       0.0000    XYY      -9.1056
       YYY       0.0000    XXZ     -25.0018    XYZ       0.0000
       YYZ     -24.5940    XZZ      -9.2783    YZZ       0.0000
       ZZZ     -70.0926
    Hexadecapole Moments (Debye-Ang^3)
      XXXX    -118.7255   XXXY       0.0000   XXYY     -26.8414
      XYYY       0.0000   YYYY     -34.9846   XXXZ     -66.0440
      XXYZ       0.0000   XYYZ     -19.6622   YYYZ       0.0000
      XXZZ     -76.3665   XYZZ       0.0000   YYZZ     -58.8759
      XZZZ     -62.8722   YZZZ       0.0000   ZZZZ    -331.3404
 -----------------------------------------------------------------
 Calculating analytic gradient of the SCF energy
 Gradient of AOints
            1           2           3           4           5           6
    1   0.8695523   2.2042926  -2.4883338   2.6252718   2.8498996  -2.6830047
    2   0.0000000  -0.0000000  -0.0000000   0.0000000  -0.0000000   0.0000000
    3   7.8852543  -5.0487327   1.8559840   1.7986859  -1.4868233  -2.2736420
            7           8           9
    1  -2.7429812  -0.3173483  -0.3173483
    2   0.0000000  -2.2424616   2.2424616
    3   1.2973419  -2.0140341  -2.0140341
 Gradient of XC Energy
            1           2           3           4           5           6
    1   0.0031203   0.0019652   0.1370617  -0.1406447  -0.1372341  -0.0065115
    2  -0.0000000   0.0000000   0.0000000  -0.0000000   0.0000000  -0.0000000
    3  -0.1404934   0.1473889  -0.0792444  -0.0840920   0.0726999  -0.0241524
            7           8           9
    1   0.1326507   0.0047962   0.0047962
    2  -0.0000000   0.1251423  -0.1251423
    3  -0.0867977   0.0973455   0.0973455
 Gradient of SCF Energy
            1           2           3           4           5           6
    1   0.0012107  -0.0002653  -0.0004870  -0.0004910   0.0000040   0.0000840
    2  -0.0000000   0.0000000   0.0000000  -0.0000000   0.0000000  -0.0000000
    3   0.0000197  -0.0000251   0.0002063  -0.0002470   0.0000626   0.0000274
            7           8           9
    1  -0.0000125  -0.0000215  -0.0000215
    2  -0.0000000  -0.0000007   0.0000007
    3  -0.0000146  -0.0000147  -0.0000147
 Max gradient component =       1.211E-03
 RMS gradient           =       2.810E-04
 Gradient time:  CPU 50.95 s  wall 51.09 s
 Writing REM_CC_EA            9
 ----------------------------------------------------
       Standard Nuclear Orientation (Angstroms)
    I     Atom         X            Y            Z
 ----------------------------------------------------
    1      C       0.005705     0.000000     0.015844
    2      C       0.004283     0.000000     1.334473
    3      H       0.945607     0.000000    -0.548313
    4      H      -0.922556     0.000000    -0.559261
    5      H      -0.959366     0.000000     1.860140
    6      C       1.220125     0.000000     2.187228
    7      H       2.135865     0.000000     1.578249
    8      H       1.243517     0.883225     2.845159
    9      H       1.243517    -0.883225     2.845159
 ----------------------------------------------------
 Nuclear Repulsion Energy =    71.0122490409 hartrees
 There are       12 alpha and       12 beta electrons

                       Distance Matrix (Angstroms)
             C (  1)   C (  2)   H (  3)   H (  4)   H (  5)   C (  6)
   C (  2)  1.318630
   H (  3)  1.096216  2.104988
   H (  4)  1.091978  2.108378  1.868195
   H (  5)  2.081535  1.097700  3.070760  2.419680
   C (  6)  2.487916  1.485080  2.749281  3.483430  2.203899
   H (  7)  2.641721  2.145476  2.437002  3.731339  3.108041  1.099743
   H (  8)  3.212053  2.144285  3.519160  4.130622  2.569639  1.101593
   H (  9)  3.212053  2.144285  3.519160  4.130622  2.569639  1.101593
             H (  7)   H (  8)
   H (  8)  1.783657
   H (  9)  1.783657  1.766451
 
 Requested basis set is G3large
 There are 66 shells and 186 basis functions
 A cutoff of  1.0D-11 yielded   2146 shell pairs
 There are  17154 function pairs ( 20715 Cartesian)
Evaluating contribution to one-electron hamiltonian from nuclear
 Smallest overlap matrix eigenvalue = 4.28E-05
 Multipole matrices computed through 2nd order
 Guess MOs from SCF MO coefficient file
Reading MOs from coefficient file
Reading MOs from coefficient file
 A restricted hybrid HF-DFT SCF calculation will be
 performed using Pulay DIIS extrapolation
 Exchange:     1.0000 Hartree-Fock + 1.0000 BNL
 Correlation:  1.0000 LYP
 Using SG-1 standard quadrature grid
 SCF converges when DIIS error is below 1.0E-08
 ---------------------------------------
  Cycle       Energy         DIIS Error
 ---------------------------------------
    1    -116.4599248637      5.51E-05
    2    -116.4599512444      6.47E-06
    3    -116.4599514988      2.26E-06
    4    -116.4599515249      3.28E-07
    5    -116.4599515266      1.15E-07
    6    -116.4599515269      4.86E-08
    7    -116.4599515281      9.14E-09 Convergence criterion met
 ---------------------------------------
 One-Electron    Energy =  -297.3043185576
 Total Coulomb   Energy =   126.7363007087
 Alpha Exchange  Energy =    -2.1623516832
 Beta  Exchange  Energy =    -2.1623516832
 DFT   Exchange  Energy =   -11.8210290459
 DFT Correlation Energy =    -0.7584503077
 Nuclear Repu.   Energy =    71.0122490409
 Nuclear Attr.   Energy =  -413.0454816632
 Kinetic         Energy =   115.7411631056
 SCF time:  CPU 73.95 s  wall 74.41 s
 Final Alpha MO Eigenvalues
            1           2           3           4           5           6
    1  -9.9551992  -9.9445157  -9.9389000  -0.9085229  -0.8003679  -0.6628708
            7           8           9          10          11          12
    1  -0.5817359  -0.5303369  -0.5237334  -0.4730311  -0.4438874  -0.3660276
           13          14          15          16          17
    1   0.0330002   0.0506873   0.0526915   0.0641324   0.0742464
 Analysis of SCF Wavefunction
 
 --------------------------------------------------------------
                    Orbital Energies (a.u.)
 --------------------------------------------------------------
 
 Alpha MOs
 -- Occupied --
 -9.955  -9.945  -9.939  -0.909  -0.800  -0.663  -0.582  -0.530
 -0.524  -0.473  -0.444  -0.366
 -- Virtual --
  0.033   0.051   0.053   0.064   0.074   0.081   0.087   0.123
  0.134   0.145   0.145   0.157   0.167   0.186   0.187   0.192
  0.198   0.209   0.216   0.257   0.261   0.273   0.290   0.339
  0.360   0.425   0.459   0.506   0.518   0.543   0.560   0.595
  0.600   0.625   0.626   0.641   0.644   0.656   0.683   0.728
  0.737   0.739   0.760   0.779   0.792   0.835   0.860   0.876
  0.919   0.957   1.010   1.035   1.037   1.103   1.112   1.183
  1.204   1.226   1.261   1.262   1.307   1.328   1.342   1.394
  1.415   1.442   1.489   1.508   1.532   1.537   1.579   1.613
  1.616   1.627   1.659   1.731   1.818   1.979   2.499   2.502
  2.624   2.664   2.715   2.764   2.770   2.777   2.845   2.852
  2.922   2.944   2.962   2.967   3.051   3.110   3.128   3.191
  3.191   3.195   3.232   3.250   3.285   3.311   3.329   3.371
  3.373   3.405   3.457   3.469   3.487   3.545   3.605   3.678
  3.742   3.770   3.779   3.819   3.865   3.914   3.929   3.981
  4.009   4.097   4.147   4.202   4.242   4.280   4.322   4.336
  4.353   4.417   4.459   4.522   4.590   4.594   4.666   4.741
  4.765   4.868   4.911   5.217   5.299   5.533   5.620   5.715
  5.719   5.741   6.074  24.065  24.431  24.919  27.338  27.548
 27.880  28.162  28.181  28.244  28.321  28.408  28.603  40.832
 40.917  40.939  40.962  41.007  41.194  41.204  41.238  41.254
 41.295  41.300  41.319  41.329  41.375  41.437
 --------------------------------------------------------------
 
          Ground-State Mulliken Net Atomic Charges

     Atom                 Charge (a.u.)
  ----------------------------------------
      1 C                    -0.423881
      2 C                     0.092298
      3 H                     0.118981
      4 H                     0.113989
      5 H                     0.153729
      6 C                    -0.401283
      7 H                     0.121873
      8 H                     0.112147
      9 H                     0.112147
  ----------------------------------------
  Sum of atomic charges =     0.000000

 -----------------------------------------------------------------
                    Cartesian Multipole Moments
 -----------------------------------------------------------------
    Charge (ESU x 10^10)
                 0.0000
    Dipole Moment (Debye)
         X       0.1534      Y       0.0000      Z       0.4150
       Tot       0.4425
    Quadrupole Moments (Debye-Ang)
        XX     -19.4998     XY       0.0000     YY     -22.4296
        XZ       0.1790     YZ       0.0000     ZZ     -18.5481
    Octapole Moments (Debye-Ang^2)
       XXX     -28.3728    XXY       0.0000    XYY      -9.0963
       YYY       0.0000    XXZ     -24.9992    XYZ       0.0000
       YYZ     -24.5925    XZZ      -9.2580    YZZ       0.0000
       ZZZ     -70.0821
    Hexadecapole Moments (Debye-Ang^3)
      XXXX    -118.7248   XXXY       0.0000   XXYY     -26.8408
      XYYY       0.0000   YYYY     -34.9836   XXXZ     -66.0225
      XXYZ       0.0000   XYYZ     -19.6542   YYYZ       0.0000
      XXZZ     -76.3574   XYZZ       0.0000   YYZZ     -58.8703
      XZZZ     -62.8163   YZZZ       0.0000   ZZZZ    -331.2956
 -----------------------------------------------------------------
 Calculating analytic gradient of the SCF energy
 Gradient of AOints
            1           2           3           4           5           6
    1   0.8895281   2.1878257  -2.4894383   2.6248021   2.8490167  -2.6840938
    2  -0.0000000   0.0000000   0.0000000   0.0000000   0.0000000  -0.0000000
    3   7.8850863  -5.0487296   1.8503334   1.8039646  -1.4852684  -2.2743886
            7           8           9
    1  -2.7425368  -0.3175519  -0.3175520
    2   0.0000000  -2.2425157   2.2425157
    3   1.2973599  -2.0141787  -2.0141788
 Gradient of XC Energy
            1           2           3           4           5           6
    1   0.0026244   0.0025184   0.1370328  -0.1406926  -0.1372167  -0.0065120
    2   0.0000000  -0.0000000  -0.0000000   0.0000000  -0.0000000   0.0000000
    3  -0.1405231   0.1473939  -0.0789580  -0.0843768   0.0726419  -0.0240916
            7           8           9
    1   0.1326410   0.0048024   0.0048024
    2  -0.0000000   0.1251487  -0.1251487
    3  -0.0867992   0.0973565   0.0973565
 Gradient of SCF Energy
            1           2           3           4           5           6
    1  -0.0011703   0.0001627   0.0004848   0.0004930  -0.0000058   0.0000802
    2   0.0000000   0.0000000  -0.0000000   0.0000000  -0.0000000  -0.0000000
    3  -0.0000109  -0.0000493  -0.0002250   0.0002019  -0.0000472   0.0001485
            7           8           9
    1  -0.0000219  -0.0000113  -0.0000113
    2  -0.0000000  -0.0000003   0.0000003
    3  -0.0000098  -0.0000041  -0.0000041
 Max gradient component =       1.170E-03
 RMS gradient           =       2.722E-04
 Gradient time:  CPU 50.97 s  wall 51.06 s
 Writing REM_CC_EA            9
 ----------------------------------------------------
       Standard Nuclear Orientation (Angstroms)
    I     Atom         X            Y            Z
 ----------------------------------------------------
    1      C       0.006705     0.001000     0.015844
    2      C       0.004283     0.000000     1.334473
    3      H       0.945607     0.000000    -0.548313
    4      H      -0.922556     0.000000    -0.559261
    5      H      -0.959366     0.000000     1.860140
    6      C       1.220125     0.000000     2.187228
    7      H       2.135865     0.000000     1.578249
    8      H       1.243517     0.883225     2.845159
    9      H       1.243517    -0.883225     2.845159
 ----------------------------------------------------
 Nuclear Repulsion Energy =    71.0139967379 hartrees
 There are       12 alpha and       12 beta electrons

                       Distance Matrix (Angstroms)
             C (  1)   C (  2)   H (  3)   H (  4)   H (  5)   C (  6)
   C (  2)  1.318631
   H (  3)  1.095359  2.104988
   H (  4)  1.092828  2.108378  1.868195
   H (  5)  2.081999  1.097700  3.070760  2.419680
   C (  6)  2.487428  1.485080  2.749281  3.483430  2.203899
   H (  7)  2.640915  2.145476  2.437002  3.731339  3.108041  1.099743
   H (  8)  3.211393  2.144285  3.519160  4.130622  2.569639  1.101593
   H (  9)  3.211943  2.144285  3.519160  4.130622  2.569639  1.101593
             H (  7)   H (  8)
   H (  8)  1.783657
   H (  9)  1.783657  1.766451
 
 Requested basis set is G3large
 There are 66 shells and 186 basis functions
 A cutoff of  1.0D-11 yielded   2146 shell pairs
 There are  17154 function pairs ( 20715 Cartesian)
Evaluating contribution to one-electron hamiltonian from nuclear
[...]
Order 1, Length 27
   0.0064068  -0.0000031  -0.5981992  -0.0255672  -0.0000054   0.8893190  -0.0005683  -0.0000001  -0.0128261   0.0040203  -0.0000018  -0.0124307   0.1119066  -0.0000005  -0.1126141  -0.0780836   0.0000040  -0.1363397   0.0157516   0.0000014   0.0114246  -0.0169307   0.0019871  -0.0141749  -0.0169321  -0.0019895  -0.0141773
Order 1, Length 27
  -0.2571280   0.0000015   0.1196259   0.0011468  -0.0000024  -0.0005683   0.2661352  -0.0000002  -0.1300869  -0.0136283  -0.0000004   0.0122385   0.0011364  -0.0000005  -0.0001737   0.0018826   0.0000001  -0.0016428   0.0004959   0.0000013   0.0007525  -0.0000216  -0.0000253  -0.0000741  -0.0000225   0.0000251  -0.0000748
Order 1, Length 27
   0.0000009  -0.0357800   0.0000018  -0.0000001   0.0082499  -0.0000001  -0.0000002   0.0229028   0.0000025   0.0000000   0.0023331  -0.0000029   0.0000007   0.0108630  -0.0000042  -0.0000009  -0.0089289   0.0000027   0.0000005   0.0002227   0.0000005  -0.0005280   0.0000725  -0.0012862   0.0005293   0.0000693   0.0012854
Order 1, Length 27
   0.1141092   0.0000016  -0.1220061   0.0282411   0.0000004  -0.0128261  -0.1300869   0.0000025   0.1279669  -0.0122798  -0.0000042   0.0094066  -0.0003542  -0.0000044  -0.0046448   0.0017915   0.0000033   0.0016410  -0.0011998  -0.0000008   0.0001266  -0.0001088   0.0000431   0.0001686  -0.0001101  -0.0000430   0.0001680
Order 1, Length 27
  -0.2603652   0.0000000  -0.1252968   0.0037806   0.0000000   0.0040203  -0.0136283   0.0000000  -0.0122798   0.2673247  -0.0000006   0.1338052   0.0013118   0.0000010  -0.0002916   0.0007678  -0.0000004   0.0003415   0.0005468  -0.0000022   0.0001673   0.0001295   0.0000806  -0.0002284   0.0001299  -0.0000808  -0.0002278
Order 1, Length 27
   0.0000007  -0.0342390   0.0000030  -0.0000001   0.0045956  -0.0000018  -0.0000004   0.0023331  -0.0000042  -0.0000006   0.0230166   0.0000010   0.0000008  -0.0079525   0.0000024   0.0000000   0.0129136  -0.0000014   0.0000000  -0.0002048  -0.0000001   0.0015588  -0.0002353   0.0016852  -0.0015601  -0.0002298  -0.0016854
Order 1, Length 27
  -0.1187868  -0.0000002  -0.1260470  -0.0279119   0.0000009  -0.0124307   0.0122385  -0.0000029   0.0094066   0.1338052   0.0000010   0.1322819   0.0000537   0.0000031   0.0009057   0.0016464  -0.0000024  -0.0032733  -0.0000027  -0.0000018   0.0001060  -0.0005218   0.0000459  -0.0004733  -0.0005202  -0.0000461  -0.0004721
Order 1, Length 27
   0.0025973   0.0000000  -0.0018011  -0.2589404   0.0000000   0.1119066   0.0011364   0.0000007  -0.0003542   0.0013118   0.0000008   0.0000537   0.2738322  -0.0000006  -0.1183314  -0.0183132   0.0000000   0.0117968  -0.0026236   0.0000019  -0.0030672   0.0004983  -0.0004478  -0.0000984   0.0004979   0.0004474  -0.0000991
Order 1, Length 27
  -0.0000005   0.0085506  -0.0000012   0.0000003  -0.0425497  -0.0000005  -0.0000005   0.0108630  -0.0000044   0.0000010  -0.0079525   0.0000031  -0.0000006   0.0255798   0.0000030   0.0000000   0.0033847  -0.0000016   0.0000000   0.0017264  -0.0000011   0.0005141   0.0001931   0.0005015  -0.0005146   0.0001982  -0.0005013
Order 1, Length 27
   0.0290566  -0.0000023  -0.0137956   0.1077419   0.0000041  -0.1126141  -0.0001737  -0.0000042  -0.0046448  -0.0002916   0.0000024   0.0009057  -0.1183314   0.0000030   0.1207873  -0.0165488  -0.0000029   0.0099090  -0.0032175  -0.0000010  -0.0016451   0.0008821  -0.0002518   0.0005482   0.0008843   0.0002513   0.0005496
Order 1, Length 27
   0.0010091  -0.0000019  -0.0050771  -0.2048335   0.0000023  -0.0780836   0.0018826  -0.0000009   0.0017915   0.0007678   0.0000000   0.0016464  -0.0183132   0.0000000  -0.0165488   0.5356648  -0.0000020  -0.0292955  -0.2247202  -0.0000028   0.1252292  -0.0457235  -0.0025771   0.0001664  -0.0457241   0.0025783   0.0001666
Order 1, Length 27
   0.0000005   0.0106256  -0.0000018   0.0000014  -0.0748217   0.0000040   0.0000001  -0.0089289   0.0000033  -0.0000004   0.0129136  -0.0000024   0.0000000   0.0033847  -0.0000029  -0.0000020   0.5263266   0.0000018   0.0000006  -0.0447623   0.0000000  -0.0029934  -0.2123626  -0.1265151   0.0029953  -0.2123681   0.1265131
Order 1, Length 27
  -0.0320348  -0.0000019  -0.0227112  -0.0692578   0.0000011  -0.1363397  -0.0016428   0.0000027   0.0016410   0.0003415  -0.0000014  -0.0032733   0.0117968  -0.0000016   0.0099090  -0.0292955   0.0000018   0.5465003   0.1217410  -0.0000000  -0.1302782  -0.0008248  -0.1263514  -0.1327214  -0.0008270   0.1263520  -0.1327224
Order 1, Length 27
   0.0024891  -0.0000003   0.0014681  -0.0239014  -0.0000011   0.0157516   0.0004959   0.0000005  -0.0011998   0.0005468   0.0000000  -0.0000027  -0.0026236   0.0000000  -0.0032175  -0.2247202   0.0000006   0.1217410   0.2447615   0.0000013  -0.1314436   0.0014744   0.0004241  -0.0015466   0.0014743  -0.0004250  -0.0015468
Order 1, Length 27
   0.0000009  -0.0007330   0.0000041  -0.0000004  -0.0005483   0.0000014   0.0000013   0.0002227  -0.0000008  -0.0000022  -0.0002048  -0.0000018   0.0000019   0.0017264  -0.0000010  -0.0000028  -0.0447623  -0.0000000   0.0000013   0.0416791  -0.0000002   0.0207532   0.0013107  -0.0126568  -0.0207530   0.0013122   0.0126555
Order 1, Length 27
  -0.0012640   0.0000015   0.0018179  -0.0165492  -0.0000002   0.0114246   0.0007525   0.0000005   0.0001266   0.0001673  -0.0000001   0.0001060  -0.0030672  -0.0000011  -0.0016451   0.1252292   0.0000000  -0.1302782  -0.1314436  -0.0000002   0.1370648   0.0130892   0.0020514  -0.0093090   0.0130893  -0.0020516  -0.0093093
Order 1, Length 27
  -0.0026750   0.0007695  -0.0008994   0.0013183  -0.0228303  -0.0169307  -0.0000216  -0.0005280  -0.0001088   0.0001295   0.0015588  -0.0005218   0.0004983   0.0005141   0.0008821  -0.0457235  -0.0029934  -0.0008248   0.0014744   0.0207532   0.0130892   0.0459487   0.0027551   0.0048924  -0.0009503   0.0000013   0.0004224
Order 1, Length 27
  -0.0000962  -0.0000234   0.0006990  -0.0001089   0.0029891   0.0019871  -0.0000253   0.0000725   0.0000431   0.0000806  -0.0002353   0.0000459  -0.0004478   0.0001931  -0.0002518  -0.0025771  -0.2123626  -0.1263514   0.0004241   0.0013107   0.0020514   0.0027551   0.2275824   0.1367808  -0.0000030  -0.0195301  -0.0150036
Order 1, Length 27
  -0.0027995   0.0004069   0.0000632  -0.0007339  -0.0139231  -0.0141749  -0.0000741  -0.0012862   0.0001686  -0.0002284   0.0016852  -0.0004733  -0.0000984   0.0005015   0.0005482   0.0001664  -0.1265151  -0.1327214  -0.0015466  -0.0126568  -0.0093090   0.0048924   0.1367808   0.1442296   0.0004230   0.0150039   0.0116708
Order 1, Length 27
  -0.0026743  -0.0007703  -0.0008990   0.0013193   0.0228314  -0.0169321  -0.0000225   0.0005293  -0.0001101   0.0001299  -0.0015601  -0.0005202   0.0004979  -0.0005146   0.0008843  -0.0457241   0.0029953  -0.0008270   0.0014743  -0.0207530   0.0130893  -0.0009503  -0.0000030   0.0004230   0.0459487  -0.0027541   0.0048929
Order 1, Length 27
   0.0000966  -0.0000215  -0.0006966   0.0001091   0.0029874  -0.0019895   0.0000251   0.0000693  -0.0000430  -0.0000808  -0.0002298  -0.0000461   0.0004474   0.0001982   0.0002513   0.0025783  -0.2123681   0.1263520  -0.0004250   0.0013122  -0.0020516   0.0000013  -0.0195301   0.0150039  -0.0027541   0.2275825  -0.1367806
Order 1, Length 27
  -0.0027994  -0.0004059   0.0000637  -0.0007334   0.0139228  -0.0141773  -0.0000748   0.0012854   0.0001680  -0.0002278  -0.0016854  -0.0004721  -0.0000991  -0.0005013   0.0005496   0.0001666   0.1265131  -0.1327224  -0.0015468   0.0126555  -0.0093093   0.0004224  -0.0150036   0.0116708   0.0048929  -0.1367806   0.1442305


 # Finishing finite difference calculation for IDERIV #
 ######################################################
 ######################################################
 Requested basis set is G3large
 There are 66 shells and 186 basis functions
 **********************************************************************
 **                                                                  **
 **                       VIBRATIONAL ANALYSIS                       **
 **                       --------------------                       **
 **                                                                  **
 **        VIBRATIONAL FREQUENCIES (CM**-1) AND NORMAL MODES         **
 **     FORCE CONSTANTS (mDYN/ANGSTROM) AND REDUCED MASSES (AMU)     **
 **                  INFRARED INTENSITIES (KM/MOL)                   **
 **                                                                  **
 **********************************************************************
 

 Mode:                 1                      2                      3
 Frequency:       196.56                 427.90                 588.85
 Force Cnst:      0.0263                 0.2053                 0.2401
 Red. Mass:       1.1563                 1.9032                 1.1753
 IR Active:          YES                    YES                    YES
 IR Intens:        0.607                  1.142                 15.602
 Raman Active:       YES                    YES                    YES
               X      Y      Z        X      Y      Z        X      Y      Z
 C          0.000 -0.067  0.000   -0.125  0.000 -0.098    0.000  0.026  0.000
 C          0.000  0.094  0.000    0.166  0.000 -0.090    0.000 -0.121  0.000
 H          0.000 -0.232  0.000   -0.331  0.000 -0.440    0.000 -0.409  0.000
 H          0.000 -0.049  0.000   -0.334  0.000  0.236    0.000  0.661  0.000
 H          0.000  0.243  0.000    0.181  0.000 -0.054    0.000  0.342  0.000
 C          0.000 -0.009  0.000    0.017  0.000  0.143    0.000  0.004  0.000
 H          0.000  0.470  0.000    0.227  0.000  0.459    0.000  0.237  0.000
 H         -0.193 -0.325  0.427   -0.220 -0.008  0.164   -0.262  0.121 -0.143
 H          0.193 -0.325 -0.427   -0.220  0.008  0.164    0.262  0.121  0.143
 TransDip   0.000 -0.025  0.000    0.012  0.000  0.032    0.000  0.126  0.000

 Mode:                 4                      5                      6
 Frequency:       929.55                 943.95                 945.94
 Force Cnst:      0.5855                 1.1365                 0.6779
 Red. Mass:       1.1500                 2.1648                 1.2858
 IR Active:          YES                    YES                    YES
 IR Intens:        5.317                  4.093                 57.352
 Raman Active:       YES                    YES                    YES
               X      Y      Z        X      Y      Z        X      Y      Z
 C         -0.068  0.000  0.014   -0.112  0.000 -0.131    0.000 -0.156  0.000
 C          0.005  0.000 -0.002   -0.124  0.000 -0.047    0.000  0.014  0.000
 H          0.175  0.000  0.415    0.111 -0.001  0.222    0.000  0.739  0.000
 H          0.168  0.000 -0.358    0.168 -0.001 -0.599    0.000  0.612  0.000
 H          0.192  0.000  0.345   -0.149  0.000 -0.076    0.000  0.153  0.000
 C          0.045  0.000 -0.078    0.150  0.000  0.188    0.000  0.027  0.000
 H          0.336  0.000  0.368    0.043  0.000  0.011    0.000 -0.066  0.000
 H         -0.331 -0.047  0.004    0.427  0.017  0.160    0.079 -0.034  0.076
 H         -0.331  0.047  0.004    0.427 -0.017  0.160   -0.079 -0.034 -0.076
 TransDip  -0.006  0.000  0.074    0.009  0.000 -0.064    0.000  0.243  0.000

 Mode:                 7                      8                      9
 Frequency:      1008.55                1062.30                1178.82
 Force Cnst:      0.6434                 1.0765                 1.4518
 Red. Mass:       1.0736                 1.6191                 1.7733
 IR Active:          YES                    YES                    YES
 IR Intens:        9.130                  0.720                  0.265
 Raman Active:       YES                    YES                    YES
               X      Y      Z        X      Y      Z        X      Y      Z
 C          0.000  0.015  0.000    0.000 -0.061  0.000   -0.088  0.000 -0.017
 C          0.000 -0.014  0.000    0.000  0.181  0.000    0.197  0.000 -0.012
 H          0.000  0.420  0.000    0.000  0.023  0.000    0.117  0.000  0.306
 H          0.000 -0.448  0.000    0.000  0.170  0.000    0.104  0.000 -0.319
 H          0.000  0.636  0.000    0.000 -0.571  0.000    0.369  0.000  0.297
 C          0.000 -0.075  0.000    0.000 -0.138  0.000   -0.138  0.000  0.061
 H          0.000  0.126  0.000    0.000  0.303  0.000   -0.466  0.000 -0.436
 H         -0.240  0.077 -0.188   -0.333  0.140 -0.344    0.111  0.116 -0.116
 H          0.240  0.077  0.188    0.333  0.140  0.344    0.111 -0.116 -0.116
 TransDip   0.000  0.097  0.000    0.000 -0.027  0.000    0.011  0.000  0.012

 Mode:                10                     11                     12
 Frequency:      1299.92                1369.41                1412.68
 Force Cnst:      1.2244                 1.3648                 1.4379
 Red. Mass:       1.2298                 1.2352                 1.2229
 IR Active:          YES                    YES                    YES
 IR Intens:        0.208                  9.707                  1.230
 Raman Active:       YES                    YES                    YES
               X      Y      Z        X      Y      Z        X      Y      Z
 C          0.077  0.000 -0.074   -0.002  0.000 -0.004    0.025  0.000 -0.043
 C         -0.086  0.000  0.030    0.017  0.000 -0.045   -0.063  0.000 -0.075
 H         -0.143  0.000 -0.451    0.153  0.000  0.272    0.269  0.000  0.386
 H          0.050  0.000 -0.052   -0.150  0.000  0.251   -0.310  0.000  0.515
 H          0.322  0.000  0.795    0.088  0.000  0.072    0.091  0.000  0.217
 C         -0.020  0.000  0.011   -0.120  0.000 -0.064    0.044  0.000  0.075
 H         -0.022  0.000  0.013    0.217  0.000  0.423    0.003  0.000 -0.003
 H          0.073 -0.019  0.041    0.471 -0.173  0.164   -0.062  0.275 -0.303
 H          0.073  0.019  0.041    0.471  0.173  0.164   -0.062 -0.275 -0.303
 TransDip   0.013  0.000 -0.007    0.082  0.000  0.057   -0.033  0.000 -0.013

 Mode:                13                     14                     15
 Frequency:      1429.19                1445.09                1752.77
 Force Cnst:      1.2537                 1.3159                10.0553
 Red. Mass:       1.0417                 1.0695                 5.5551
 IR Active:          YES                    YES                    YES
 IR Intens:       11.623                 24.039                 18.679
 Raman Active:       YES                    YES                    YES
               X      Y      Z        X      Y      Z        X      Y      Z
 C          0.000  0.001  0.000    0.004  0.000 -0.045   -0.010  0.000 -0.412
 C          0.000 -0.022  0.000   -0.011  0.000 -0.028    0.083  0.000  0.480
 H          0.000  0.013  0.000    0.161  0.000  0.221    0.410  0.000  0.156
 H          0.000 -0.004  0.000   -0.169  0.000  0.244   -0.394  0.000  0.078
 H          0.000  0.049  0.000    0.055  0.000  0.094   -0.353  0.000 -0.197
 C          0.000 -0.051  0.000    0.051  0.000 -0.012   -0.042  0.000 -0.064
 H          0.000  0.706  0.000   -0.222  0.000 -0.400    0.090  0.000  0.149
 H          0.480  0.045 -0.124   -0.174 -0.308  0.425   -0.063  0.040 -0.118
 H         -0.480  0.045  0.125   -0.174  0.308  0.425   -0.063 -0.040 -0.118
 TransDip   0.000  0.109  0.000   -0.075  0.000  0.138    0.056  0.000  0.127

 Mode:                16                     17                     18
 Frequency:      3001.63                3068.08                3083.87
 Force Cnst:      5.5079                 6.1063                 6.1074
 Red. Mass:       1.0376                 1.1010                 1.0900
 IR Active:          YES                    YES                    YES
 IR Intens:       10.856                  5.647                  0.407
 Raman Active:       YES                    YES                    YES
               X      Y      Z        X      Y      Z        X      Y      Z
 C          0.000  0.000 -0.001    0.000  0.000  0.000    0.000  0.000  0.022
 C          0.000  0.000  0.002    0.000 -0.001  0.000   -0.044  0.000  0.022
 H         -0.009  0.000  0.003    0.000 -0.001  0.000    0.223  0.000 -0.127
 H          0.006  0.000  0.002    0.000  0.000  0.000   -0.220  0.000 -0.129
 H          0.012  0.000 -0.009    0.000  0.001  0.000    0.522  0.000 -0.285
 C         -0.038  0.000 -0.035    0.000 -0.092  0.000    0.042  0.000 -0.052
 H          0.429  0.000 -0.295    0.000 -0.015  0.000   -0.508  0.000  0.342
 H          0.006  0.488  0.353    0.011  0.559  0.427    0.009  0.213  0.146
 H          0.006 -0.488  0.353   -0.011  0.559 -0.427    0.009 -0.213  0.146
 TransDip  -0.075  0.000 -0.074    0.000 -0.076  0.000   -0.012  0.000 -0.017

 Mode:                19                     20                     21
 Frequency:      3092.33                3103.54                3182.33
 Force Cnst:      6.0448                 6.2186                 6.6633
 Red. Mass:       1.0729                 1.0958                 1.1167
 IR Active:          YES                    YES                    YES
 IR Intens:       10.479                  7.141                  5.956
 Raman Active:       YES                    YES                    YES
               X      Y      Z        X      Y      Z        X      Y      Z
 C         -0.010  0.000  0.056    0.017  0.000 -0.035   -0.098  0.000 -0.013
 C         -0.013  0.000  0.000   -0.057  0.000  0.040   -0.010  0.000  0.007
 H          0.559  0.000 -0.331   -0.361  0.000  0.213    0.491  0.000 -0.302
 H         -0.438  0.000 -0.261    0.158  0.000  0.093    0.682  0.000  0.424
 H          0.150  0.000 -0.078    0.680  0.000 -0.369    0.101  0.000 -0.056
 C         -0.031  0.000  0.039   -0.023  0.000  0.033   -0.001  0.000  0.002
 H          0.383  0.000 -0.254    0.298  0.000 -0.199    0.015  0.000 -0.007
 H         -0.007 -0.157 -0.108   -0.009 -0.135 -0.097    0.000 -0.006 -0.005
 H         -0.007  0.157 -0.108   -0.009  0.135 -0.097    0.000  0.006 -0.005
 TransDip  -0.074  0.000  0.073   -0.077  0.000  0.037   -0.078  0.000 -0.001

 STANDARD THERMODYNAMIC QUANTITIES AT   298.18 K  AND     1.00 ATM

   This Molecule has  0 Imaginary Frequencies
   Zero point vibrational energy:       49.353 kcal/mol

   Atom    1 Element C  Has Mass   12.00000
   Atom    2 Element C  Has Mass   12.00000
   Atom    3 Element H  Has Mass    1.00783
   Atom    4 Element H  Has Mass    1.00783
   Atom    5 Element H  Has Mass    1.00783
   Atom    6 Element C  Has Mass   12.00000
   Atom    7 Element H  Has Mass    1.00783
   Atom    8 Element H  Has Mass    1.00783
   Atom    9 Element H  Has Mass    1.00783
   Molecular Mass:    42.046980 amu
   Principal axes and moments of inertia in atomic units:
                             1           2           3
    Eigenvalues --       38.59777   190.87467   218.24222
          X               0.50559     0.86277     0.00000
          Y               0.00000     0.00000     1.00000
          Z               0.86277    -0.50559     0.00000
   Rotational Symmetry Number is   1
   The Molecule is an Asymmetric Top
   Translational Enthalpy:        0.889 kcal/mol
   Rotational Enthalpy:           0.889 kcal/mol
   Vibrational Enthalpy:         50.156 kcal/mol
   gas constant (RT):             0.593 kcal/mol
   Translational Entropy:        37.136  cal/mol.K
   Rotational Entropy:           22.002  cal/mol.K
   Vibrational Entropy:           4.166  cal/mol.K

   Total Enthalpy:               52.526 kcal/mol
   Total Entropy:                63.304  cal/mol.K
 Total job time:  7314.26s(wall), 7261.23s(cpu) 
 Sat Apr 23 16:01:22 2011

        *************************************************************
        *                                                           *
        *  Thank you very much for using Q-Chem.  Have a nice day.  *
        *                                                           *
        *************************************************************


0 sent ACK to 0 
now end server 0 ... 
