Process 0 of 1 is on cl147.stfx.acenet.ca - thread support 1
initial socket setup ...start
initial socket setup ...done 
now start server 0 ... 

cmd = /usr/bin/ssh clhead /usr/local/qchem/bin/get_hostid 672366124 > /scratch/tmp/4503875.1.medium.q/qchem23455/lic.dat
                  Welcome to Q-Chem
     A Quantum Leap Into The Future Of Chemistry

 Y. Shao, L. Fusti-Molnar, Y. Jung, J. Kussmann, C. Ochsenfeld,
 S. T. Brown, A. T. B. Gilbert, L. V. Slipchenko,S. V. Levchenko,
 D. P. O'Neill, R. A. DiStasio Jr., R. C. Lochan, T. Wang,
 G. J. O. Beran, N. A. Besley, J. M. Herbert, C. Y. Lin,
 T. Van Voorhis, S. H. Chien, A. Sodt, R. P. Steele, 
 V. A. Rassolov, P. E. Maslen, P. P. Korambath, R. D. Adamson,
 B. Austin, J. Baker, E. F. C. Byrd, H. Dachsel, R. J. Doerksen,
 A. Dreuw, B. D. Dunietz, A. D. Dutoi, T. R. Furlani,
 S. R. Gwaltney, A. Heyden, S. Hirata, C.-P. Hsu, G. Kedziora,
 R. Z. Khaliullin, P. Klunzinger, A. M. Lee, M. S. Lee, W. Liang,
 I. Lotan, N. Nair, B. Peters, E. I. Proynov, P. A. Pieniazek, 
 Y. M. Rhee, J. Ritchie, E. Rosta, C. D. Sherrill, 
 A. C. Simmonett, J. E. Subotnik, H. L. Woodcock III,
 W. Zhang, A. T. Bell, A. K. Chakraborty, D. M. Chipman,
 F. J. Keil, A. Warshel, W. J. Hehre, H. F. Schaefer III,
 J. Kong, A. I. Krylov, P. M. W. Gill, M. Head-Gordon,
 Q-Chem, Version 3.1, Q-Chem, Inc., Pittsburgh, PA (2007).

 Additional authors for Version 3.1: 
 Z. Gan, Y. Zhao, N. E. Schultz, D. Truhlar, E. Epifanovsky and M. Oana.

 Additional authors for Version 3.2: 
 R. Baer, B. R. Brooks, D. Casanova, J.-D. Chai, C.-L. Cheng, 
 C. Cramer, D. Crittenden, A. Ghysels, G. Hawkins, E. G. Hohenstein, 
 C. Kelley, W. Kurlancheek, D. Liotard, E. Livshits, P. Manohar, 
 A. Marenich, D. Neuhauser, R. Olson, M. A. Rohrdanz, K. S. Thanthiriwatte, 
 A. J. W. Thom, V. Vanovschi, C. F. Williams, Q. Wu and Z.-Q. You. 


 Intel X86 Linux Version

 Q-chem begins on Sun Apr 17 19:54:30 2011  

 Parallel job on  1  processors
Processing $rem in /usr/local/qchem/config/preferences.

theFileMan(): MAXOPENFILES=974 MAX_SUB_FILE_NUM=16
Maximum size of a physical file is 2.0 GB, maximum size of a tmp-file is 32.0 GB


--------------------------------------------------------------
User input:
--------------------------------------------------------------

$molecule
0,1
F
H,1,R

 R=0.933891

$end

$comment
neutral
$end

$xc_functional
   X HF 1.0
   X BNL 1.0
   C LYP 1.0
$end

$rem
SYMMETRY_DECOMPOSITION	0
exchange 		general
BASIS                   g3large
omega			650 
JOBTYPE                 opt
separate_jk		true
mem_static              760
max_scf_cycles          200
scf_final_print         1
sym_ignore              true
$end


--------------------------------------------------------------
 Writing REM_CC_EA            2
 ----------------------------------------------------
       Standard Nuclear Orientation (Angstroms)
    I     Atom         X            Y            Z
 ----------------------------------------------------
    1      F       0.000000     0.000000     0.000000
    2      H       0.000000     0.000000     0.933891
 ----------------------------------------------------
 Nuclear Repulsion Energy =     5.0997331564 hartrees
 There are        5 alpha and        5 beta electrons
 Requested basis set is G3large
 There are 16 shells and 52 basis functions

Total QAlloc Memory Limit   2000 MB
Mega-Array Size       743 MB
MEM_STATIC part       760 MB
 A cutoff of  1.0D-11 yielded    136 shell pairs
 There are   1462 function pairs (  1834 Cartesian)
Evaluating contribution to one-electron hamiltonian from nuclear
 Smallest overlap matrix eigenvalue = 5.47E-03
 Multipole matrices computed through 2nd order

  Scale SEOQF with 1.000000e+00/1.000000e+00/1.000000e-01

 Standard Electronic Orientation quadrupole field applied
 Guess from superposition of atomic densities
 Warning:  Energy on first SCF cycle will be non-variational
 A restricted hybrid HF-DFT SCF calculation will be
 performed using Pulay DIIS extrapolation
 Exchange:     1.0000 Hartree-Fock + 1.0000 BNL
 Correlation:  1.0000 LYP
 Using SG-1 standard quadrature grid
 SCF converges when DIIS error is below 1.0E-08
 ---------------------------------------
  Cycle       Energy         DIIS Error
 ---------------------------------------
    1     -99.6703475194      4.64E-02
    2     -99.7578794248      1.14E-02
    3     -99.7716036424      9.73E-03
    4     -99.7868482045      7.50E-04
    5     -99.7869318795      1.53E-04
    6     -99.7869394292      2.40E-05
    7     -99.7869398267      3.66E-06
    8     -99.7869398396      7.84E-07
    9     -99.7869398402      1.35E-07
   10     -99.7869398403      1.92E-08
   11     -99.7869398403      2.69E-09 Convergence criterion met
 ---------------------------------------
 One-Electron    Energy =  -150.2497655884
 Total Coulomb   Energy =    55.4580867684
 Alpha Exchange  Energy =    -1.5462047740
 Beta  Exchange  Energy =    -1.5462047740
 DFT   Exchange  Energy =    -6.6406176121
 DFT Correlation Energy =    -0.3619670166
 Nuclear Repu.   Energy =     5.0997331563
 Nuclear Attr.   Energy =  -249.6910751857
 Kinetic         Energy =    99.4413095973
 SCF time:  CPU 5.82 s  wall 7.22 s
 Final Alpha MO Eigenvalues
            1           2           3           4           5           6
    1 -24.3942079  -1.4138444  -0.7353960  -0.6082591  -0.6082591   0.0295050
            7           8           9          10
    1   0.1793647   0.2722804   0.2722804   0.2818154
 Analysis of SCF Wavefunction
 
 --------------------------------------------------------------
                    Orbital Energies (a.u.)
 --------------------------------------------------------------
 
 Alpha MOs
 -- Occupied --
-24.394  -1.414  -0.735  -0.608  -0.608
 -- Virtual --
  0.030   0.179   0.272   0.272   0.282   0.378   0.583   0.812
  0.812   1.244   1.425   1.425   1.507   1.896   2.176   2.176
  2.320   2.420   2.420   3.335   3.902   3.902   4.558   6.299
  6.299   6.620   6.815   6.815   6.851   6.851   7.171   7.171
  8.396   9.231   9.231   9.403   9.403  10.074  50.163  50.225
 50.296  50.296  50.475  55.813  55.813  56.224  67.009
 --------------------------------------------------------------
 
          Ground-State Mulliken Net Atomic Charges

     Atom                 Charge (a.u.)
  ----------------------------------------
      1 F                    -0.377678
      2 H                     0.377678
  ----------------------------------------
  Sum of atomic charges =     0.000000

 -----------------------------------------------------------------
                    Cartesian Multipole Moments
 -----------------------------------------------------------------
    Charge (ESU x 10^10)
                 0.0000
    Dipole Moment (Debye)
         X       0.0000      Y       0.0000      Z       2.0363
       Tot       2.0363
    Quadrupole Moments (Debye-Ang)
        XX      -5.9051     XY       0.0000     YY      -5.9051
        XZ       0.0000     YZ       0.0000     ZZ      -3.2944
    Octapole Moments (Debye-Ang^2)
       XXX       0.0000    XXY       0.0000    XYY       0.0000
       YYY       0.0000    XXZ      -0.3557    XYZ       0.0000
       YYZ      -0.3557    XZZ       0.0000    YZZ       0.0000
       ZZZ       1.1293
    Hexadecapole Moments (Debye-Ang^3)
      XXXX      -4.1377   XXXY       0.0000   XXYY      -1.3792
      XYYY       0.0000   YYYY      -4.1377   XXXZ       0.0000
      XXYZ       0.0000   XYYZ       0.0000   YYYZ       0.0000
      XXZZ      -1.5783   XYZZ       0.0000   YYZZ      -1.5783
      XZZZ       0.0000   YZZZ       0.0000   ZZZZ      -2.9588
 -----------------------------------------------------------------
 Calculating analytic gradient of the SCF energy
 Gradient of AOints
            1           2
    1   0.0000000  -0.0000000
    2   0.0000000  -0.0000000
    3   3.4184739  -3.4184739
 Gradient of XC Energy
            1           2
    1  -0.0000000   0.0000000
    2  -0.0000000   0.0000000
    3  -0.2230833   0.2230833
 Gradient of SCF Energy
            1           2
    1  -0.0000000   0.0000000
    2  -0.0000000   0.0000000
    3  -0.0201872   0.0201872
 Max gradient component =       2.019E-02
 RMS gradient           =       1.166E-02
 Gradient time:  CPU 1.42 s  wall 2.29 s
 Geometry Optimization Parameters
   NAtoms,    NIC,     NZ,  NCons,   NDum,   NFix, NCnnct, MaxDiis
        2       5       2       0       0       0       0       0


** GEOMETRY OPTIMIZATION IN DELOCALIZED INTERNAL COORDINATES **
   Searching for a Minimum

   Optimization Cycle:   1

                       Coordinates (Angstroms)
     ATOM              X           Y           Z
    1  F           0.000000    0.000000    0.000000
    2  H           0.000000    0.000000    0.933891
   Point Group: c1    Number of degrees of freedom:   0


   Energy is    -99.786939840


 Attempting to Generate Delocalized Internal Coordinates

  ***ERROR*** Wrong Number of Internal Coordinates
              Should be:   0  Found:   1
**WARNING** Problems with Internal Coordinates
  Switching to Cartesian Coordinates

 Translations and Rotations Projected Out of Hessian

  1 Hessian modes will be used to form the next step
  Hessian Eigenvalues:
     1.000000

 Minimum Search - Taking Simple RFO Step
 Searching for Lamda that Minimizes Along All modes
 Value Taken    Lamda =  -0.00081505
 Step Taken.  Stepsize is  0.028526

                             Maximum     Tolerance    Cnvgd?
         Gradient           0.020187      0.000300      NO
         Displacement       0.020171      0.001200      NO
         Energy change     *********      0.000001      NO

 Writing REM_CC_EA            2
 ----------------------------------------------------
       Standard Nuclear Orientation (Angstroms)
    I     Atom         X            Y            Z
 ----------------------------------------------------
    1      F       0.000000     0.000000     0.010674
    2      H       0.000000     0.000000     0.923217
 ----------------------------------------------------
 Nuclear Repulsion Energy =     5.2190351142 hartrees
 There are        5 alpha and        5 beta electrons
 Applying Cartesian multipole field
    Component          Value
    ---------          -----
     (2,0,0)        1.00000E-10
     (0,2,0)        2.00000E-10
     (0,0,2)       -3.00000E-11
 Requested basis set is G3large
 There are 16 shells and 52 basis functions
 A cutoff of  1.0D-11 yielded    136 shell pairs
 There are   1462 function pairs (  1834 Cartesian)
Evaluating contribution to one-electron hamiltonian from nuclear
 Smallest overlap matrix eigenvalue = 4.80E-03
 Multipole matrices computed through 2nd order
 Guess MOs from SCF MO coefficient file
Reading MOs from coefficient file
Reading MOs from coefficient file
 A restricted hybrid HF-DFT SCF calculation will be
 performed using Pulay DIIS extrapolation
 Exchange:     1.0000 Hartree-Fock + 1.0000 BNL
 Correlation:  1.0000 LYP
 Using SG-1 standard quadrature grid
 SCF converges when DIIS error is below 1.0E-08
 Warning!  Inaccurate integrated density:
   Number of electrons =    10
   Numerical integral  =    10.010365496498
   Relative error      =     0.1036549650 %
 ---------------------------------------
  Cycle       Energy         DIIS Error
 ---------------------------------------
    1     -99.8024395578      1.77E-03
    2     -99.7872308540      3.53E-04
    3     -99.7872517920      1.40E-04
    4     -99.7872541007      4.82E-05
    5     -99.7872544978      1.10E-05
    6     -99.7872545314      1.10E-06
    7     -99.7872545323      1.31E-07
    8     -99.7872545323      1.61E-08
    9     -99.7872545323      1.91E-09 Convergence criterion met
 ---------------------------------------
 One-Electron    Energy =  -150.4489177279
 Total Coulomb   Energy =    55.5486436823
 Alpha Exchange  Energy =    -1.5476795137
 Beta  Exchange  Energy =    -1.5476795137
 DFT   Exchange  Energy =    -6.6483665295
 DFT Correlation Energy =    -0.3622900440
 Nuclear Repu.   Energy =     5.2190351141
 Nuclear Attr.   Energy =  -249.9321796419
 Kinetic         Energy =    99.4832619140
 SCF time:  CPU 4.70 s  wall 5.57 s
 Final Alpha MO Eigenvalues
            1           2           3           4           5           6
    1 -24.3942670  -1.4209621  -0.7413681  -0.6106014  -0.6106014   0.0307279
            7           8           9          10
    1   0.1833617   0.2719132   0.2719132   0.2820230
 Analysis of SCF Wavefunction
 
 --------------------------------------------------------------
                    Orbital Energies (a.u.)
 --------------------------------------------------------------
 
 Alpha MOs
 -- Occupied --
-24.394  -1.421  -0.741  -0.611  -0.611
 -- Virtual --
  0.031   0.183   0.272   0.272   0.282   0.379   0.595   0.818
  0.818   1.246   1.423   1.423   1.516   1.893   2.174   2.174
  2.301   2.430   2.430   3.381   3.914   3.914   4.599   6.301
  6.301   6.638   6.811   6.811   6.849   6.849   7.213   7.213
  8.518   9.229   9.229   9.411   9.411  10.077  50.162  50.224
 50.299  50.299  50.476  55.815  55.815  56.277  67.016
 --------------------------------------------------------------
 
          Ground-State Mulliken Net Atomic Charges

     Atom                 Charge (a.u.)
  ----------------------------------------
      1 F                    -0.371049
      2 H                     0.371049
  ----------------------------------------
  Sum of atomic charges =     0.000000

 -----------------------------------------------------------------
                    Cartesian Multipole Moments
 -----------------------------------------------------------------
    Charge (ESU x 10^10)
                 0.0000
    Dipole Moment (Debye)
         X       0.0000      Y       0.0000      Z       1.9918
       Tot       1.9918
    Quadrupole Moments (Debye-Ang)
        XX      -5.8824     XY       0.0000     YY      -5.8824
        XZ       0.0000     YZ       0.0000     ZZ      -3.3334
    Octapole Moments (Debye-Ang^2)
       XXX       0.0000    XXY       0.0000    XYY       0.0000
       YYY       0.0000    XXZ      -0.3994    XYZ       0.0000
       YYZ      -0.3994    XZZ       0.0000    YZZ       0.0000
       ZZZ       0.9240
    Hexadecapole Moments (Debye-Ang^3)
      XXXX      -4.1078   XXXY       0.0000   XXYY      -1.3693
      XYYY       0.0000   YYYY      -4.1078   XXXZ       0.0000
      XXYZ       0.0000   XYYZ       0.0000   YYYZ       0.0000
      XXZZ      -1.5554   XYZZ       0.0000   YYZZ      -1.5554
      XZZZ       0.0000   YZZZ       0.0000   ZZZZ      -2.9698
 -----------------------------------------------------------------
 Calculating analytic gradient of the SCF energy
 Gradient of AOints
            1           2
    1   0.0000000  -0.0000000
    2   0.0000000  -0.0000000
    3   3.4965239  -3.4965239
 Gradient of XC Energy
            1           2
    1  -0.0000000   0.0000000
    2  -0.0000000   0.0000000
    3  -0.2320766   0.2320766
 Gradient of SCF Energy
            1           2
    1   0.0000000  -0.0000000
    2   0.0000000  -0.0000000
    3   0.0052327  -0.0052327
 Max gradient component =       5.233E-03
 RMS gradient           =       3.021E-03
 Gradient time:  CPU 1.33 s  wall 1.56 s
 Geometry Optimization Parameters
   NAtoms,    NIC,     NZ,  NCons,   NDum,   NFix, NCnnct, MaxDiis
        2       5       2       0       0       0       0       0

 Cartesian Hessian Update
 Hessian Updated using BFGS Update


** GEOMETRY OPTIMIZATION IN CARTESIAN COORDINATES **
   Searching for a Minimum

   Optimization Cycle:   2

                       Coordinates (Angstroms)
     ATOM              X           Y           Z
    1  F           0.000000    0.000000    0.010674
    2  H           0.000000    0.000000    0.923217
   Point Group: c1    Number of degrees of freedom:   0


   Energy is    -99.787254532


 Translations and Rotations Projected Out of Hessian

  1 Hessian modes will be used to form the next step
  Hessian Eigenvalues:
     1.260235

 Minimum Search - Taking Simple RFO Step
 Searching for Lamda that Minimizes Along All modes
 Value Taken    Lamda =  -0.00004345
 Step Taken.  Stepsize is  0.005872

                             Maximum     Tolerance    Cnvgd?
         Gradient           0.005233      0.000300      NO
         Displacement       0.004152      0.001200      NO
         Energy change     -0.000315      0.000001      NO

 Writing REM_CC_EA            2
 ----------------------------------------------------
       Standard Nuclear Orientation (Angstroms)
    I     Atom         X            Y            Z
 ----------------------------------------------------
    1      F       0.000000     0.000000     0.008477
    2      H       0.000000     0.000000     0.925414
 ----------------------------------------------------
 Nuclear Repulsion Energy =     5.1940235094 hartrees
 There are        5 alpha and        5 beta electrons
 Applying Cartesian multipole field
    Component          Value
    ---------          -----
     (2,0,0)        1.00000E-10
     (0,2,0)        2.00000E-10
     (0,0,2)       -3.00000E-11
 Requested basis set is G3large
 There are 16 shells and 52 basis functions
 A cutoff of  1.0D-11 yielded    136 shell pairs
 There are   1462 function pairs (  1834 Cartesian)
Evaluating contribution to one-electron hamiltonian from nuclear
 Smallest overlap matrix eigenvalue = 4.94E-03
 Multipole matrices computed through 2nd order
 Guess MOs from SCF MO coefficient file
Reading MOs from coefficient file
Reading MOs from coefficient file
 A restricted hybrid HF-DFT SCF calculation will be
 performed using Pulay DIIS extrapolation
 Exchange:     1.0000 Hartree-Fock + 1.0000 BNL
 Correlation:  1.0000 LYP
 Using SG-1 standard quadrature grid
 SCF converges when DIIS error is below 1.0E-08
 ---------------------------------------
  Cycle       Energy         DIIS Error
 ---------------------------------------
    1     -99.7841590779      3.74E-04
    2     -99.7872737741      7.40E-05
    3     -99.7872746864      2.92E-05
    4     -99.7872747865      1.01E-05
    5     -99.7872748039      2.28E-06
    6     -99.7872748054      2.26E-07
    7     -99.7872748054      2.72E-08
    8     -99.7872748054      3.37E-09 Convergence criterion met
 ---------------------------------------
 One-Electron    Energy =  -150.4072691467
 Total Coulomb   Energy =    55.5296783581
 Alpha Exchange  Energy =    -1.5473746186
 Beta  Exchange  Energy =    -1.5473746186
 DFT   Exchange  Energy =    -6.6467353840
 DFT Correlation Energy =    -0.3622229048
 Nuclear Repu.   Energy =     5.1940235093
 Nuclear Attr.   Energy =  -249.8816192270
 Kinetic         Energy =    99.4743500803
 SCF time:  CPU 4.14 s  wall 4.85 s
 Final Alpha MO Eigenvalues
            1           2           3           4           5           6
    1 -24.3942625  -1.4194662  -0.7401369  -0.6101164  -0.6101164   0.0304842
            7           8           9          10
    1   0.1825569   0.2719885   0.2719885   0.2819786
 Analysis of SCF Wavefunction
 
 --------------------------------------------------------------
                    Orbital Energies (a.u.)
 --------------------------------------------------------------
 
 Alpha MOs
 -- Occupied --
-24.394  -1.419  -0.740  -0.610  -0.610
 -- Virtual --
  0.030   0.183   0.272   0.272   0.282   0.378   0.593   0.817
  0.817   1.246   1.424   1.424   1.514   1.894   2.175   2.175
  2.305   2.428   2.428   3.372   3.911   3.911   4.590   6.300
  6.300   6.634   6.812   6.812   6.849   6.849   7.204   7.204
  8.492   9.229   9.230   9.409   9.409  10.077  50.163  50.224
 50.299  50.299  50.476  55.814  55.814  56.266  67.015
 --------------------------------------------------------------
 
          Ground-State Mulliken Net Atomic Charges

     Atom                 Charge (a.u.)
  ----------------------------------------
      1 F                    -0.372444
      2 H                     0.372444
  ----------------------------------------
  Sum of atomic charges =     0.000000

 -----------------------------------------------------------------
                    Cartesian Multipole Moments
 -----------------------------------------------------------------
    Charge (ESU x 10^10)
                 0.0000
    Dipole Moment (Debye)
         X       0.0000      Y       0.0000      Z       2.0009
       Tot       2.0009
    Quadrupole Moments (Debye-Ang)
        XX      -5.8871     XY       0.0000     YY      -5.8871
        XZ       0.0000     YZ       0.0000     ZZ      -3.3255
    Octapole Moments (Debye-Ang^2)
       XXX       0.0000    XXY       0.0000    XYY       0.0000
       YYY       0.0000    XXZ      -0.3904    XYZ       0.0000
       YYZ      -0.3904    XZZ       0.0000    YZZ       0.0000
       ZZZ       0.9660
    Hexadecapole Moments (Debye-Ang^3)
      XXXX      -4.1140   XXXY       0.0000   XXYY      -1.3713
      XYYY       0.0000   YYYY      -4.1140   XXXZ       0.0000
      XXYZ       0.0000   XYYZ       0.0000   YYYZ       0.0000
      XXZZ      -1.5600   XYZZ       0.0000   YYZZ      -1.5600
      XZZZ       0.0000   YZZZ       0.0000   ZZZZ      -2.9673
 -----------------------------------------------------------------
 Calculating analytic gradient of the SCF energy
 Gradient of AOints
            1           2
    1   0.0000000  -0.0000000
    2  -0.0000000   0.0000000
    3   3.4807135  -3.4807135
 Gradient of XC Energy
            1           2
    1  -0.0000000   0.0000000
    2   0.0000000  -0.0000000
    3  -0.2302255   0.2302255
 Gradient of SCF Energy
            1           2
    1  -0.0000000   0.0000000
    2   0.0000000  -0.0000000
    3  -0.0003212   0.0003212
 Max gradient component =       3.212E-04
 RMS gradient           =       1.854E-04
 Gradient time:  CPU 1.34 s  wall 1.42 s
 Geometry Optimization Parameters
   NAtoms,    NIC,     NZ,  NCons,   NDum,   NFix, NCnnct, MaxDiis
        2       5       2       0       0       0       0       0

 Cartesian Hessian Update
 Hessian Updated using BFGS Update


** GEOMETRY OPTIMIZATION IN CARTESIAN COORDINATES **
   Searching for a Minimum

   Optimization Cycle:   3

                       Coordinates (Angstroms)
     ATOM              X           Y           Z
    1  F           0.000000    0.000000    0.008477
    2  H           0.000000    0.000000    0.925414
   Point Group: c1    Number of degrees of freedom:   0


   Energy is    -99.787274805


 Translations and Rotations Projected Out of Hessian

  1 Hessian modes will be used to form the next step
  Hessian Eigenvalues:
     1.337629

 Minimum Search - Taking Simple RFO Step
 Searching for Lamda that Minimizes Along All modes
 Value Taken    Lamda =   0.00000000
 Step Taken.  Stepsize is  0.000340

                             Maximum     Tolerance    Cnvgd?
         Gradient           0.000321      0.000300      NO
         Displacement       0.000240      0.001200     YES
         Energy change     -0.000020      0.000001      NO

 Writing REM_CC_EA            2
 ----------------------------------------------------
       Standard Nuclear Orientation (Angstroms)
    I     Atom         X            Y            Z
 ----------------------------------------------------
    1      F       0.000000     0.000000     0.008604
    2      H       0.000000     0.000000     0.925287
 ----------------------------------------------------
 Nuclear Repulsion Energy =     5.1954633046 hartrees
 There are        5 alpha and        5 beta electrons
 Applying Cartesian multipole field
    Component          Value
    ---------          -----
     (2,0,0)        1.00000E-10
     (0,2,0)        2.00000E-10
     (0,0,2)       -3.00000E-11
 Requested basis set is G3large
 There are 16 shells and 52 basis functions
 A cutoff of  1.0D-11 yielded    136 shell pairs
 There are   1462 function pairs (  1834 Cartesian)
Evaluating contribution to one-electron hamiltonian from nuclear
 Smallest overlap matrix eigenvalue = 4.93E-03
 Multipole matrices computed through 2nd order
 Guess MOs from SCF MO coefficient file
Reading MOs from coefficient file
Reading MOs from coefficient file
 A restricted hybrid HF-DFT SCF calculation will be
 performed using Pulay DIIS extrapolation
 Exchange:     1.0000 Hartree-Fock + 1.0000 BNL
 Correlation:  1.0000 LYP
 Using SG-1 standard quadrature grid
 SCF converges when DIIS error is below 1.0E-08
 ---------------------------------------
  Cycle       Energy         DIIS Error
 ---------------------------------------
    1     -99.7874552001      2.15E-05
    2     -99.7872748802      4.26E-06
    3     -99.7872748833      1.68E-06
    4     -99.7872748836      5.84E-07
    5     -99.7872748837      1.32E-07
    6     -99.7872748837      1.32E-08
    7     -99.7872748837      1.57E-09 Convergence criterion met
 ---------------------------------------
 One-Electron    Energy =  -150.4096681640
 Total Coulomb   Energy =    55.5307704141
 Alpha Exchange  Energy =    -1.5473922346
 Beta  Exchange  Energy =    -1.5473922346
 DFT   Exchange  Energy =    -6.6468291914
 DFT Correlation Energy =    -0.3622267777
 Nuclear Repu.   Energy =     5.1954633046
 Nuclear Attr.   Energy =  -249.8845295929
 Kinetic         Energy =    99.4748614289
 SCF time:  CPU 3.62 s  wall 4.25 s
 Final Alpha MO Eigenvalues
            1           2           3           4           5           6
    1 -24.3942628  -1.4195523  -0.7402080  -0.6101444  -0.6101444   0.0304984
            7           8           9          10
    1   0.1826037   0.2719841   0.2719841   0.2819811
 Analysis of SCF Wavefunction
 
 --------------------------------------------------------------
                    Orbital Energies (a.u.)
 --------------------------------------------------------------
 
 Alpha MOs
 -- Occupied --
-24.394  -1.420  -0.740  -0.610  -0.610
 -- Virtual --
  0.030   0.183   0.272   0.272   0.282   0.378   0.593   0.817
  0.817   1.246   1.424   1.424   1.514   1.894   2.175   2.175
  2.305   2.428   2.428   3.372   3.911   3.911   4.591   6.300
  6.300   6.634   6.812   6.812   6.849   6.849   7.205   7.205
  8.494   9.229   9.230   9.409   9.409  10.077  50.163  50.224
 50.299  50.299  50.476  55.814  55.814  56.267  67.015
 --------------------------------------------------------------
 
          Ground-State Mulliken Net Atomic Charges

     Atom                 Charge (a.u.)
  ----------------------------------------
      1 F                    -0.372364
      2 H                     0.372364
  ----------------------------------------
  Sum of atomic charges =     0.000000

 -----------------------------------------------------------------
                    Cartesian Multipole Moments
 -----------------------------------------------------------------
    Charge (ESU x 10^10)
                 0.0000
    Dipole Moment (Debye)
         X       0.0000      Y       0.0000      Z       2.0004
       Tot       2.0004
    Quadrupole Moments (Debye-Ang)
        XX      -5.8868     XY       0.0000     YY      -5.8868
        XZ       0.0000     YZ       0.0000     ZZ      -3.3259
    Octapole Moments (Debye-Ang^2)
       XXX       0.0000    XXY       0.0000    XYY       0.0000
       YYY       0.0000    XXZ      -0.3910    XYZ       0.0000
       YYZ      -0.3910    XZZ       0.0000    YZZ       0.0000
       ZZZ       0.9636
    Hexadecapole Moments (Debye-Ang^3)
      XXXX      -4.1136   XXXY       0.0000   XXYY      -1.3712
      XYYY       0.0000   YYYY      -4.1136   XXXZ       0.0000
      XXYZ       0.0000   XYYZ       0.0000   YYYZ       0.0000
      XXZZ      -1.5598   XYZZ       0.0000   YYZZ      -1.5598
      XZZZ       0.0000   YZZZ       0.0000   ZZZZ      -2.9674
 -----------------------------------------------------------------
 Calculating analytic gradient of the SCF energy
 Gradient of AOints
            1           2
    1  -0.0000000   0.0000000
    2  -0.0000000   0.0000000
    3   3.4816316  -3.4816316
 Gradient of XC Energy
            1           2
    1   0.0000000  -0.0000000
    2   0.0000000  -0.0000000
    3  -0.2303325   0.2303325
 Gradient of SCF Energy
            1           2
    1   0.0000000  -0.0000000
    2  -0.0000000   0.0000000
    3  -0.0000047   0.0000047
 Max gradient component =       4.697E-06
 RMS gradient           =       2.712E-06
 Gradient time:  CPU 1.34 s  wall 1.56 s
 Geometry Optimization Parameters
   NAtoms,    NIC,     NZ,  NCons,   NDum,   NFix, NCnnct, MaxDiis
        2       5       2       0       0       0       0       0

 Cartesian Hessian Update
 Hessian Updated using BFGS Update


** GEOMETRY OPTIMIZATION IN CARTESIAN COORDINATES **
   Searching for a Minimum

   Optimization Cycle:   4

                       Coordinates (Angstroms)
     ATOM              X           Y           Z
    1  F           0.000000    0.000000    0.008604
    2  H           0.000000    0.000000    0.925287
   Point Group: c1    Number of degrees of freedom:   0


   Energy is    -99.787274884


 Translations and Rotations Projected Out of Hessian

  1 Hessian modes will be used to form the next step
  Hessian Eigenvalues:
     1.318066

 Minimum Search - Taking Simple RFO Step
 Searching for Lamda that Minimizes Along All modes
 Value Taken    Lamda =   0.00000000
 Step Taken.  Stepsize is  0.000005

                             Maximum     Tolerance    Cnvgd?
         Gradient           0.000005      0.000300     YES
         Displacement       0.000004      0.001200     YES
         Energy change      0.000000      0.000001     YES


                       Distance Matrix (Angstroms)
             F (  1)
   H (  2)  0.916683
 


 ******************************
 **  OPTIMIZATION CONVERGED  **
 ******************************
 Analysis of SCF Wavefunction
 
 --------------------------------------------------------------
                    Orbital Energies (a.u.)
 --------------------------------------------------------------
 
 Alpha MOs
 -- Occupied --
-24.394  -1.420  -0.740  -0.610  -0.610
 -- Virtual --
  0.030   0.183   0.272   0.272   0.282   0.378   0.593   0.817
  0.817   1.246   1.424   1.424   1.514   1.894   2.175   2.175
  2.305   2.428   2.428   3.372   3.911   3.911   4.591   6.300
  6.300   6.634   6.812   6.812   6.849   6.849   7.205   7.205
  8.494   9.229   9.230   9.409   9.409  10.077  50.163  50.224
 50.299  50.299  50.476  55.814  55.814  56.267  67.015
 --------------------------------------------------------------
 
          Ground-State Mulliken Net Atomic Charges

     Atom                 Charge (a.u.)
  ----------------------------------------
      1 F                    -0.372364
      2 H                     0.372364
  ----------------------------------------
  Sum of atomic charges =     0.000000

 -----------------------------------------------------------------
                    Cartesian Multipole Moments
 -----------------------------------------------------------------
    Charge (ESU x 10^10)
                 0.0000
    Dipole Moment (Debye)
         X       0.0000      Y       0.0000      Z       2.0004
       Tot       2.0004
    Quadrupole Moments (Debye-Ang)
        XX      -5.8868     XY       0.0000     YY      -5.8868
        XZ       0.0000     YZ       0.0000     ZZ      -3.3259
    Octapole Moments (Debye-Ang^2)
       XXX       0.0000    XXY       0.0000    XYY       0.0000
       YYY       0.0000    XXZ      -0.3910    XYZ       0.0000
       YYZ      -0.3910    XZZ       0.0000    YZZ       0.0000
       ZZZ       0.9636
    Hexadecapole Moments (Debye-Ang^3)
      XXXX      -4.1136   XXXY       0.0000   XXYY      -1.3712
      XYYY       0.0000   YYYY      -4.1136   XXXZ       0.0000
      XXYZ       0.0000   XYYZ       0.0000   YYYZ       0.0000
      XXZZ      -1.5598   XYZZ       0.0000   YYZZ      -1.5598
      XZZZ       0.0000   YZZZ       0.0000   ZZZZ      -2.9674
 -----------------------------------------------------------------
 Total job time:  28.97s(wall), 23.92s(cpu) 
 Sun Apr 17 19:54:59 2011

        *************************************************************
        *                                                           *
        *  Thank you very much for using Q-Chem.  Have a nice day.  *
        *                                                           *
        *************************************************************


0 sent ACK to 0 
now end server 0 ... 
 
**********************************************************************
Job 2 of 2 
**********************************************************************
 
Process 0 of 1 is on cl147.stfx.acenet.ca - thread support 1
initial socket setup ...start
initial socket setup ...done 
now start server 0 ... 

cmd = /usr/bin/ssh clhead /usr/local/qchem/bin/get_hostid 1673154959 > /scratch/tmp/4503875.1.medium.q/qchem23455/lic.dat
                  Welcome to Q-Chem
     A Quantum Leap Into The Future Of Chemistry

 Y. Shao, L. Fusti-Molnar, Y. Jung, J. Kussmann, C. Ochsenfeld,
 S. T. Brown, A. T. B. Gilbert, L. V. Slipchenko,S. V. Levchenko,
 D. P. O'Neill, R. A. DiStasio Jr., R. C. Lochan, T. Wang,
 G. J. O. Beran, N. A. Besley, J. M. Herbert, C. Y. Lin,
 T. Van Voorhis, S. H. Chien, A. Sodt, R. P. Steele, 
 V. A. Rassolov, P. E. Maslen, P. P. Korambath, R. D. Adamson,
 B. Austin, J. Baker, E. F. C. Byrd, H. Dachsel, R. J. Doerksen,
 A. Dreuw, B. D. Dunietz, A. D. Dutoi, T. R. Furlani,
 S. R. Gwaltney, A. Heyden, S. Hirata, C.-P. Hsu, G. Kedziora,
 R. Z. Khaliullin, P. Klunzinger, A. M. Lee, M. S. Lee, W. Liang,
 I. Lotan, N. Nair, B. Peters, E. I. Proynov, P. A. Pieniazek, 
 Y. M. Rhee, J. Ritchie, E. Rosta, C. D. Sherrill, 
 A. C. Simmonett, J. E. Subotnik, H. L. Woodcock III,
 W. Zhang, A. T. Bell, A. K. Chakraborty, D. M. Chipman,
 F. J. Keil, A. Warshel, W. J. Hehre, H. F. Schaefer III,
 J. Kong, A. I. Krylov, P. M. W. Gill, M. Head-Gordon,
 Q-Chem, Version 3.1, Q-Chem, Inc., Pittsburgh, PA (2007).

 Additional authors for Version 3.1: 
 Z. Gan, Y. Zhao, N. E. Schultz, D. Truhlar, E. Epifanovsky and M. Oana.

 Additional authors for Version 3.2: 
 R. Baer, B. R. Brooks, D. Casanova, J.-D. Chai, C.-L. Cheng, 
 C. Cramer, D. Crittenden, A. Ghysels, G. Hawkins, E. G. Hohenstein, 
 C. Kelley, W. Kurlancheek, D. Liotard, E. Livshits, P. Manohar, 
 A. Marenich, D. Neuhauser, R. Olson, M. A. Rohrdanz, K. S. Thanthiriwatte, 
 A. J. W. Thom, V. Vanovschi, C. F. Williams, Q. Wu and Z.-Q. You. 


 Intel X86 Linux Version

 Q-chem begins on Sun Apr 17 19:55:02 2011  

 Parallel job on  1  processors
Processing $rem in /usr/local/qchem/config/preferences.

theFileMan(): MAXOPENFILES=974 MAX_SUB_FILE_NUM=16
Maximum size of a physical file is 2.0 GB, maximum size of a tmp-file is 32.0 GB


--------------------------------------------------------------
User input:
--------------------------------------------------------------

$molecule 
READ 
$end 

$xc_functional
   X HF 1.0
   X BNL 1.0
   C LYP 1.0
$end

$rem
SYMMETRY_DECOMPOSITION	0
exchange 		general
BASIS                   g3large
omega			650 
JOBTYPE                 freq
IDERIV 0
SCF_GUESS READ
separate_jk		true
mem_static              760
max_scf_cycles          200
scf_final_print         1
sym_ignore              true
$end

--------------------------------------------------------------
 Writing REM_CC_EA            2
 ----------------------------------------------------
       Standard Nuclear Orientation (Angstroms)
    I     Atom         X            Y            Z
 ----------------------------------------------------
    1      F       0.000000     0.000000     0.008604
    2      H       0.000000     0.000000     0.925287
 ----------------------------------------------------
 Nuclear Repulsion Energy =     5.1954633046 hartrees
 There are        5 alpha and        5 beta electrons
 Requested basis set is G3large
 There are 16 shells and 52 basis functions

Total QAlloc Memory Limit   2000 MB
Mega-Array Size       759 MB
MEM_STATIC part       760 MB

                       Distance Matrix (Angstroms)
             F (  1)
   H (  2)  0.916683
 
 A cutoff of  1.0D-11 yielded    136 shell pairs
 There are   1462 function pairs (  1834 Cartesian)
Evaluating contribution to one-electron hamiltonian from nuclear
 Smallest overlap matrix eigenvalue = 4.93E-03
 Multipole matrices computed through 2nd order
 Guess MOs from SCF MO coefficient file
Reading MOs from coefficient file
Reading MOs from coefficient file
 A restricted hybrid HF-DFT SCF calculation will be
 performed using Pulay DIIS extrapolation
 Exchange:     1.0000 Hartree-Fock + 1.0000 BNL
 Correlation:  1.0000 LYP
 Using SG-1 standard quadrature grid
 SCF converges when DIIS error is below 1.0E-08
 ---------------------------------------
  Cycle       Energy         DIIS Error
 ---------------------------------------
    1     -99.7872748824      2.62E-10
    2     -99.7872748824      1.62E-10 Convergence criterion met
 ---------------------------------------
 One-Electron    Energy =  -150.4096681750
 Total Coulomb   Energy =    55.5307704256
 Alpha Exchange  Energy =    -1.5473922340
 Beta  Exchange  Energy =    -1.5473922340
 DFT   Exchange  Energy =    -6.6468291918
 DFT Correlation Energy =    -0.3622267779
 Nuclear Repu.   Energy =     5.1954633046
 Nuclear Attr.   Energy =  -249.8845296049
 Kinetic         Energy =    99.4748614298
 SCF time:  CPU 1.01 s  wall 1.20 s
 Final Alpha MO Eigenvalues
            1           2           3           4           5           6
    1 -24.3942628  -1.4195523  -0.7402080  -0.6101444  -0.6101444   0.0304984
            7           8           9          10
    1   0.1826037   0.2719841   0.2719841   0.2819811
 Analysis of SCF Wavefunction
 
 --------------------------------------------------------------
                    Orbital Energies (a.u.)
 --------------------------------------------------------------
 
 Alpha MOs
 -- Occupied --
-24.394  -1.420  -0.740  -0.610  -0.610
 -- Virtual --
  0.030   0.183   0.272   0.272   0.282   0.378   0.593   0.817
  0.817   1.246   1.424   1.424   1.514   1.894   2.175   2.175
  2.305   2.428   2.428   3.372   3.911   3.911   4.591   6.300
  6.300   6.634   6.812   6.812   6.849   6.849   7.205   7.205
  8.494   9.229   9.230   9.409   9.409  10.077  50.163  50.224
 50.299  50.299  50.476  55.814  55.814  56.267  67.015
 --------------------------------------------------------------
 
          Ground-State Mulliken Net Atomic Charges

     Atom                 Charge (a.u.)
  ----------------------------------------
      1 F                    -0.372364
      2 H                     0.372364
  ----------------------------------------
  Sum of atomic charges =     0.000000

 -----------------------------------------------------------------
                    Cartesian Multipole Moments
 -----------------------------------------------------------------
    Charge (ESU x 10^10)
                 0.0000
    Dipole Moment (Debye)
         X       0.0000      Y       0.0000      Z       2.0004
       Tot       2.0004
    Quadrupole Moments (Debye-Ang)
        XX      -5.8868     XY       0.0000     YY      -5.8868
        XZ       0.0000     YZ       0.0000     ZZ      -3.3259
    Octapole Moments (Debye-Ang^2)
       XXX       0.0000    XXY       0.0000    XYY       0.0000
       YYY       0.0000    XXZ      -0.3910    XYZ       0.0000
       YYZ      -0.3910    XZZ       0.0000    YZZ       0.0000
       ZZZ       0.9636
    Hexadecapole Moments (Debye-Ang^3)
      XXXX      -4.1136   XXXY       0.0000   XXYY      -1.3712
      XYYY       0.0000   YYYY      -4.1136   XXXZ       0.0000
      XXYZ       0.0000   XYYZ       0.0000   YYYZ       0.0000
      XXZZ      -1.5598   XYZZ       0.0000   YYZZ      -1.5598
      XZZZ       0.0000   YZZZ       0.0000   ZZZZ      -2.9674
 -----------------------------------------------------------------
 No analytic derivatives required
 ######################################################
 ######################################################
 # Starting finite difference calculation for IDERIV  #
 Finite diff step size: 1.89e-03 a.u.
 Writing REM_CC_EA            2
 ----------------------------------------------------
       Standard Nuclear Orientation (Angstroms)
    I     Atom         X            Y            Z
 ----------------------------------------------------
    1      F       0.002000     0.000000     0.008604
    2      H       0.000000     0.000000     0.925287
 ----------------------------------------------------
 Nuclear Repulsion Energy =     5.1954509391 hartrees
 There are        5 alpha and        5 beta electrons

                       Distance Matrix (Angstroms)
             F (  1)
   H (  2)  0.916686
 
 Requested basis set is G3large
 There are 16 shells and 52 basis functions
 A cutoff of  1.0D-11 yielded    136 shell pairs
 There are   1462 function pairs (  1834 Cartesian)
Evaluating contribution to one-electron hamiltonian from nuclear
 Smallest overlap matrix eigenvalue = 4.93E-03
 Multipole matrices computed through 2nd order
 Guess MOs from SCF MO coefficient file
Reading MOs from coefficient file
Reading MOs from coefficient file
 A restricted hybrid HF-DFT SCF calculation will be
 performed using Pulay DIIS extrapolation
 Exchange:     1.0000 Hartree-Fock + 1.0000 BNL
 Correlation:  1.0000 LYP
 Using SG-1 standard quadrature grid
 SCF converges when DIIS error is below 1.0E-08
 ---------------------------------------
  Cycle       Energy         DIIS Error
 ---------------------------------------
    1     -99.7872717293      4.64E-05
    2     -99.7872748329      9.93E-06
    3     -99.7872748804      2.08E-06
    4     -99.7872748842      5.96E-07
    5     -99.7872748846      1.81E-07
    6     -99.7872748846      7.41E-08
    7     -99.7872748846      4.75E-09 Convergence criterion met
 ---------------------------------------
 One-Electron    Energy =  -150.4096474083
 Total Coulomb   Energy =    55.5307608597
 Alpha Exchange  Energy =    -1.5473920809
 Beta  Exchange  Energy =    -1.5473920809
 DFT   Exchange  Energy =    -6.6468283690
 DFT Correlation Energy =    -0.3622267442
 Nuclear Repu.   Energy =     5.1954509391
 Nuclear Attr.   Energy =  -249.8845042547
 Kinetic         Energy =    99.4748568464
 SCF time:  CPU 3.61 s  wall 4.24 s
 Final Alpha MO Eigenvalues
            1           2           3           4           5           6
    1 -24.3942628  -1.4195515  -0.7402074  -0.6101442  -0.6101442   0.0304983
            7           8           9          10
    1   0.1826033   0.2719841   0.2719842   0.2819811
 Analysis of SCF Wavefunction
 
 --------------------------------------------------------------
                    Orbital Energies (a.u.)
 --------------------------------------------------------------
 
 Alpha MOs
 -- Occupied --
-24.394  -1.420  -0.740  -0.610  -0.610
 -- Virtual --
  0.030   0.183   0.272   0.272   0.282   0.378   0.593   0.817
  0.817   1.246   1.424   1.424   1.514   1.894   2.175   2.175
  2.305   2.428   2.428   3.372   3.911   3.911   4.591   6.300
  6.300   6.634   6.812   6.812   6.849   6.849   7.205   7.205
  8.494   9.229   9.230   9.409   9.409  10.077  50.163  50.224
 50.299  50.299  50.476  55.814  55.814  56.267  67.015
 --------------------------------------------------------------
 
          Ground-State Mulliken Net Atomic Charges

     Atom                 Charge (a.u.)
  ----------------------------------------
      1 F                    -0.372364
      2 H                     0.372364
  ----------------------------------------
  Sum of atomic charges =     0.000000

 -----------------------------------------------------------------
                    Cartesian Multipole Moments
 -----------------------------------------------------------------
    Charge (ESU x 10^10)
                 0.0000
    Dipole Moment (Debye)
         X      -0.0044      Y       0.0000      Z       2.0004
       Tot       2.0004
    Quadrupole Moments (Debye-Ang)
        XX      -5.8868     XY       0.0000     YY      -5.8868
        XZ      -0.0015     YZ       0.0000     ZZ      -3.3259
    Octapole Moments (Debye-Ang^2)
       XXX      -0.0331    XXY       0.0000    XYY      -0.0110
       YYY       0.0000    XXZ      -0.3910    XYZ       0.0000
       YYZ      -0.3910    XZZ      -0.0105    YZZ       0.0000
       ZZZ       0.9636
    Hexadecapole Moments (Debye-Ang^3)
      XXXX      -4.1137   XXXY       0.0000   XXYY      -1.3712
      XYYY       0.0000   YYYY      -4.1136   XXXZ      -0.0011
      XXYZ       0.0000   XYYZ      -0.0004   YYYZ       0.0000
      XXZZ      -1.5598   XYZZ       0.0000   YYZZ      -1.5598
      XZZZ      -0.0018   YZZZ       0.0000   ZZZZ      -2.9675
 -----------------------------------------------------------------
 Writing REM_CC_EA            2
 ----------------------------------------------------
       Standard Nuclear Orientation (Angstroms)
    I     Atom         X            Y            Z
 ----------------------------------------------------
    1      F       0.000000     0.000000     0.008604
    2      H       0.000000     0.000000     0.925287
 ----------------------------------------------------
 Nuclear Repulsion Energy =     5.1954633046 hartrees
 There are        5 alpha and        5 beta electrons

                       Distance Matrix (Angstroms)
             F (  1)
   H (  2)  0.916683
 
 Requested basis set is G3large
 There are 16 shells and 52 basis functions
 A cutoff of  1.0D-11 yielded    136 shell pairs
 There are   1462 function pairs (  1834 Cartesian)
Evaluating contribution to one-electron hamiltonian from nuclear
 Smallest overlap matrix eigenvalue = 4.93E-03
 Multipole matrices computed through 2nd order
 Guess MOs from SCF MO coefficient file
Reading MOs from coefficient file
Reading MOs from coefficient file
 A restricted hybrid HF-DFT SCF calculation will be
 performed using Pulay DIIS extrapolation
 Exchange:     1.0000 Hartree-Fock + 1.0000 BNL
 Correlation:  1.0000 LYP
 Using SG-1 standard quadrature grid
 SCF converges when DIIS error is below 1.0E-08
 ---------------------------------------
  Cycle       Energy         DIIS Error
 ---------------------------------------
    1     -99.7872748233      4.64E-05
    2     -99.7872748307      9.93E-06
    3     -99.7872748783      2.08E-06
    4     -99.7872748820      5.91E-07
    5     -99.7872748824      1.42E-07
    6     -99.7872748824      7.79E-08
    7     -99.7872748824      4.83E-09 Convergence criterion met
 ---------------------------------------
 One-Electron    Energy =  -150.4096679605
 Total Coulomb   Energy =    55.5307701805
 Alpha Exchange  Energy =    -1.5473922316
 Beta  Exchange  Energy =    -1.5473922316
 DFT   Exchange  Energy =    -6.6468291667
 DFT Correlation Energy =    -0.3622267772
 Nuclear Repu.   Energy =     5.1954633046
 Nuclear Attr.   Energy =  -249.8845291358
 Kinetic         Energy =    99.4748611753
 SCF time:  CPU 3.60 s  wall 4.28 s
 Final Alpha MO Eigenvalues
            1           2           3           4           5           6
    1 -24.3942628  -1.4195523  -0.7402080  -0.6101444  -0.6101444   0.0304984
            7           8           9          10
    1   0.1826037   0.2719841   0.2719841   0.2819811
 Analysis of SCF Wavefunction
 
 --------------------------------------------------------------
                    Orbital Energies (a.u.)
 --------------------------------------------------------------
 
 Alpha MOs
 -- Occupied --
-24.394  -1.420  -0.740  -0.610  -0.610
 -- Virtual --
  0.030   0.183   0.272   0.272   0.282   0.378   0.593   0.817
  0.817   1.246   1.424   1.424   1.514   1.894   2.175   2.175
  2.305   2.428   2.428   3.372   3.911   3.911   4.591   6.300
  6.300   6.634   6.812   6.812   6.849   6.849   7.205   7.205
  8.494   9.229   9.230   9.409   9.409  10.077  50.163  50.224
 50.299  50.299  50.476  55.814  55.814  56.267  67.015
 --------------------------------------------------------------
 
          Ground-State Mulliken Net Atomic Charges

     Atom                 Charge (a.u.)
  ----------------------------------------
      1 F                    -0.372364
      2 H                     0.372364
  ----------------------------------------
  Sum of atomic charges =     0.000000

 -----------------------------------------------------------------
                    Cartesian Multipole Moments
 -----------------------------------------------------------------
    Charge (ESU x 10^10)
                 0.0000
    Dipole Moment (Debye)
         X       0.0000      Y       0.0000      Z       2.0004
       Tot       2.0004
    Quadrupole Moments (Debye-Ang)
        XX      -5.8868     XY       0.0000     YY      -5.8868
        XZ       0.0000     YZ       0.0000     ZZ      -3.3259
    Octapole Moments (Debye-Ang^2)
       XXX       0.0000    XXY       0.0000    XYY       0.0000
       YYY       0.0000    XXZ      -0.3910    XYZ       0.0000
       YYZ      -0.3910    XZZ       0.0000    YZZ       0.0000
       ZZZ       0.9636
    Hexadecapole Moments (Debye-Ang^3)
      XXXX      -4.1136   XXXY       0.0000   XXYY      -1.3712
      XYYY       0.0000   YYYY      -4.1136   XXXZ       0.0000
      XXYZ       0.0000   XYYZ       0.0000   YYYZ       0.0000
      XXZZ      -1.5598   XYZZ       0.0000   YYZZ      -1.5598
      XZZZ       0.0000   YZZZ       0.0000   ZZZZ      -2.9674
 -----------------------------------------------------------------
 Writing REM_CC_EA            2
 ----------------------------------------------------
       Standard Nuclear Orientation (Angstroms)
    I     Atom         X            Y            Z
 ----------------------------------------------------
    1      F       0.001000     0.001000     0.008604
    2      H       0.000000     0.000000     0.925287
 ----------------------------------------------------
 Nuclear Repulsion Energy =     5.1954571219 hartrees
 There are        5 alpha and        5 beta electrons

                       Distance Matrix (Angstroms)
             F (  1)
   H (  2)  0.916684
 
 Requested basis set is G3large
 There are 16 shells and 52 basis functions
 A cutoff of  1.0D-11 yielded    136 shell pairs
 There are   1462 function pairs (  1834 Cartesian)
Evaluating contribution to one-electron hamiltonian from nuclear
 Smallest overlap matrix eigenvalue = 4.93E-03
 Multipole matrices computed through 2nd order
 Guess MOs from SCF MO coefficient file
Reading MOs from coefficient file
Reading MOs from coefficient file
 A restricted hybrid HF-DFT SCF calculation will be
 performed using Pulay DIIS extrapolation
 Exchange:     1.0000 Hartree-Fock + 1.0000 BNL
 Correlation:  1.0000 LYP
 Using SG-1 standard quadrature grid
 SCF converges when DIIS error is below 1.0E-08
 ---------------------------------------
  Cycle       Energy         DIIS Error
 ---------------------------------------
    1     -99.7872733058      3.28E-05
    2     -99.7872748577      7.02E-06
    3     -99.7872748814      1.47E-06
    4     -99.7872748833      4.18E-07
    5     -99.7872748835      1.02E-07
    6     -99.7872748835      5.51E-08
    7     -99.7872748835      3.44E-09 Convergence criterion met
 ---------------------------------------
 One-Electron    Energy =  -150.4096577172
 Total Coulomb   Energy =    55.5307655576
 Alpha Exchange  Energy =    -1.5473921566
 Beta  Exchange  Energy =    -1.5473921566
 DFT   Exchange  Energy =    -6.6468287717
 DFT Correlation Energy =    -0.3622267608
 Nuclear Repu.   Energy =     5.1954571219
 Nuclear Attr.   Energy =  -249.8845167668
 Kinetic         Energy =    99.4748590496
 SCF time:  CPU 3.61 s  wall 4.27 s
 Final Alpha MO Eigenvalues
            1           2           3           4           5           6
    1 -24.3942628  -1.4195519  -0.7402077  -0.6101443  -0.6101443   0.0304983
            7           8           9          10
    1   0.1826035   0.2719841   0.2719841   0.2819811
 Analysis of SCF Wavefunction
 
 --------------------------------------------------------------
                    Orbital Energies (a.u.)
 --------------------------------------------------------------
 
 Alpha MOs
 -- Occupied --
-24.394  -1.420  -0.740  -0.610  -0.610
 -- Virtual --
  0.030   0.183   0.272   0.272   0.282   0.378   0.593   0.817
  0.817   1.246   1.424   1.424   1.514   1.894   2.175   2.175
  2.305   2.428   2.428   3.372   3.911   3.911   4.591   6.300
  6.300   6.634   6.812   6.812   6.849   6.849   7.205   7.205
  8.494   9.229   9.230   9.409   9.409  10.077  50.163  50.224
 50.299  50.299  50.476  55.814  55.814  56.267  67.015
 --------------------------------------------------------------
 
          Ground-State Mulliken Net Atomic Charges

     Atom                 Charge (a.u.)
  ----------------------------------------
      1 F                    -0.372364
      2 H                     0.372364
  ----------------------------------------
  Sum of atomic charges =     0.000000

 -----------------------------------------------------------------
                    Cartesian Multipole Moments
 -----------------------------------------------------------------
    Charge (ESU x 10^10)
                 0.0000
    Dipole Moment (Debye)
         X      -0.0022      Y      -0.0022      Z       2.0004
       Tot       2.0004
    Quadrupole Moments (Debye-Ang)
        XX      -5.8868     XY       0.0000     YY      -5.8868
        XZ      -0.0008     YZ      -0.0008     ZZ      -3.3259
    Octapole Moments (Debye-Ang^2)
       XXX      -0.0165    XXY      -0.0055    XYY      -0.0055
       YYY      -0.0165    XXZ      -0.3910    XYZ       0.0000
       YYZ      -0.3910    XZZ      -0.0053    YZZ      -0.0053
       ZZZ       0.9636
    Hexadecapole Moments (Debye-Ang^3)
      XXXX      -4.1136   XXXY       0.0000   XXYY      -1.3712
      XYYY       0.0000   YYYY      -4.1136   XXXZ      -0.0006
      XXYZ      -0.0002   XYYZ      -0.0002   YYYZ      -0.0006
      XXZZ      -1.5598   XYZZ       0.0000   YYZZ      -1.5598
      XZZZ      -0.0009   YZZZ      -0.0009   ZZZZ      -2.9675
 -----------------------------------------------------------------
 Writing REM_CC_EA            2
 ----------------------------------------------------
       Standard Nuclear Orientation (Angstroms)
    I     Atom         X            Y            Z
 ----------------------------------------------------
    1      F       0.001000    -0.001000     0.008604
    2      H       0.000000     0.000000     0.925287
 ----------------------------------------------------
 Nuclear Repulsion Energy =     5.1954571219 hartrees
 There are        5 alpha and        5 beta electrons

                       Distance Matrix (Angstroms)
             F (  1)
   H (  2)  0.916684
 
 Requested basis set is G3large
 There are 16 shells and 52 basis functions
 A cutoff of  1.0D-11 yielded    136 shell pairs
 There are   1462 function pairs (  1834 Cartesian)
Evaluating contribution to one-electron hamiltonian from nuclear
 Smallest overlap matrix eigenvalue = 4.93E-03
 Multipole matrices computed through 2nd order
 Guess MOs from SCF MO coefficient file
Reading MOs from coefficient file
Reading MOs from coefficient file
 A restricted hybrid HF-DFT SCF calculation will be
 performed using Pulay DIIS extrapolation
 Exchange:     1.0000 Hartree-Fock + 1.0000 BNL
 Correlation:  1.0000 LYP
 Using SG-1 standard quadrature grid
 SCF converges when DIIS error is below 1.0E-08
 ---------------------------------------
  Cycle       Energy         DIIS Error
 ---------------------------------------
    1     -99.7872732763      4.64E-05
    2     -99.7872748318      9.93E-06
    3     -99.7872748794      2.08E-06
    4     -99.7872748831      5.93E-07
    5     -99.7872748835      1.62E-07
    6     -99.7872748835      7.63E-08
    7     -99.7872748835      4.72E-09 Convergence criterion met
 ---------------------------------------
 One-Electron    Energy =  -150.4096577086
 Total Coulomb   Energy =    55.5307655478
 Alpha Exchange  Energy =    -1.5473921565
 Beta  Exchange  Energy =    -1.5473921565
 DFT   Exchange  Energy =    -6.6468287706
 DFT Correlation Energy =    -0.3622267608
 Nuclear Repu.   Energy =     5.1954571219
 Nuclear Attr.   Energy =  -249.8845167453
 Kinetic         Energy =    99.4748590367
 SCF time:  CPU 3.62 s  wall 4.25 s
 Final Alpha MO Eigenvalues
            1           2           3           4           5           6
    1 -24.3942628  -1.4195519  -0.7402077  -0.6101443  -0.6101443   0.0304983
            7           8           9          10
    1   0.1826035   0.2719841   0.2719841   0.2819811
 Analysis of SCF Wavefunction
 
 --------------------------------------------------------------
                    Orbital Energies (a.u.)
 --------------------------------------------------------------
 
 Alpha MOs
 -- Occupied --
-24.394  -1.420  -0.740  -0.610  -0.610
 -- Virtual --
  0.030   0.183   0.272   0.272   0.282   0.378   0.593   0.817
  0.817   1.246   1.424   1.424   1.514   1.894   2.175   2.175
  2.305   2.428   2.428   3.372   3.911   3.911   4.591   6.300
  6.300   6.634   6.812   6.812   6.849   6.849   7.205   7.205
  8.494   9.229   9.230   9.409   9.409  10.077  50.163  50.224
 50.299  50.299  50.476  55.814  55.814  56.267  67.015
 --------------------------------------------------------------
 
          Ground-State Mulliken Net Atomic Charges

     Atom                 Charge (a.u.)
  ----------------------------------------
      1 F                    -0.372364
      2 H                     0.372364
  ----------------------------------------
  Sum of atomic charges =     0.000000

 -----------------------------------------------------------------
                    Cartesian Multipole Moments
 -----------------------------------------------------------------
    Charge (ESU x 10^10)
                 0.0000
    Dipole Moment (Debye)
         X      -0.0022      Y       0.0022      Z       2.0004
       Tot       2.0004
    Quadrupole Moments (Debye-Ang)
        XX      -5.8868     XY       0.0000     YY      -5.8868
        XZ      -0.0008     YZ       0.0008     ZZ      -3.3259
    Octapole Moments (Debye-Ang^2)
       XXX      -0.0165    XXY       0.0055    XYY      -0.0055
       YYY       0.0165    XXZ      -0.3910    XYZ       0.0000
       YYZ      -0.3910    XZZ      -0.0053    YZZ       0.0053
       ZZZ       0.9636
    Hexadecapole Moments (Debye-Ang^3)
      XXXX      -4.1136   XXXY       0.0000   XXYY      -1.3712
      XYYY       0.0000   YYYY      -4.1136   XXXZ      -0.0006
      XXYZ       0.0002   XYYZ      -0.0002   YYYZ       0.0006
      XXZZ      -1.5598   XYZZ       0.0000   YYZZ      -1.5598
      XZZZ      -0.0009   YZZZ       0.0009   ZZZZ      -2.9675
 -----------------------------------------------------------------
 Writing REM_CC_EA            2
 ----------------------------------------------------
       Standard Nuclear Orientation (Angstroms)
    I     Atom         X            Y            Z
 ----------------------------------------------------
    1      F       0.001000     0.000000     0.009604
    2      H       0.000000     0.000000     0.925287
 ----------------------------------------------------
 Nuclear Repulsion Energy =     5.2011340674 hartrees
 There are        5 alpha and        5 beta electrons

                       Distance Matrix (Angstroms)
             F (  1)
   H (  2)  0.915684
 
 Requested basis set is G3large
 There are 16 shells and 52 basis functions
 A cutoff of  1.0D-11 yielded    136 shell pairs
 There are   1462 function pairs (  1834 Cartesian)
Evaluating contribution to one-electron hamiltonian from nuclear
 Smallest overlap matrix eigenvalue = 4.90E-03
 Multipole matrices computed through 2nd order
 Guess MOs from SCF MO coefficient file
Reading MOs from coefficient file
Reading MOs from coefficient file
 A restricted hybrid HF-DFT SCF calculation will be
 performed using Pulay DIIS extrapolation
 Exchange:     1.0000 Hartree-Fock + 1.0000 BNL
 Correlation:  1.0000 LYP
 Using SG-1 standard quadrature grid
 SCF converges when DIIS error is below 1.0E-08
 ---------------------------------------
  Cycle       Energy         DIIS Error
 ---------------------------------------
    1     -99.7879836360      8.78E-05
    2     -99.7872736466      1.75E-05
    3     -99.7872737044      6.93E-06
    4     -99.7872737110      2.52E-06
    5     -99.7872737123      7.50E-07
    6     -99.7872737126      1.16E-07
    7     -99.7872737126      1.70E-08
    8     -99.7872737126      2.42E-09 Convergence criterion met
 ---------------------------------------
 One-Electron    Energy =  -150.4191151027
 Total Coulomb   Energy =    55.5350711625
 Alpha Exchange  Energy =    -1.5474615285
 Beta  Exchange  Energy =    -1.5474615285
 DFT   Exchange  Energy =    -6.6471987598
 DFT Correlation Energy =    -0.3622420231
 Nuclear Repu.   Energy =     5.2011340674
 Nuclear Attr.   Energy =  -249.8959924581
 Kinetic         Energy =    99.4768773555
 SCF time:  CPU 4.15 s  wall 4.87 s
 Final Alpha MO Eigenvalues
            1           2           3           4           5           6
    1 -24.3942642  -1.4198913  -0.7404880  -0.6102546  -0.6102546   0.0305541
            7           8           9          10
    1   0.1827875   0.2719670   0.2719670   0.2819911
 Analysis of SCF Wavefunction
 
 --------------------------------------------------------------
                    Orbital Energies (a.u.)
 --------------------------------------------------------------
 
 Alpha MOs
 -- Occupied --
-24.394  -1.420  -0.740  -0.610  -0.610
 -- Virtual --
  0.031   0.183   0.272   0.272   0.282   0.378   0.593   0.817
  0.817   1.246   1.424   1.424   1.515   1.894   2.175   2.175
  2.304   2.428   2.428   3.375   3.912   3.912   4.593   6.300
  6.300   6.635   6.812   6.812   6.849   6.849   7.207   7.207
  8.500   9.229   9.229   9.410   9.410  10.077  50.163  50.224
 50.299  50.299  50.476  55.815  55.815  56.269  67.015
 --------------------------------------------------------------
 
          Ground-State Mulliken Net Atomic Charges

     Atom                 Charge (a.u.)
  ----------------------------------------
      1 F                    -0.372048
      2 H                     0.372048
  ----------------------------------------
  Sum of atomic charges =     0.000000

 -----------------------------------------------------------------
                    Cartesian Multipole Moments
 -----------------------------------------------------------------
    Charge (ESU x 10^10)
                 0.0000
    Dipole Moment (Debye)
         X      -0.0022      Y       0.0000      Z       1.9983
       Tot       1.9983
    Quadrupole Moments (Debye-Ang)
        XX      -5.8857     XY       0.0000     YY      -5.8857
        XZ      -0.0008     YZ       0.0000     ZZ      -3.3257
    Octapole Moments (Debye-Ang^2)
       XXX      -0.0165    XXY       0.0000    XYY      -0.0055
       YYY       0.0000    XXZ      -0.3959    XYZ       0.0000
       YYZ      -0.3959    XZZ      -0.0053    YZZ       0.0000
       ZZZ       0.9490
    Hexadecapole Moments (Debye-Ang^3)
      XXXX      -4.1122   XXXY       0.0000   XXYY      -1.3707
      XYYY       0.0000   YYYY      -4.1122   XXXZ      -0.0006
      XXYZ       0.0000   XYYZ      -0.0002   YYYZ       0.0000
      XXZZ      -1.5591   XYZZ       0.0000   YYZZ      -1.5591
      XZZZ      -0.0009   YZZZ       0.0000   ZZZZ      -2.9661
 -----------------------------------------------------------------
 Writing REM_CC_EA            2
 ----------------------------------------------------
       Standard Nuclear Orientation (Angstroms)
    I     Atom         X            Y            Z
 ----------------------------------------------------
    1      F       0.001000     0.000000     0.007604
    2      H       0.000000     0.000000     0.925287
 ----------------------------------------------------
 Nuclear Repulsion Energy =     5.1897987246 hartrees
 There are        5 alpha and        5 beta electrons

                       Distance Matrix (Angstroms)
             F (  1)
   H (  2)  0.917684
 
 Requested basis set is G3large
 There are 16 shells and 52 basis functions
 A cutoff of  1.0D-11 yielded    136 shell pairs
 There are   1462 function pairs (  1834 Cartesian)
Evaluating contribution to one-electron hamiltonian from nuclear
 Smallest overlap matrix eigenvalue = 4.96E-03
 Multipole matrices computed through 2nd order
 Guess MOs from SCF MO coefficient file
Reading MOs from coefficient file
Reading MOs from coefficient file
 A restricted hybrid HF-DFT SCF calculation will be
 performed using Pulay DIIS extrapolation
 Exchange:     1.0000 Hartree-Fock + 1.0000 BNL
 Correlation:  1.0000 LYP
 Using SG-1 standard quadrature grid
 SCF converges when DIIS error is below 1.0E-08
 ---------------------------------------
  Cycle       Energy         DIIS Error
 ---------------------------------------
    1     -99.7858554236      1.69E-04
    2     -99.7872734849      3.36E-05
    3     -99.7872736731      1.33E-05
    4     -99.7872736939      4.60E-06
    5     -99.7872736975      1.04E-06
    6     -99.7872736978      1.03E-07
    7     -99.7872736978      1.24E-08
    8     -99.7872736978      1.53E-09 Convergence criterion met
 ---------------------------------------
 One-Electron    Energy =  -150.4002286889
 Total Coulomb   Energy =    55.5264737943
 Alpha Exchange  Energy =    -1.5473228981
 Beta  Exchange  Energy =    -1.5473228981
 DFT   Exchange  Energy =    -6.6464601980
 DFT Correlation Energy =    -0.3622115336
 Nuclear Repu.   Energy =     5.1897987246
 Nuclear Attr.   Energy =  -249.8730794851
 Kinetic         Energy =    99.4728507962
 SCF time:  CPU 4.10 s  wall 4.82 s
 Final Alpha MO Eigenvalues
            1           2           3           4           5           6
    1 -24.3942613  -1.4192137  -0.7399278  -0.6100342  -0.6100342   0.0304424
            7           8           9          10
    1   0.1824193   0.2720013   0.2720013   0.2819711
 Analysis of SCF Wavefunction
 
 --------------------------------------------------------------
                    Orbital Energies (a.u.)
 --------------------------------------------------------------
 
 Alpha MOs
 -- Occupied --
-24.394  -1.419  -0.740  -0.610  -0.610
 -- Virtual --
  0.030   0.182   0.272   0.272   0.282   0.378   0.592   0.817
  0.817   1.245   1.424   1.424   1.514   1.894   2.175   2.175
  2.306   2.427   2.427   3.370   3.911   3.911   4.589   6.300
  6.300   6.634   6.812   6.812   6.849   6.849   7.203   7.203
  8.488   9.229   9.230   9.409   9.409  10.077  50.163  50.224
 50.298  50.298  50.476  55.814  55.814  56.264  67.014
 --------------------------------------------------------------
 
          Ground-State Mulliken Net Atomic Charges

     Atom                 Charge (a.u.)
  ----------------------------------------
      1 F                    -0.372679
      2 H                     0.372679
  ----------------------------------------
  Sum of atomic charges =     0.000000

 -----------------------------------------------------------------
                    Cartesian Multipole Moments
 -----------------------------------------------------------------
    Charge (ESU x 10^10)
                 0.0000
    Dipole Moment (Debye)
         X      -0.0022      Y       0.0000      Z       2.0025
       Tot       2.0025
    Quadrupole Moments (Debye-Ang)
        XX      -5.8879     XY       0.0000     YY      -5.8879
        XZ      -0.0008     YZ       0.0000     ZZ      -3.3261
    Octapole Moments (Debye-Ang^2)
       XXX      -0.0165    XXY       0.0000    XYY      -0.0055
       YYY       0.0000    XXZ      -0.3860    XYZ       0.0000
       YYZ      -0.3860    XZZ      -0.0053    YZZ       0.0000
       ZZZ       0.9781
    Hexadecapole Moments (Debye-Ang^3)
      XXXX      -4.1150   XXXY       0.0000   XXYY      -1.3717
      XYYY       0.0000   YYYY      -4.1150   XXXZ      -0.0006
      XXYZ       0.0000   XYYZ      -0.0002   YYYZ       0.0000
      XXZZ      -1.5604   XYZZ       0.0000   YYZZ      -1.5604
      XZZZ      -0.0009   YZZZ       0.0000   ZZZZ      -2.9688
 -----------------------------------------------------------------
 Writing REM_CC_EA            2
 ----------------------------------------------------
       Standard Nuclear Orientation (Angstroms)
    I     Atom         X            Y            Z
 ----------------------------------------------------
    1      F       0.001000     0.000000     0.008604
    2      H       0.001000     0.000000     0.925287
 ----------------------------------------------------
 Nuclear Repulsion Energy =     5.1954633046 hartrees
 There are        5 alpha and        5 beta electrons

                       Distance Matrix (Angstroms)
             F (  1)
   H (  2)  0.916683
 
 Requested basis set is G3large
 There are 16 shells and 52 basis functions
 A cutoff of  1.0D-11 yielded    136 shell pairs
 There are   1462 function pairs (  1834 Cartesian)
Evaluating contribution to one-electron hamiltonian from nuclear
 Smallest overlap matrix eigenvalue = 4.93E-03
 Multipole matrices computed through 2nd order
 Guess MOs from SCF MO coefficient file
Reading MOs from coefficient file
Reading MOs from coefficient file
 A restricted hybrid HF-DFT SCF calculation will be
 performed using Pulay DIIS extrapolation
 Exchange:     1.0000 Hartree-Fock + 1.0000 BNL
 Correlation:  1.0000 LYP
 Using SG-1 standard quadrature grid
 SCF converges when DIIS error is below 1.0E-08
 ---------------------------------------
  Cycle       Energy         DIIS Error
 ---------------------------------------
    1     -99.7879845408      8.76E-05
 Info = 79

 Q-Chem warning in module diagon.C, line 98:

 Call to dsyevd failed in Diagonalize

    2     -99.7872748165      1.75E-05
    3     -99.7872748742      6.93E-06
    4     -99.7872748809      2.53E-06
    5     -99.7872748822      7.50E-07
    6     -99.7872748824      1.17E-07
    7     -99.7872748824      1.70E-08
    8     -99.7872748824      2.41E-09 Convergence criterion met
 ---------------------------------------
 One-Electron    Energy =  -150.4096681631
 Total Coulomb   Energy =    55.5307704103
 Alpha Exchange  Energy =    -1.5473922342
 Beta  Exchange  Energy =    -1.5473922342
 DFT   Exchange  Energy =    -6.6468291881
 DFT Correlation Energy =    -0.3622267779
 Nuclear Repu.   Energy =     5.1954633046
 Nuclear Attr.   Energy =  -249.8845295341
 Kinetic         Energy =    99.4748613710
 SCF time:  CPU 4.11 s  wall 5.11 s
 Final Alpha MO Eigenvalues
            1           2           3           4           5           6
    1 -24.3942628  -1.4195523  -0.7402080  -0.6101444  -0.6101444   0.0304984
            7           8           9          10
    1   0.1826037   0.2719841   0.2719841   0.2819811
 Analysis of SCF Wavefunction
 
 --------------------------------------------------------------
                    Orbital Energies (a.u.)
 --------------------------------------------------------------
 
 Alpha MOs
 -- Occupied --
-24.394  -1.420  -0.740  -0.610  -0.610
 -- Virtual --
  0.030   0.183   0.272   0.272   0.282   0.378   0.593   0.817
  0.817   1.246   1.424   1.424   1.514   1.894   2.175   2.175
  2.305   2.428   2.428   3.372   3.911   3.911   4.591   6.300
  6.300   6.634   6.812   6.812   6.849   6.849   7.205   7.205
  8.494   9.229   9.230   9.409   9.409  10.077  50.163  50.224
 50.299  50.299  50.476  55.814  55.814  56.267  67.015
 --------------------------------------------------------------
 
          Ground-State Mulliken Net Atomic Charges

     Atom                 Charge (a.u.)
  ----------------------------------------
      1 F                    -0.372364
      2 H                     0.372364
  ----------------------------------------
  Sum of atomic charges =     0.000000

 -----------------------------------------------------------------
                    Cartesian Multipole Moments
 -----------------------------------------------------------------
    Charge (ESU x 10^10)
                 0.0000
    Dipole Moment (Debye)
         X       0.0000      Y       0.0000      Z       2.0004
       Tot       2.0004
    Quadrupole Moments (Debye-Ang)
        XX      -5.8868     XY       0.0000     YY      -5.8868
        XZ       0.0020     YZ       0.0000     ZZ      -3.3259
    Octapole Moments (Debye-Ang^2)
       XXX      -0.0177    XXY       0.0000    XYY      -0.0059
       YYY       0.0000    XXZ      -0.3910    XYZ       0.0000
       YYZ      -0.3910    XZZ      -0.0033    YZZ       0.0000
       ZZZ       0.9636
    Hexadecapole Moments (Debye-Ang^3)
      XXXX      -4.1136   XXXY       0.0000   XXYY      -1.3712
      XYYY       0.0000   YYYY      -4.1136   XXXZ      -0.0012
      XXYZ       0.0000   XYYZ      -0.0004   YYYZ       0.0000
      XXZZ      -1.5598   XYZZ       0.0000   YYZZ      -1.5598
      XZZZ       0.0010   YZZZ       0.0000   ZZZZ      -2.9674
 -----------------------------------------------------------------
 Writing REM_CC_EA            2
 ----------------------------------------------------
       Standard Nuclear Orientation (Angstroms)
    I     Atom         X            Y            Z
 ----------------------------------------------------
    1      F       0.001000     0.000000     0.008604
    2      H      -0.001000     0.000000     0.925287
 ----------------------------------------------------
 Nuclear Repulsion Energy =     5.1954509391 hartrees
 There are        5 alpha and        5 beta electrons

                       Distance Matrix (Angstroms)
             F (  1)
   H (  2)  0.916686
 
 Requested basis set is G3large
 There are 16 shells and 52 basis functions
 A cutoff of  1.0D-11 yielded    136 shell pairs
 There are   1462 function pairs (  1834 Cartesian)
Evaluating contribution to one-electron hamiltonian from nuclear
 Smallest overlap matrix eigenvalue = 4.93E-03
 Multipole matrices computed through 2nd order
 Guess MOs from SCF MO coefficient file
Reading MOs from coefficient file
Reading MOs from coefficient file
 A restricted hybrid HF-DFT SCF calculation will be
 performed using Pulay DIIS extrapolation
 Exchange:     1.0000 Hartree-Fock + 1.0000 BNL
 Correlation:  1.0000 LYP
 Using SG-1 standard quadrature grid
 SCF converges when DIIS error is below 1.0E-08
 ---------------------------------------
  Cycle       Energy         DIIS Error
 ---------------------------------------
    1     -99.7872717293      4.64E-05
    2     -99.7872748329      9.93E-06
    3     -99.7872748804      2.08E-06
    4     -99.7872748842      5.96E-07
    5     -99.7872748846      1.81E-07
    6     -99.7872748846      7.41E-08
    7     -99.7872748846      4.75E-09 Convergence criterion met
 ---------------------------------------
 One-Electron    Energy =  -150.4096474083
 Total Coulomb   Energy =    55.5307608597
 Alpha Exchange  Energy =    -1.5473920809
 Beta  Exchange  Energy =    -1.5473920809
 DFT   Exchange  Energy =    -6.6468283690
 DFT Correlation Energy =    -0.3622267442
 Nuclear Repu.   Energy =     5.1954509391
 Nuclear Attr.   Energy =  -249.8845042547
 Kinetic         Energy =    99.4748568464
 SCF time:  CPU 3.59 s  wall 4.23 s
 Final Alpha MO Eigenvalues
            1           2           3           4           5           6
    1 -24.3942628  -1.4195515  -0.7402074  -0.6101442  -0.6101442   0.0304983
            7           8           9          10
    1   0.1826033   0.2719841   0.2719842   0.2819811
 Analysis of SCF Wavefunction
 
 --------------------------------------------------------------
                    Orbital Energies (a.u.)
 --------------------------------------------------------------
 
 Alpha MOs
 -- Occupied --
-24.394  -1.420  -0.740  -0.610  -0.610
 -- Virtual --
  0.030   0.183   0.272   0.272   0.282   0.378   0.593   0.817
  0.817   1.246   1.424   1.424   1.514   1.894   2.175   2.175
  2.305   2.428   2.428   3.372   3.911   3.911   4.591   6.300
  6.300   6.634   6.812   6.812   6.849   6.849   7.205   7.205
  8.494   9.229   9.230   9.409   9.409  10.077  50.163  50.224
 50.299  50.299  50.476  55.814  55.814  56.267  67.015
 --------------------------------------------------------------
 
          Ground-State Mulliken Net Atomic Charges

     Atom                 Charge (a.u.)
  ----------------------------------------
      1 F                    -0.372364
      2 H                     0.372364
  ----------------------------------------
  Sum of atomic charges =     0.000000

 -----------------------------------------------------------------
                    Cartesian Multipole Moments
 -----------------------------------------------------------------
    Charge (ESU x 10^10)
                 0.0000
    Dipole Moment (Debye)
         X      -0.0044      Y       0.0000      Z       2.0004
       Tot       2.0004
    Quadrupole Moments (Debye-Ang)
        XX      -5.8868     XY       0.0000     YY      -5.8868
        XZ      -0.0035     YZ       0.0000     ZZ      -3.3259
    Octapole Moments (Debye-Ang^2)
       XXX      -0.0154    XXY       0.0000    XYY      -0.0051
       YYY       0.0000    XXZ      -0.3910    XYZ       0.0000
       YYZ      -0.3910    XZZ      -0.0072    YZZ       0.0000
       ZZZ       0.9636
    Hexadecapole Moments (Debye-Ang^3)
      XXXX      -4.1136   XXXY       0.0000   XXYY      -1.3712
      XYYY       0.0000   YYYY      -4.1136   XXXZ       0.0000
      XXYZ       0.0000   XYYZ       0.0000   YYYZ       0.0000
      XXZZ      -1.5598   XYZZ       0.0000   YYZZ      -1.5598
      XZZZ      -0.0028   YZZZ       0.0000   ZZZZ      -2.9675
 -----------------------------------------------------------------
 Writing REM_CC_EA            2
 ----------------------------------------------------
       Standard Nuclear Orientation (Angstroms)
    I     Atom         X            Y            Z
 ----------------------------------------------------
    1      F       0.001000     0.000000     0.008604
    2      H       0.000000     0.001000     0.925287
 ----------------------------------------------------
 Nuclear Repulsion Energy =     5.1954571219 hartrees
 There are        5 alpha and        5 beta electrons

                       Distance Matrix (Angstroms)
             F (  1)
   H (  2)  0.916684
 
 Requested basis set is G3large
 There are 16 shells and 52 basis functions
 A cutoff of  1.0D-11 yielded    136 shell pairs
 There are   1462 function pairs (  1834 Cartesian)
Evaluating contribution to one-electron hamiltonian from nuclear
 Smallest overlap matrix eigenvalue = 4.93E-03
 Multipole matrices computed through 2nd order
 Guess MOs from SCF MO coefficient file
Reading MOs from coefficient file
Reading MOs from coefficient file
 A restricted hybrid HF-DFT SCF calculation will be
 performed using Pulay DIIS extrapolation
 Exchange:     1.0000 Hartree-Fock + 1.0000 BNL
 Correlation:  1.0000 LYP
 Using SG-1 standard quadrature grid
 SCF converges when DIIS error is below 1.0E-08
 ---------------------------------------
  Cycle       Energy         DIIS Error
 ---------------------------------------
    1     -99.7872748540      3.28E-05
    2     -99.7872748577      7.02E-06
    3     -99.7872748814      1.47E-06
    4     -99.7872748833      4.16E-07
    5     -99.7872748835      8.46E-08
    6     -99.7872748835      5.37E-08
    7     -99.7872748835      3.66E-09 Convergence criterion met
 ---------------------------------------
 One-Electron    Energy =  -150.4096576746
 Total Coulomb   Energy =    55.5307655089
 Alpha Exchange  Energy =    -1.5473921562
 Beta  Exchange  Energy =    -1.5473921562
 DFT   Exchange  Energy =    -6.6468287666
 DFT Correlation Energy =    -0.3622267607
 Nuclear Repu.   Energy =     5.1954571219
 Nuclear Attr.   Energy =  -249.8845166701
 Kinetic         Energy =    99.4748589954
 SCF time:  CPU 3.61 s  wall 4.28 s
[...]
 -- Virtual --
  0.030   0.182   0.272   0.272   0.282   0.378   0.592   0.817
  0.817   1.245   1.424   1.424   1.514   1.894   2.175   2.175
  2.306   2.427   2.427   3.370   3.911   3.911   4.589   6.300
  6.300   6.634   6.812   6.812   6.849   6.849   7.203   7.203
  8.488   9.229   9.230   9.409   9.409  10.077  50.163  50.224
 50.298  50.298  50.476  55.814  55.814  56.264  67.014
 --------------------------------------------------------------
 
          Ground-State Mulliken Net Atomic Charges

     Atom                 Charge (a.u.)
  ----------------------------------------
      1 F                    -0.372679
      2 H                     0.372679
  ----------------------------------------
  Sum of atomic charges =     0.000000

 -----------------------------------------------------------------
                    Cartesian Multipole Moments
 -----------------------------------------------------------------
    Charge (ESU x 10^10)
                 0.0000
    Dipole Moment (Debye)
         X       0.0000      Y      -0.0022      Z       2.0025
       Tot       2.0025
    Quadrupole Moments (Debye-Ang)
        XX      -5.8879     XY       0.0000     YY      -5.8879
        XZ       0.0000     YZ      -0.0028     ZZ      -3.3221
    Octapole Moments (Debye-Ang^2)
       XXX       0.0000    XXY       0.0004    XYY       0.0000
       YYY       0.0011    XXZ      -0.3919    XYZ       0.0000
       YYZ      -0.3919    XZZ       0.0000    YZZ      -0.0019
       ZZZ       0.9682
    Hexadecapole Moments (Debye-Ang^3)
      XXXX      -4.1150   XXXY       0.0000   XXYY      -1.3717
      XYYY       0.0000   YYYY      -4.1150   XXXZ       0.0000
      XXYZ       0.0002   XYYZ       0.0000   YYYZ       0.0006
      XXZZ      -1.5612   XYZZ       0.0000   YYZZ      -1.5612
      XZZZ       0.0000   YZZZ      -0.0019   ZZZZ      -2.9650
 -----------------------------------------------------------------
 Writing REM_CC_EA            2
 ----------------------------------------------------
       Standard Nuclear Orientation (Angstroms)
    I     Atom         X            Y            Z
 ----------------------------------------------------
    1      F       0.000000     0.000000     0.008604
    2      H       0.000000    -0.001000     0.924287
 ----------------------------------------------------
 Nuclear Repulsion Energy =     5.2011340674 hartrees
 There are        5 alpha and        5 beta electrons

                       Distance Matrix (Angstroms)
             F (  1)
   H (  2)  0.915684
 
 Requested basis set is G3large
 There are 16 shells and 52 basis functions
 A cutoff of  1.0D-11 yielded    136 shell pairs
 There are   1462 function pairs (  1834 Cartesian)
Evaluating contribution to one-electron hamiltonian from nuclear
 Smallest overlap matrix eigenvalue = 4.90E-03
 Multipole matrices computed through 2nd order
 Guess MOs from SCF MO coefficient file
Reading MOs from coefficient file
Reading MOs from coefficient file
 A restricted hybrid HF-DFT SCF calculation will be
 performed using Pulay DIIS extrapolation
 Exchange:     1.0000 Hartree-Fock + 1.0000 BNL
 Correlation:  1.0000 LYP
 Using SG-1 standard quadrature grid
 SCF converges when DIIS error is below 1.0E-08
 ---------------------------------------
  Cycle       Energy         DIIS Error
 ---------------------------------------
    1     -99.7886937631      1.69E-04
    2     -99.7872735004      3.35E-05
    3     -99.7872736881      1.32E-05
    4     -99.7872737087      4.58E-06
    5     -99.7872737123      1.04E-06
    6     -99.7872737126      1.03E-07
    7     -99.7872737126      1.24E-08
    8     -99.7872737126      1.53E-09 Convergence criterion met
 ---------------------------------------
 One-Electron    Energy =  -150.4191150956
 Total Coulomb   Energy =    55.5350711587
 Alpha Exchange  Energy =    -1.5474615294
 Beta  Exchange  Energy =    -1.5474615294
 DFT   Exchange  Energy =    -6.6471987614
 DFT Correlation Energy =    -0.3622420229
 Nuclear Repu.   Energy =     5.2011340674
 Nuclear Attr.   Energy =  -249.8959924800
 Kinetic         Energy =    99.4768773844
 SCF time:  CPU 4.17 s  wall 5.02 s
 Final Alpha MO Eigenvalues
            1           2           3           4           5           6
    1 -24.3942642  -1.4198913  -0.7404880  -0.6102546  -0.6102546   0.0305541
            7           8           9          10
    1   0.1827875   0.2719670   0.2719670   0.2819911
 Analysis of SCF Wavefunction
 
 --------------------------------------------------------------
                    Orbital Energies (a.u.)
 --------------------------------------------------------------
 
 Alpha MOs
 -- Occupied --
-24.394  -1.420  -0.740  -0.610  -0.610
 -- Virtual --
  0.031   0.183   0.272   0.272   0.282   0.378   0.593   0.817
  0.817   1.246   1.424   1.424   1.515   1.894   2.175   2.175
  2.304   2.428   2.428   3.375   3.912   3.912   4.593   6.300
  6.300   6.635   6.812   6.812   6.849   6.849   7.207   7.207
  8.500   9.229   9.229   9.410   9.410  10.077  50.163  50.224
 50.299  50.299  50.476  55.815  55.815  56.269  67.015
 --------------------------------------------------------------
 
          Ground-State Mulliken Net Atomic Charges

     Atom                 Charge (a.u.)
  ----------------------------------------
      1 F                    -0.372048
      2 H                     0.372048
  ----------------------------------------
  Sum of atomic charges =     0.000000

 -----------------------------------------------------------------
                    Cartesian Multipole Moments
 -----------------------------------------------------------------
    Charge (ESU x 10^10)
                 0.0000
    Dipole Moment (Debye)
         X       0.0000      Y      -0.0022      Z       1.9983
       Tot       1.9983
    Quadrupole Moments (Debye-Ang)
        XX      -5.8857     XY       0.0000     YY      -5.8857
        XZ       0.0000     YZ      -0.0028     ZZ      -3.3297
    Octapole Moments (Debye-Ang^2)
       XXX       0.0000    XXY       0.0004    XYY       0.0000
       YYY       0.0011    XXZ      -0.3901    XYZ       0.0000
       YYZ      -0.3900    XZZ       0.0000    YZZ      -0.0019
       ZZZ       0.9590
    Hexadecapole Moments (Debye-Ang^3)
      XXXX      -4.1122   XXXY       0.0000   XXYY      -1.3707
      XYYY       0.0000   YYYY      -4.1122   XXXZ       0.0000
      XXYZ       0.0002   XYYZ       0.0000   YYYZ       0.0006
      XXZZ      -1.5583   XYZZ       0.0000   YYZZ      -1.5583
      XZZZ       0.0000   YZZZ      -0.0019   ZZZZ      -2.9699
 -----------------------------------------------------------------
 Writing REM_CC_EA            2
 ----------------------------------------------------
       Standard Nuclear Orientation (Angstroms)
    I     Atom         X            Y            Z
 ----------------------------------------------------
    1      F       0.000000     0.000000     0.008604
    2      H       0.000000     0.000000     0.927287
 ----------------------------------------------------
 Nuclear Repulsion Energy =     5.1841526325 hartrees
 There are        5 alpha and        5 beta electrons

                       Distance Matrix (Angstroms)
             F (  1)
   H (  2)  0.918683
 
 Requested basis set is G3large
 There are 16 shells and 52 basis functions
 A cutoff of  1.0D-11 yielded    136 shell pairs
 There are   1462 function pairs (  1834 Cartesian)
Evaluating contribution to one-electron hamiltonian from nuclear
 Smallest overlap matrix eigenvalue = 4.99E-03
 Multipole matrices computed through 2nd order
 Guess MOs from SCF MO coefficient file
Reading MOs from coefficient file
Reading MOs from coefficient file
 A restricted hybrid HF-DFT SCF calculation will be
 performed using Pulay DIIS extrapolation
 Exchange:     1.0000 Hartree-Fock + 1.0000 BNL
 Correlation:  1.0000 LYP
 Using SG-1 standard quadrature grid
 SCF converges when DIIS error is below 1.0E-08
 ---------------------------------------
  Cycle       Energy         DIIS Error
 ---------------------------------------
    1     -99.7851438060      2.54E-04
    2     -99.7872696836      5.06E-05
    3     -99.7872701178      2.01E-05
    4     -99.7872701663      7.01E-06
    5     -99.7872701749      1.65E-06
    6     -99.7872701758      1.99E-07
    7     -99.7872701758      3.18E-08
    8     -99.7872701758      5.99E-09 Convergence criterion met
 ---------------------------------------
 One-Electron    Energy =  -150.3908171837
 Total Coulomb   Energy =    55.5221906325
 Alpha Exchange  Energy =    -1.5472536740
 Beta  Exchange  Energy =    -1.5472536740
 DFT   Exchange  Energy =    -6.6460925860
 DFT Correlation Energy =    -0.3621963231
 Nuclear Repu.   Energy =     5.1841526325
 Nuclear Attr.   Energy =  -249.8616671180
 Kinetic         Energy =    99.4708499343
 SCF time:  CPU 4.14 s  wall 5.59 s
 Final Alpha MO Eigenvalues
            1           2           3           4           5           6
    1 -24.3942596  -1.4188764  -0.7396479  -0.6099242  -0.6099241   0.0303862
            7           8           9          10
    1   0.1822346   0.2720184   0.2720184   0.2819612
 Analysis of SCF Wavefunction
 
 --------------------------------------------------------------
                    Orbital Energies (a.u.)
 --------------------------------------------------------------
 
 Alpha MOs
 -- Occupied --
-24.394  -1.419  -0.740  -0.610  -0.610
 -- Virtual --
  0.030   0.182   0.272   0.272   0.282   0.378   0.592   0.816
  0.816   1.245   1.424   1.424   1.513   1.894   2.175   2.175
  2.307   2.427   2.427   3.368   3.910   3.910   4.587   6.300
  6.300   6.633   6.812   6.812   6.849   6.849   7.201   7.201
  8.482   9.230   9.230   9.409   9.409  10.077  50.163  50.224
 50.298  50.298  50.476  55.814  55.814  56.262  67.014
 --------------------------------------------------------------
 
          Ground-State Mulliken Net Atomic Charges

     Atom                 Charge (a.u.)
  ----------------------------------------
      1 F                    -0.372994
      2 H                     0.372994
  ----------------------------------------
  Sum of atomic charges =     0.000000

 -----------------------------------------------------------------
                    Cartesian Multipole Moments
 -----------------------------------------------------------------
    Charge (ESU x 10^10)
                 0.0000
    Dipole Moment (Debye)
         X       0.0000      Y       0.0000      Z       2.0046
       Tot       2.0046
    Quadrupole Moments (Debye-Ang)
        XX      -5.8889     XY       0.0000     YY      -5.8889
        XZ       0.0000     YZ       0.0000     ZZ      -3.3183
    Octapole Moments (Debye-Ang^2)
       XXX       0.0000    XXY       0.0000    XYY       0.0000
       YYY       0.0000    XXZ      -0.3928    XYZ       0.0000
       YYZ      -0.3928    XZZ       0.0000    YZZ       0.0000
       ZZZ       0.9728
    Hexadecapole Moments (Debye-Ang^3)
      XXXX      -4.1164   XXXY       0.0000   XXYY      -1.3721
      XYYY       0.0000   YYYY      -4.1164   XXXZ       0.0000
      XXYZ       0.0000   XYYZ       0.0000   YYYZ       0.0000
      XXZZ      -1.5627   XYZZ       0.0000   YYZZ      -1.5627
      XZZZ       0.0000   YZZZ       0.0000   ZZZZ      -2.9624
 -----------------------------------------------------------------
 Writing REM_CC_EA            2
 ----------------------------------------------------
       Standard Nuclear Orientation (Angstroms)
    I     Atom         X            Y            Z
 ----------------------------------------------------
    1      F       0.000000     0.000000     0.008604
    2      H       0.000000     0.000000     0.923287
 ----------------------------------------------------
 Nuclear Repulsion Energy =     5.2068234395 hartrees
 There are        5 alpha and        5 beta electrons

                       Distance Matrix (Angstroms)
             F (  1)
   H (  2)  0.914683
 
 Requested basis set is G3large
 There are 16 shells and 52 basis functions
 A cutoff of  1.0D-11 yielded    136 shell pairs
 There are   1462 function pairs (  1834 Cartesian)
Evaluating contribution to one-electron hamiltonian from nuclear
 Smallest overlap matrix eigenvalue = 4.87E-03
 Multipole matrices computed through 2nd order
 Guess MOs from SCF MO coefficient file
Reading MOs from coefficient file
Reading MOs from coefficient file
 A restricted hybrid HF-DFT SCF calculation will be
 performed using Pulay DIIS extrapolation
 Exchange:     1.0000 Hartree-Fock + 1.0000 BNL
 Correlation:  1.0000 LYP
 Using SG-1 standard quadrature grid
 SCF converges when DIIS error is below 1.0E-08
 ---------------------------------------
  Cycle       Energy         DIIS Error
 ---------------------------------------
    1     -99.7901119954      3.38E-04
    2     -99.7872693190      6.70E-05
    3     -99.7872700690      2.64E-05
    4     -99.7872701512      9.14E-06
    5     -99.7872701654      2.07E-06
    6     -99.7872701666      2.06E-07
    7     -99.7872701666      2.47E-08
    8     -99.7872701666      3.05E-09 Convergence criterion met
 ---------------------------------------
 One-Electron    Energy =  -150.4285901696
 Total Coulomb   Energy =    55.5393854575
 Alpha Exchange  Energy =    -1.5475309362
 Beta  Exchange  Energy =    -1.5475309362
 DFT   Exchange  Energy =    -6.6475697195
 DFT Correlation Energy =    -0.3622573021
 Nuclear Repu.   Energy =     5.2068234395
 Nuclear Attr.   Energy =  -249.9074933071
 Kinetic         Energy =    99.4789031375
 SCF time:  CPU 4.13 s  wall 4.95 s
 Final Alpha MO Eigenvalues
            1           2           3           4           5           6
    1 -24.3942653  -1.4202315  -0.7407683  -0.6103650  -0.6103650   0.0306097
            7           8           9          10
    1   0.1829710   0.2719498   0.2719498   0.2820012
 Analysis of SCF Wavefunction
 
 --------------------------------------------------------------
                    Orbital Energies (a.u.)
 --------------------------------------------------------------
 
 Alpha MOs
 -- Occupied --
-24.394  -1.420  -0.741  -0.610  -0.610
 -- Virtual --
  0.031   0.183   0.272   0.272   0.282   0.379   0.594   0.817
  0.817   1.246   1.423   1.423   1.515   1.894   2.174   2.174
  2.303   2.429   2.429   3.377   3.913   3.913   4.595   6.300
  6.300   6.636   6.811   6.812   6.849   6.849   7.209   7.209
  8.505   9.229   9.229   9.410   9.410  10.077  50.163  50.224
 50.299  50.299  50.476  55.815  55.815  56.272  67.016
 --------------------------------------------------------------
 
          Ground-State Mulliken Net Atomic Charges

     Atom                 Charge (a.u.)
  ----------------------------------------
      1 F                    -0.371730
      2 H                     0.371730
  ----------------------------------------
  Sum of atomic charges =     0.000000

 -----------------------------------------------------------------
                    Cartesian Multipole Moments
 -----------------------------------------------------------------
    Charge (ESU x 10^10)
                 0.0000
    Dipole Moment (Debye)
         X       0.0000      Y       0.0000      Z       1.9963
       Tot       1.9963
    Quadrupole Moments (Debye-Ang)
        XX      -5.8846     XY       0.0000     YY      -5.8846
        XZ       0.0000     YZ       0.0000     ZZ      -3.3335
    Octapole Moments (Debye-Ang^2)
       XXX       0.0000    XXY       0.0000    XYY       0.0000
       YYY       0.0000    XXZ      -0.3892    XYZ       0.0000
       YYZ      -0.3892    XZZ       0.0000    YZZ       0.0000
       ZZZ       0.9544
    Hexadecapole Moments (Debye-Ang^3)
      XXXX      -4.1108   XXXY       0.0000   XXYY      -1.3703
      XYYY       0.0000   YYYY      -4.1108   XXXZ       0.0000
      XXYZ       0.0000   XYYZ       0.0000   YYYZ       0.0000
      XXZZ      -1.5569   XYZZ       0.0000   YYZZ      -1.5569
      XZZZ       0.0000   YZZZ       0.0000   ZZZZ      -2.9724
 -----------------------------------------------------------------
 Writing REM_CC_EA            2
 ----------------------------------------------------
       Standard Nuclear Orientation (Angstroms)
    I     Atom         X            Y            Z
 ----------------------------------------------------
    1      F       0.000000     0.000000     0.008604
    2      H       0.000000     0.000000     0.925287
 ----------------------------------------------------
 Nuclear Repulsion Energy =     5.1954633046 hartrees
 There are        5 alpha and        5 beta electrons
FINAL TENSOR RESULT:
Order 2, Length 6
Order 1, Length 6
  -0.0003062   0.0000001   0.0000000   0.0003062   0.0000000  -0.0000000
Order 1, Length 6
   0.0000001  -0.0003058  -0.0000000  -0.0000000   0.0003062  -0.0000000
Order 1, Length 6
   0.0000000  -0.0000000   0.6596384   0.0000001  -0.0000001  -0.6596382
Order 1, Length 6
   0.0003062  -0.0000000   0.0000001  -0.0003061  -0.0000000   0.0000000
Order 1, Length 6
   0.0000000   0.0003062  -0.0000001  -0.0000000  -0.0003061  -0.0000002
Order 1, Length 6
  -0.0000000  -0.0000000  -0.6596382   0.0000000  -0.0000002   0.6596383


 # Finishing finite difference calculation for IDERIV #
 ######################################################
 ######################################################
 Requested basis set is G3large
 There are 16 shells and 52 basis functions
 **********************************************************************
 **                                                                  **
 **                       VIBRATIONAL ANALYSIS                       **
 **                       --------------------                       **
 **                                                                  **
 **        VIBRATIONAL FREQUENCIES (CM**-1) AND NORMAL MODES         **
 **     FORCE CONSTANTS (mDYN/ANGSTROM) AND REDUCED MASSES (AMU)     **
 **                                                                  **
 **********************************************************************
 

 Mode:                 1
 Frequency:      4267.65
 Force Cnst:     11.3565
 Red. Mass:       1.0583
 IR Active:          YES
 Raman Active:       YES
               X      Y      Z
 F          0.000  0.000 -0.053
 H          0.000  0.000  0.999
 TransDip   0.000  0.000  0.000

 STANDARD THERMODYNAMIC QUANTITIES AT   298.18 K  AND     1.00 ATM

   This Molecule has  0 Imaginary Frequencies
   Zero point vibrational energy:        6.101 kcal/mol

   Atom    1 Element F  Has Mass   18.99840
   Atom    2 Element H  Has Mass    1.00783
   Molecular Mass:    20.006230 amu
   Principal axes and moments of inertia in atomic units:
                             1           2           3
    Eigenvalues --        0.00000     2.87194     2.87194
          X               0.00000     0.00000     1.00000
          Y               0.00000     1.00000     0.00000
          Z               1.00000     0.00000     0.00000
   Rotational Symmetry Number is   1
   The Molecule is a Symmetric Top
   Translational Enthalpy:        0.889 kcal/mol
   Rotational Enthalpy:           0.889 kcal/mol
   Vibrational Enthalpy:          6.101 kcal/mol
   gas constant (RT):             0.593 kcal/mol
   Translational Entropy:        34.922  cal/mol.K
   Rotational Entropy:          -42.776  cal/mol.K
   Vibrational Entropy:           0.000  cal/mol.K

   Total Enthalpy:                8.471 kcal/mol
   Total Entropy:                -7.854  cal/mol.K
 Total job time:  350.84s(wall), 291.43s(cpu) 
 Sun Apr 17 20:00:53 2011

        *************************************************************
        *                                                           *
        *  Thank you very much for using Q-Chem.  Have a nice day.  *
        *                                                           *
        *************************************************************


0 sent ACK to 0 
now end server 0 ... 
