Process 0 of 1 is on cl109.stfx.acenet.ca - thread support 1
initial socket setup ...start
initial socket setup ...done 
now start server 0 ... 

cmd = /usr/bin/ssh clhead /usr/local/qchem/bin/get_hostid 361161652 > /scratch/tmp/6021870.1.short.q/qchem5158/lic.dat
                  Welcome to Q-Chem
     A Quantum Leap Into The Future Of Chemistry

 Y. Shao, L. Fusti-Molnar, Y. Jung, J. Kussmann, C. Ochsenfeld,
 S. T. Brown, A. T. B. Gilbert, L. V. Slipchenko,S. V. Levchenko,
 D. P. O'Neill, R. A. DiStasio Jr., R. C. Lochan, T. Wang,
 G. J. O. Beran, N. A. Besley, J. M. Herbert, C. Y. Lin,
 T. Van Voorhis, S. H. Chien, A. Sodt, R. P. Steele, 
 V. A. Rassolov, P. E. Maslen, P. P. Korambath, R. D. Adamson,
 B. Austin, J. Baker, E. F. C. Byrd, H. Dachsel, R. J. Doerksen,
 A. Dreuw, B. D. Dunietz, A. D. Dutoi, T. R. Furlani,
 S. R. Gwaltney, A. Heyden, S. Hirata, C.-P. Hsu, G. Kedziora,
 R. Z. Khaliullin, P. Klunzinger, A. M. Lee, M. S. Lee, W. Liang,
 I. Lotan, N. Nair, B. Peters, E. I. Proynov, P. A. Pieniazek, 
 Y. M. Rhee, J. Ritchie, E. Rosta, C. D. Sherrill, 
 A. C. Simmonett, J. E. Subotnik, H. L. Woodcock III,
 W. Zhang, A. T. Bell, A. K. Chakraborty, D. M. Chipman,
 F. J. Keil, A. Warshel, W. J. Hehre, H. F. Schaefer III,
 J. Kong, A. I. Krylov, P. M. W. Gill, M. Head-Gordon,
 Q-Chem, Version 3.1, Q-Chem, Inc., Pittsburgh, PA (2007).

 Additional authors for Version 3.1: 
 Z. Gan, Y. Zhao, N. E. Schultz, D. Truhlar, E. Epifanovsky and M. Oana.

 Additional authors for Version 3.2: 
 R. Baer, B. R. Brooks, D. Casanova, J.-D. Chai, C.-L. Cheng, 
 C. Cramer, D. Crittenden, A. Ghysels, G. Hawkins, E. G. Hohenstein, 
 C. Kelley, W. Kurlancheek, D. Liotard, E. Livshits, P. Manohar, 
 A. Marenich, D. Neuhauser, R. Olson, M. A. Rohrdanz, K. S. Thanthiriwatte, 
 A. J. W. Thom, V. Vanovschi, C. F. Williams, Q. Wu and Z.-Q. You. 


 Intel X86 Linux Version

 Q-chem begins on Wed May 29 17:01:38 2013  

 Parallel job on  1  processors
Processing $rem in /usr/local/qchem/config/preferences.

theFileMan(): MAXOPENFILES=974 MAX_SUB_FILE_NUM=16
Maximum size of a physical file is 2.0 GB, maximum size of a tmp-file is 32.0 GB


--------------------------------------------------------------
User input:
--------------------------------------------------------------

$molecule
-1,2
S          0.00000        0.00000        0.00613
H          0.96493        0.00000        0.92785
H         -0.96493        0.00000        0.92785
$end

$comment
negative
$end

$xc_functional
C PBE   1.00
X wPBE  1.00
$end

$rem
SYMMETRY_DECOMPOSITION	0
exchange 		general
LRC_DFT                 true
BASIS                   g3large
omega			430
mem_static              760
max_scf_cycles          200
scf_final_print         1
sym_ignore              true
$end

--------------------------------------------------------------
 Writing REM_CC_EA            3
 ----------------------------------------------------
       Standard Nuclear Orientation (Angstroms)
    I     Atom         X            Y            Z
 ----------------------------------------------------
    1      S       0.000000     0.000000     0.006130
    2      H       0.964930     0.000000     0.927850
    3      H      -0.964930     0.000000     0.927850
 ----------------------------------------------------
 Nuclear Repulsion Energy =    12.9641837181 hartrees
 There are       10 alpha and        9 beta electrons
 Requested basis set is G3large
 There are 31 shells and 86 basis functions

Total QAlloc Memory Limit   2000 MB
Mega-Array Size       743 MB
MEM_STATIC part       760 MB

                       Distance Matrix (Angstroms)
             S (  1)   H (  2)
   H (  2)  1.334413
   H (  3)  1.334413  1.929860
 
 A cutoff of  1.0D-08 yielded    496 shell pairs
 There are   3877 function pairs (  5178 Cartesian)
Evaluating contribution to one-electron hamiltonian from nuclear
 Smallest overlap matrix eigenvalue = 2.33E-03
 Multipole matrices computed through 2nd order

  Scale SEOQF with 1.000000e-01/1.000000e-01/1.000000e-01

 Standard Electronic Orientation quadrupole field applied
 Nucleus-field energy     =    -0.0000000001 hartrees
 Guess from superposition of atomic densities
 Warning:  Energy on first SCF cycle will be non-variational
 Long-range K will be added via erf
 Coulomb attenuation parameter = 0.43 bohr**(-1)
 An unrestricted Kohn-Sham SCF calculation will be
 performed using Pulay DIIS extrapolation
 Exchange:  wPBE + LR-HF      Correlation:  PBE
 Using SG-1 standard quadrature grid
 SCF converges when DIIS error is below 1.0E-05
 Requested basis set is G3large
 There are 31 shells and 86 basis functions
 A cutoff of  1.0D-08 yielded    496 shell pairs
 There are   3877 function pairs (  5178 Cartesian)
 Warning!  Inaccurate integrated density:
   Number of electrons =    19
   Numerical integral  =    18.000029485509
   Relative error      =    -5.2630027078 %
 ---------------------------------------
  Cycle       Energy         DIIS Error
 ---------------------------------------
    1    -399.2274618013      3.40E-02
    2    -399.2203626635      3.38E-03
    3    -399.2421110744      2.38E-03
    4    -399.2473397668      4.76E-04
    5    -399.2489644875      2.00E-04
    6    -399.2495020549      6.52E-05
    7    -399.2495861842      1.71E-05
    8    -399.2495939307      7.03E-06 Convergence criterion met
 ---------------------------------------
 One-Electron    Energy =  -579.8886825826
 Total Coulomb   Energy =   194.0445315537
 Alpha Exchange  Energy =    -2.0331956112
 Beta  Exchange  Energy =    -1.9561676281
 DFT   Exchange  Energy =   -21.7041454286
 DFT Correlation Energy =    -0.6761179518
 Nuclear Repu.   Energy =    12.9641837180
 Nuclear Attr.   Energy =  -978.6600723279
 Kinetic         Energy =   398.7713897452
 <S^2> = 0.7505
 SCF time:  CPU 13.94 s  wall 14.30 s
 Final Alpha MO Eigenvalues
            1           2           3           4           5           6
    1 -88.1148583  -7.7548628  -5.7694734  -5.7655219  -5.7595945  -0.7425296
            7           8           9          10          11          12
    1  -0.4085131  -0.3321813  -0.2272066   0.0255992   0.1643106   0.2029900
           13          14          15
    1   0.2173365   0.2202638   0.2907174
 Final Beta MO Eigenvalues
            1           2           3           4           5           6
    1 -88.1145223  -7.7544694  -5.7692126  -5.7648716  -5.7592509  -0.7392037
            7           8           9          10          11          12
    1  -0.4069565  -0.3303767  -0.2262224   0.1583218   0.1908371   0.2172270
           13          14
    1   0.2237230   0.2267316
 Analysis of SCF Wavefunction
 
 --------------------------------------------------------------
                    Orbital Energies (a.u.)
 --------------------------------------------------------------
 
 Alpha MOs
 -- Occupied --
-88.115  -7.755  -5.769  -5.766  -5.760  -0.743  -0.409  -0.332
 -0.227   0.026
 -- Virtual --
  0.164   0.203   0.217   0.220   0.291   0.309   0.323   0.444
  0.465   0.471   0.504   0.532   0.623   0.646   0.682   0.760
  0.830   1.023   1.038   1.055   1.068   1.098   1.126   1.134
  1.181   1.207   1.239   1.245   1.356   1.386   1.476   1.480
  1.528   1.616   1.754   1.842   2.076   2.278   2.287   3.024
  3.067   3.549   3.594   3.641   3.685   3.687   3.708   3.750
  4.222   4.246   4.247   4.267   4.589   4.640   4.837   4.838
  4.858   5.274   5.818   8.385  17.264  17.399  17.441  23.634
 23.716  23.718  23.808  24.071  31.082  31.086  31.087  31.089
 31.093  31.114  31.118 188.860
 
 Beta MOs
 -- Occupied --
-88.115  -7.754  -5.769  -5.765  -5.759  -0.739  -0.407  -0.330
 -0.226
 -- Virtual --
  0.158   0.191   0.217   0.224   0.227   0.295   0.312   0.337
  0.446   0.467   0.473   0.505   0.532   0.625   0.648   0.680
  0.761   0.831   1.025   1.039   1.056   1.069   1.099   1.126
  1.135   1.181   1.208   1.240   1.247   1.357   1.388   1.478
  1.482   1.530   1.618   1.756   1.844   2.076   2.278   2.288
  3.024   3.067   3.550   3.595   3.642   3.686   3.688   3.710
  3.752   4.222   4.247   4.247   4.268   4.590   4.640   4.837
  4.838   4.858   5.275   5.819   8.385  17.264  17.399  17.442
 23.635  23.717  23.719  23.808  24.072  31.082  31.086  31.088
 31.090  31.094  31.115  31.118 188.861
 --------------------------------------------------------------
 
          Ground-State Mulliken Net Atomic Charges

     Atom                 Charge (a.u.)    Spin (a.u.)
  --------------------------------------------------------
      1 S                     1.574222      -1.842692
      2 H                    -1.288272       1.422545
      3 H                    -1.285950       1.420148
  --------------------------------------------------------
  Sum of atomic charges =    -1.000000
  Sum of spin   charges =     1.000000

 -----------------------------------------------------------------
                    Cartesian Multipole Moments
 -----------------------------------------------------------------
    Charge (ESU x 10^10)
                -4.8032
    Dipole Moment (Debye)
         X      -0.0074      Y       0.0000      Z      -5.4700
       Tot       5.4700
    Quadrupole Moments (Debye-Ang)
        XX     -38.3036     XY      -0.0001     YY     -29.3833
        XZ      -0.0148     YZ       0.0000     ZZ     -40.6981
    Octapole Moments (Debye-Ang^2)
       XXX      -0.0784    XXY       0.0002    XYY      -0.0185
       YYY       0.0005    XXZ     -31.6142    XYZ       0.0003
       YYZ     -18.5748    XZZ      -0.0385    YZZ       0.0002
       ZZZ     -75.5010
    Hexadecapole Moments (Debye-Ang^3)
      XXXX    -320.4187   XXXY      -0.0001   XXYY     -69.2611
      XYYY      -0.0002   YYYY    -120.3494   XXXZ      -0.1257
      XXYZ       0.0001   XYYZ      -0.0319   YYYZ       0.0003
      XXZZ    -118.7891   XYZZ       0.0000   YYZZ     -73.5319
      XZZZ      -0.1230   YZZZ       0.0003   ZZZZ    -350.4815
 -----------------------------------------------------------------
 Total job time:  14.40s(wall), 14.04s(cpu) 
 Wed May 29 17:01:52 2013

        *************************************************************
        *                                                           *
        *  Thank you very much for using Q-Chem.  Have a nice day.  *
        *                                                           *
        *************************************************************


0 sent ACK to 0 
now end server 0 ... 
 
**********************************************************************
Job 2 of 3 
**********************************************************************
 
Process 0 of 1 is on cl109.stfx.acenet.ca - thread support 1
initial socket setup ...start
initial socket setup ...done 
now start server 0 ... 

cmd = /usr/bin/ssh clhead /usr/local/qchem/bin/get_hostid 871057637 > /scratch/tmp/6021870.1.short.q/qchem5158/lic.dat
                  Welcome to Q-Chem
     A Quantum Leap Into The Future Of Chemistry

 Y. Shao, L. Fusti-Molnar, Y. Jung, J. Kussmann, C. Ochsenfeld,
 S. T. Brown, A. T. B. Gilbert, L. V. Slipchenko,S. V. Levchenko,
 D. P. O'Neill, R. A. DiStasio Jr., R. C. Lochan, T. Wang,
 G. J. O. Beran, N. A. Besley, J. M. Herbert, C. Y. Lin,
 T. Van Voorhis, S. H. Chien, A. Sodt, R. P. Steele, 
 V. A. Rassolov, P. E. Maslen, P. P. Korambath, R. D. Adamson,
 B. Austin, J. Baker, E. F. C. Byrd, H. Dachsel, R. J. Doerksen,
 A. Dreuw, B. D. Dunietz, A. D. Dutoi, T. R. Furlani,
 S. R. Gwaltney, A. Heyden, S. Hirata, C.-P. Hsu, G. Kedziora,
 R. Z. Khaliullin, P. Klunzinger, A. M. Lee, M. S. Lee, W. Liang,
 I. Lotan, N. Nair, B. Peters, E. I. Proynov, P. A. Pieniazek, 
 Y. M. Rhee, J. Ritchie, E. Rosta, C. D. Sherrill, 
 A. C. Simmonett, J. E. Subotnik, H. L. Woodcock III,
 W. Zhang, A. T. Bell, A. K. Chakraborty, D. M. Chipman,
 F. J. Keil, A. Warshel, W. J. Hehre, H. F. Schaefer III,
 J. Kong, A. I. Krylov, P. M. W. Gill, M. Head-Gordon,
 Q-Chem, Version 3.1, Q-Chem, Inc., Pittsburgh, PA (2007).

 Additional authors for Version 3.1: 
 Z. Gan, Y. Zhao, N. E. Schultz, D. Truhlar, E. Epifanovsky and M. Oana.

 Additional authors for Version 3.2: 
 R. Baer, B. R. Brooks, D. Casanova, J.-D. Chai, C.-L. Cheng, 
 C. Cramer, D. Crittenden, A. Ghysels, G. Hawkins, E. G. Hohenstein, 
 C. Kelley, W. Kurlancheek, D. Liotard, E. Livshits, P. Manohar, 
 A. Marenich, D. Neuhauser, R. Olson, M. A. Rohrdanz, K. S. Thanthiriwatte, 
 A. J. W. Thom, V. Vanovschi, C. F. Williams, Q. Wu and Z.-Q. You. 


 Intel X86 Linux Version

 Q-chem begins on Wed May 29 17:01:56 2013  

 Parallel job on  1  processors
Processing $rem in /usr/local/qchem/config/preferences.

theFileMan(): MAXOPENFILES=974 MAX_SUB_FILE_NUM=16
Maximum size of a physical file is 2.0 GB, maximum size of a tmp-file is 32.0 GB


--------------------------------------------------------------
User input:
--------------------------------------------------------------

$molecule
0,1
S          0.00000        0.00000        0.00613
H          0.96493        0.00000        0.92785
H         -0.96493        0.00000        0.92785
$end

$comment
neutral
$end

$xc_functional
C PBE   1.00
X wPBE  1.00
$end


$rem
SYMMETRY_DECOMPOSITION	0
LRC_DFT                 true
exchange 		general
BASIS                   g3large
omega			430
mem_static              760
max_scf_cycles          200
scf_final_print         1
sym_ignore              true
$end

--------------------------------------------------------------
 Writing REM_CC_EA            3
 ----------------------------------------------------
       Standard Nuclear Orientation (Angstroms)
    I     Atom         X            Y            Z
 ----------------------------------------------------
    1      S       0.000000     0.000000     0.006130
    2      H       0.964930     0.000000     0.927850
    3      H      -0.964930     0.000000     0.927850
 ----------------------------------------------------
 Nuclear Repulsion Energy =    12.9641837181 hartrees
 There are        9 alpha and        9 beta electrons
 Requested basis set is G3large
 There are 31 shells and 86 basis functions

Total QAlloc Memory Limit   2000 MB
Mega-Array Size       743 MB
MEM_STATIC part       760 MB

                       Distance Matrix (Angstroms)
             S (  1)   H (  2)
   H (  2)  1.334413
   H (  3)  1.334413  1.929860
 
 A cutoff of  1.0D-08 yielded    496 shell pairs
 There are   3877 function pairs (  5178 Cartesian)
Evaluating contribution to one-electron hamiltonian from nuclear
 Smallest overlap matrix eigenvalue = 2.33E-03
 Multipole matrices computed through 2nd order

  Scale SEOQF with 1.000000e-01/1.000000e-01/1.000000e-01

 Standard Electronic Orientation quadrupole field applied
 Nucleus-field energy     =    -0.0000000001 hartrees
 Guess from superposition of atomic densities
 Warning:  Energy on first SCF cycle will be non-variational
 Long-range K will be added via erf
 Coulomb attenuation parameter = 0.43 bohr**(-1)
 A restricted Kohn-Sham SCF calculation will be
 performed using Pulay DIIS extrapolation
 Exchange:  wPBE + LR-HF      Correlation:  PBE
 Using SG-1 standard quadrature grid
 SCF converges when DIIS error is below 1.0E-05
 Requested basis set is G3large
 There are 31 shells and 86 basis functions
 A cutoff of  1.0D-08 yielded    496 shell pairs
 There are   3877 function pairs (  5178 Cartesian)
 ---------------------------------------
  Cycle       Energy         DIIS Error
 ---------------------------------------
    1    -399.2274618013      3.40E-02
    2    -399.2647008590      3.24E-03
    3    -399.2772880078      1.78E-03
    4    -399.2795981797      3.12E-04
    5    -399.2798738010      1.25E-04
    6    -399.2799385038      4.42E-05
    7    -399.2799489765      1.37E-05
    8    -399.2799499987      3.96E-06 Convergence criterion met
 ---------------------------------------
 One-Electron    Energy =  -576.9671441634
 Total Coulomb   Energy =   191.0057289392
 Alpha Exchange  Energy =    -1.9583325154
 Beta  Exchange  Energy =    -1.9583325154
 DFT   Exchange  Energy =   -21.6982423069
 DFT Correlation Energy =    -0.6678111548
 Nuclear Repu.   Energy =    12.9641837180
 Nuclear Attr.   Energy =  -975.6613205658
 Kinetic         Energy =   398.6941764024
 SCF time:  CPU 12.70 s  wall 12.89 s
 Final Alpha MO Eigenvalues
            1           2           3           4           5           6
    1 -88.2810828  -7.9201194  -5.9349294  -5.9310620  -5.9244260  -0.9053505
            7           8           9          10          11          12
    1  -0.5739539  -0.4923723  -0.3872654   0.0371507   0.0705981   0.0970209
           13          14
    1   0.1037327   0.1104241
 Analysis of SCF Wavefunction
 
 --------------------------------------------------------------
                    Orbital Energies (a.u.)
 --------------------------------------------------------------
 
 Alpha MOs
 -- Occupied --
-88.281  -7.920  -5.935  -5.931  -5.924  -0.905  -0.574  -0.492
 -0.387
 -- Virtual --
  0.037   0.071   0.097   0.104   0.110   0.163   0.171   0.184
  0.286   0.309   0.315   0.359   0.386   0.481   0.501   0.534
  0.601   0.674   0.862   0.882   0.891   0.908   0.942   0.968
  0.976   1.023   1.048   1.080   1.087   1.196   1.228   1.317
  1.319   1.367   1.454   1.591   1.676   1.917   2.120   2.129
  2.858   2.902   3.384   3.429   3.478   3.523   3.524   3.545
  3.588   4.053   4.078   4.079   4.099   4.422   4.472   4.673
  4.674   4.693   5.111   5.652   8.220  17.099  17.234  17.276
 23.469  23.552  23.553  23.643  23.906  30.917  30.921  30.922
 30.924  30.928  30.949  30.952 188.694
 --------------------------------------------------------------
 
          Ground-State Mulliken Net Atomic Charges

     Atom                 Charge (a.u.)
  ----------------------------------------
      1 S                    -0.241309
      2 H                     0.120655
      3 H                     0.120654
  ----------------------------------------
  Sum of atomic charges =     0.000000

 -----------------------------------------------------------------
                    Cartesian Multipole Moments
 -----------------------------------------------------------------
    Charge (ESU x 10^10)
                 0.0000
    Dipole Moment (Debye)
         X       0.0000      Y       0.0000      Z       1.1073
       Tot       1.1073
    Quadrupole Moments (Debye-Ang)
        XX     -12.1242     XY       0.0001     YY     -16.5109
        XZ       0.0000     YZ       0.0000     ZZ     -13.1939
    Octapole Moments (Debye-Ang^2)
       XXX       0.0000    XXY       0.0000    XYY       0.0000
       YYY       0.0000    XXZ       0.0540    XYZ      -0.0002
       YYZ      -1.5799    XZZ       0.0000    YZZ       0.0000
       ZZZ      -2.9751
    Hexadecapole Moments (Debye-Ang^3)
      XXXX     -21.6332   XXXY       0.0001   XXYY      -8.1355
      XYYY       0.0001   YYYY     -24.1281   XXXZ       0.0000
      XXYZ       0.0000   XYYZ       0.0000   YYYZ       0.0000
      XXZZ      -6.1033   XYZZ       0.0000   YYZZ      -8.4274
      XZZZ       0.0000   YZZZ       0.0000   ZZZZ     -24.1034
 -----------------------------------------------------------------
 Total job time:  12.99s(wall), 12.79s(cpu) 
 Wed May 29 17:02:09 2013

        *************************************************************
        *                                                           *
        *  Thank you very much for using Q-Chem.  Have a nice day.  *
        *                                                           *
        *************************************************************


0 sent ACK to 0 
now end server 0 ... 
 
**********************************************************************
Job 3 of 3 
**********************************************************************
 
Process 0 of 1 is on cl109.stfx.acenet.ca - thread support 1
initial socket setup ...start
initial socket setup ...done 
now start server 0 ... 

cmd = /usr/bin/ssh clhead /usr/local/qchem/bin/get_hostid 2145642149 > /scratch/tmp/6021870.1.short.q/qchem5158/lic.dat
                  Welcome to Q-Chem
     A Quantum Leap Into The Future Of Chemistry

 Y. Shao, L. Fusti-Molnar, Y. Jung, J. Kussmann, C. Ochsenfeld,
 S. T. Brown, A. T. B. Gilbert, L. V. Slipchenko,S. V. Levchenko,
 D. P. O'Neill, R. A. DiStasio Jr., R. C. Lochan, T. Wang,
 G. J. O. Beran, N. A. Besley, J. M. Herbert, C. Y. Lin,
 T. Van Voorhis, S. H. Chien, A. Sodt, R. P. Steele, 
 V. A. Rassolov, P. E. Maslen, P. P. Korambath, R. D. Adamson,
 B. Austin, J. Baker, E. F. C. Byrd, H. Dachsel, R. J. Doerksen,
 A. Dreuw, B. D. Dunietz, A. D. Dutoi, T. R. Furlani,
 S. R. Gwaltney, A. Heyden, S. Hirata, C.-P. Hsu, G. Kedziora,
 R. Z. Khaliullin, P. Klunzinger, A. M. Lee, M. S. Lee, W. Liang,
 I. Lotan, N. Nair, B. Peters, E. I. Proynov, P. A. Pieniazek, 
 Y. M. Rhee, J. Ritchie, E. Rosta, C. D. Sherrill, 
 A. C. Simmonett, J. E. Subotnik, H. L. Woodcock III,
 W. Zhang, A. T. Bell, A. K. Chakraborty, D. M. Chipman,
 F. J. Keil, A. Warshel, W. J. Hehre, H. F. Schaefer III,
 J. Kong, A. I. Krylov, P. M. W. Gill, M. Head-Gordon,
 Q-Chem, Version 3.1, Q-Chem, Inc., Pittsburgh, PA (2007).

 Additional authors for Version 3.1: 
 Z. Gan, Y. Zhao, N. E. Schultz, D. Truhlar, E. Epifanovsky and M. Oana.

 Additional authors for Version 3.2: 
 R. Baer, B. R. Brooks, D. Casanova, J.-D. Chai, C.-L. Cheng, 
 C. Cramer, D. Crittenden, A. Ghysels, G. Hawkins, E. G. Hohenstein, 
 C. Kelley, W. Kurlancheek, D. Liotard, E. Livshits, P. Manohar, 
 A. Marenich, D. Neuhauser, R. Olson, M. A. Rohrdanz, K. S. Thanthiriwatte, 
 A. J. W. Thom, V. Vanovschi, C. F. Williams, Q. Wu and Z.-Q. You. 


 Intel X86 Linux Version

 Q-chem begins on Wed May 29 17:02:12 2013  

 Parallel job on  1  processors
Processing $rem in /usr/local/qchem/config/preferences.

theFileMan(): MAXOPENFILES=974 MAX_SUB_FILE_NUM=16
Maximum size of a physical file is 2.0 GB, maximum size of a tmp-file is 32.0 GB


--------------------------------------------------------------
User input:
--------------------------------------------------------------

$molecule
1,2
S          0.00000        0.00000        0.00613
H          0.96493        0.00000        0.92785
H         -0.96493        0.00000        0.92785
$end

$comment
positive
$end

$xc_functional
C PBE   1.00
X wPBE  1.00
$end

$rem
SYMMETRY_DECOMPOSITION	0
LRC_DFT                 true
exchange 		general
BASIS                   g3large
omega			430
mem_static              760
max_scf_cycles          200
scf_final_print         1
sym_ignore              true
$end

--------------------------------------------------------------
 Writing REM_CC_EA            3
 ----------------------------------------------------
       Standard Nuclear Orientation (Angstroms)
    I     Atom         X            Y            Z
 ----------------------------------------------------
    1      S       0.000000     0.000000     0.006130
    2      H       0.964930     0.000000     0.927850
    3      H      -0.964930     0.000000     0.927850
 ----------------------------------------------------
 Nuclear Repulsion Energy =    12.9641837181 hartrees
 There are        9 alpha and        8 beta electrons
 Requested basis set is G3large
 There are 31 shells and 86 basis functions

Total QAlloc Memory Limit   2000 MB
Mega-Array Size       743 MB
MEM_STATIC part       760 MB

                       Distance Matrix (Angstroms)
             S (  1)   H (  2)
   H (  2)  1.334413
   H (  3)  1.334413  1.929860
 
 A cutoff of  1.0D-08 yielded    496 shell pairs
 There are   3877 function pairs (  5178 Cartesian)
Evaluating contribution to one-electron hamiltonian from nuclear
 Smallest overlap matrix eigenvalue = 2.33E-03
 Multipole matrices computed through 2nd order

  Scale SEOQF with 1.000000e-01/1.000000e-01/1.000000e-01

 Standard Electronic Orientation quadrupole field applied
 Nucleus-field energy     =    -0.0000000001 hartrees
 Guess from superposition of atomic densities
 Warning:  Energy on first SCF cycle will be non-variational
 Long-range K will be added via erf
 Coulomb attenuation parameter = 0.43 bohr**(-1)
 An unrestricted Kohn-Sham SCF calculation will be
 performed using Pulay DIIS extrapolation
 Exchange:  wPBE + LR-HF      Correlation:  PBE
 Using SG-1 standard quadrature grid
 SCF converges when DIIS error is below 1.0E-05
 Requested basis set is G3large
 There are 31 shells and 86 basis functions
 A cutoff of  1.0D-08 yielded    496 shell pairs
 There are   3877 function pairs (  5178 Cartesian)
 Warning!  Inaccurate integrated density:
   Number of electrons =    17
   Numerical integral  =    18.000029485509
   Relative error      =     5.8825263853 %
 ---------------------------------------
  Cycle       Energy         DIIS Error
 ---------------------------------------
    1    -399.2274618013      3.40E-02
    2    -398.8409318772      5.18E-03
    3    -398.8890988006      2.39E-03
    4    -398.8938305331      5.22E-04
    5    -398.8953687340      2.34E-04
    6    -398.8959884507      1.18E-04
    7    -398.8962170846      4.43E-05
    8    -398.8962515059      1.51E-05
    9    -398.8962555016      5.84E-06 Convergence criterion met
 ---------------------------------------
 One-Electron    Energy =  -570.2945715772
 Total Coulomb   Energy =   184.4259486826
 Alpha Exchange  Energy =    -1.9764719054
 Beta  Exchange  Energy =    -1.7770987417
 DFT   Exchange  Energy =   -21.6095856329
 DFT Correlation Energy =    -0.6286600449
 Nuclear Repu.   Energy =    12.9641837180
 Nuclear Attr.   Energy =  -968.6995753450
 Kinetic         Energy =   398.4050037678
 <S^2> = 0.7569
 SCF time:  CPU 15.50 s  wall 15.85 s
 Final Alpha MO Eigenvalues
            1           2           3           4           5           6
    1 -88.6811101  -8.3148933  -6.3342052  -6.3247289  -6.3205017  -1.2760822
            7           8           9          10          11          12
    1  -0.9078401  -0.8337866  -0.7868863  -0.1778202  -0.1602267  -0.0871608
           13          14
    1  -0.0806222  -0.0676686
 Final Beta MO Eigenvalues
            1           2           3           4           5           6
    1 -88.6756953  -8.3096788  -6.3216549  -6.3184581  -6.3177090  -1.2244928
            7           8           9          10          11          12
    1  -0.8989412  -0.8170226  -0.3774948  -0.1729355  -0.1504526  -0.0800433
           13
    1  -0.0658937
 Analysis of SCF Wavefunction
 
 --------------------------------------------------------------
                    Orbital Energies (a.u.)
 --------------------------------------------------------------
 
 Alpha MOs
 -- Occupied --
-88.681  -8.315  -6.334  -6.325  -6.321  -1.276  -0.908  -0.834
 -0.787
 -- Virtual --
 -0.178  -0.160  -0.087  -0.081  -0.068  -0.067  -0.011  -0.006
 -0.003  -0.003   0.005   0.129   0.141   0.234   0.241   0.296
  0.332   0.405   0.569   0.596   0.596   0.602   0.639   0.671
  0.683   0.696   0.719   0.720   0.727   0.909   0.933   1.023
  1.036   1.075   1.173   1.286   1.371   1.548   1.795   1.802
  2.553   2.597   3.043   3.089   3.109   3.128   3.141   3.163
  3.200   3.739   3.752   3.762   3.770   4.085   4.134   4.281
  4.282   4.327   4.719   5.295   7.837  16.690  16.847  16.890
 23.083  23.150  23.152  23.237  23.520  30.521  30.523  30.528
 30.528  30.534  30.560  30.563 188.296
 
 Beta MOs
 -- Occupied --
-88.676  -8.310  -6.322  -6.318  -6.318  -1.224  -0.899  -0.817
 -- Virtual --
 -0.377  -0.173  -0.150  -0.080  -0.066  -0.059  -0.058  -0.007
 -0.005   0.004   0.041   0.047   0.143   0.159   0.245   0.263
  0.301   0.338   0.410   0.582   0.607   0.610   0.629   0.663
  0.685   0.692   0.718   0.744   0.758   0.765   0.924   0.949
  1.042   1.042   1.091   1.177   1.298   1.376   1.601   1.802
  1.811   2.554   2.600   3.052   3.096   3.138   3.187   3.187
  3.206   3.240   3.739   3.761   3.763   3.777   4.088   4.138
  4.298   4.299   4.329   4.746   5.302   7.847  16.716  16.851
 16.894  23.085  23.162  23.164  23.253  23.522  30.527  30.527
 30.532  30.532  30.538  30.562  30.565 188.302
 --------------------------------------------------------------
 
          Ground-State Mulliken Net Atomic Charges

     Atom                 Charge (a.u.)    Spin (a.u.)
  --------------------------------------------------------
      1 S                     0.585718       1.050359
      2 H                     0.207139      -0.025178
      3 H                     0.207143      -0.025181
  --------------------------------------------------------
  Sum of atomic charges =     1.000000
  Sum of spin   charges =     1.000000

 -----------------------------------------------------------------
                    Cartesian Multipole Moments
 -----------------------------------------------------------------
    Charge (ESU x 10^10)
                 4.8032
    Dipole Moment (Debye)
         X       0.0000      Y       0.0012      Z       1.9466
       Tot       1.9466
    Quadrupole Moments (Debye-Ang)
        XX      -8.5787     XY      -0.0003     YY     -11.0041
        XZ       0.0000     YZ      -0.0028     ZZ      -9.5308
    Octapole Moments (Debye-Ang^2)
       XXX       0.0000    XXY       0.0001    XYY       0.0000
       YYY       0.0011    XXZ       1.4557    XYZ       0.0000
       YYZ      -1.1377    XZZ       0.0000    YZZ      -0.0004
       ZZZ      -1.1755
    Hexadecapole Moments (Debye-Ang^3)
      XXXX     -13.5357   XXXY      -0.0003   XXYY      -4.6693
      XYYY      -0.0003   YYYY     -10.7890   XXXZ       0.0000
      XXYZ      -0.0013   XYYZ       0.0000   YYYZ      -0.0026
      XXZZ      -2.5852   XYZZ      -0.0001   YYZZ      -4.8388
      XZZZ       0.0000   YZZZ      -0.0032   ZZZZ     -15.3710
 -----------------------------------------------------------------
 Total job time:  15.95s(wall), 15.60s(cpu) 
 Wed May 29 17:02:28 2013

        *************************************************************
        *                                                           *
        *  Thank you very much for using Q-Chem.  Have a nice day.  *
        *                                                           *
        *************************************************************


0 sent ACK to 0 
now end server 0 ... 
