Process 0 of 1 is on cl051.dal.acenet.ca - thread support 1
initial socket setup ...start
initial socket setup ...done 
now start server 0 ... 

cmd = /usr/bin/ssh glooscap.ace-net.ca /usr/local/qchem/bin/get_hostid 1817616826 > /tmp/179729.1.medium.q/qchem5740/lic.dat
                  Welcome to Q-Chem
     A Quantum Leap Into The Future Of Chemistry

 Y. Shao, L. Fusti-Molnar, Y. Jung, J. Kussmann, C. Ochsenfeld,
 S. T. Brown, A. T. B. Gilbert, L. V. Slipchenko,S. V. Levchenko,
 D. P. O'Neill, R. A. DiStasio Jr., R. C. Lochan, T. Wang,
 G. J. O. Beran, N. A. Besley, J. M. Herbert, C. Y. Lin,
 T. Van Voorhis, S. H. Chien, A. Sodt, R. P. Steele, 
 V. A. Rassolov, P. E. Maslen, P. P. Korambath, R. D. Adamson,
 B. Austin, J. Baker, E. F. C. Byrd, H. Dachsel, R. J. Doerksen,
 A. Dreuw, B. D. Dunietz, A. D. Dutoi, T. R. Furlani,
 S. R. Gwaltney, A. Heyden, S. Hirata, C.-P. Hsu, G. Kedziora,
 R. Z. Khaliullin, P. Klunzinger, A. M. Lee, M. S. Lee, W. Liang,
 I. Lotan, N. Nair, B. Peters, E. I. Proynov, P. A. Pieniazek, 
 Y. M. Rhee, J. Ritchie, E. Rosta, C. D. Sherrill, 
 A. C. Simmonett, J. E. Subotnik, H. L. Woodcock III,
 W. Zhang, A. T. Bell, A. K. Chakraborty, D. M. Chipman,
 F. J. Keil, A. Warshel, W. J. Hehre, H. F. Schaefer III,
 J. Kong, A. I. Krylov, P. M. W. Gill, M. Head-Gordon,
 Q-Chem, Version 3.1, Q-Chem, Inc., Pittsburgh, PA (2007).

 Additional authors for Version 3.1: 
 Z. Gan, Y. Zhao, N. E. Schultz, D. Truhlar, E. Epifanovsky and M. Oana.

 Additional authors for Version 3.2: 
 R. Baer, B. R. Brooks, D. Casanova, J.-D. Chai, C.-L. Cheng, 
 C. Cramer, D. Crittenden, A. Ghysels, G. Hawkins, E. G. Hohenstein, 
 C. Kelley, W. Kurlancheek, D. Liotard, E. Livshits, P. Manohar, 
 A. Marenich, D. Neuhauser, R. Olson, M. A. Rohrdanz, K. S. Thanthiriwatte, 
 A. J. W. Thom, V. Vanovschi, C. F. Williams, Q. Wu and Z.-Q. You. 


 Intel X86 Linux Version

 Q-chem begins on Tue Apr 12 13:38:26 2011  

 Parallel job on  1  processors
Processing $rem in /usr/local/qchem/config/preferences.

theFileMan(): MAXOPENFILES=974 MAX_SUB_FILE_NUM=16
Maximum size of a physical file is 2.0 GB, maximum size of a tmp-file is 32.0 GB


--------------------------------------------------------------
User input:
--------------------------------------------------------------

$molecule
-1,2
 C        27.589041       23.466286       25.344061
 C        26.339153       23.225647       24.775341
 C        25.423603       24.268255       24.563448
 C        25.808182       25.560291       24.954315
 C        27.058195       25.800951       25.523088
 C        27.973625       24.758410       25.735035
 H        28.281313       22.632208       25.481283
 H        26.068596       22.204544       24.496038
 H        25.116135       26.394463       24.817167
 H        27.328890       26.822035       25.802298
 H        23.708551       24.814869       23.583281
 H        24.079388       23.185360       23.458334
 H        29.688467       24.211771       26.715748
 H        29.317875       25.841635       26.839811
 N        29.254854       25.009876       26.258593
 N        24.142208       24.016731       24.040218

$end

$comment
negative
$end

$xc_functional
   X HF 1.0
   X BNL 1.0
   C LYP 1.0
$end

$rem
SYMMETRY_DECOMPOSITION	0
exchange 		general
BASIS                   g3large
omega			350
separate_jk		true
mem_static              760
max_scf_cycles          200
scf_final_print         1
sym_ignore              true
$end

--------------------------------------------------------------
 Writing REM_CC_EA           16
 ----------------------------------------------------
       Standard Nuclear Orientation (Angstroms)
    I     Atom         X            Y            Z
 ----------------------------------------------------
    1      C      27.589041    23.466286    25.344061
    2      C      26.339153    23.225647    24.775341
    3      C      25.423603    24.268255    24.563448
    4      C      25.808182    25.560291    24.954315
    5      C      27.058195    25.800951    25.523088
    6      C      27.973625    24.758410    25.735035
    7      H      28.281313    22.632208    25.481283
    8      H      26.068596    22.204544    24.496038
    9      H      25.116135    26.394463    24.817167
   10      H      27.328890    26.822035    25.802298
   11      H      23.708551    24.814869    23.583281
   12      H      24.079388    23.185360    23.458334
   13      H      29.688467    24.211771    26.715748
   14      H      29.317875    25.841635    26.839811
   15      N      29.254854    25.009876    26.258593
   16      N      24.142208    24.016731    24.040218
 ----------------------------------------------------
 Nuclear Repulsion Energy =   343.5292271490 hartrees
 There are       30 alpha and       29 beta electrons
 Requested basis set is G3large
 There are 128 shells and 416 basis functions

Total QAlloc Memory Limit   2000 MB
Mega-Array Size       743 MB
MEM_STATIC part       760 MB
 A cutoff of  1.0D-08 yielded   6560 shell pairs
 There are  69931 function pairs ( 87060 Cartesian)
Evaluating contribution to one-electron hamiltonian from nuclear
 Smallest overlap matrix eigenvalue = 7.44E-07

 Q-Chem warning in module mkSTV.C, line 194:

 Overlap eigenvalue is smaller than square root of threshold

 Linear dependence detected in AO basis
 Number of orthogonalized atomic orbitals = 415
 Maximum deviation from orthogonality = 1.050E-10
 Multipole matrices computed through 2nd order

  Scale SEOQF with 1.000000e-03/1.000000e-03/1.000000e-03

 Standard Electronic Orientation quadrupole field applied
 Nucleus-field energy     =     0.0000000004 hartrees
 Guess from superposition of atomic densities
 Warning:  Energy on first SCF cycle will be non-variational
 An unrestricted hybrid HF-DFT SCF calculation will be
 performed using Pulay DIIS extrapolation
 Exchange:     1.0000 Hartree-Fock + 1.0000 BNL
 Correlation:  1.0000 LYP
 Using SG-1 standard quadrature grid
 SCF converges when DIIS error is below 1.0E-05
 Warning!  Inaccurate integrated density:
   Number of electrons =    59
   Numerical integral  =    58.000897553966
   Relative error      =    -1.6933939763 %
 ---------------------------------------
  Cycle       Energy         DIIS Error
 ---------------------------------------
    1    -341.6603243030      2.48E-02
    2    -338.7619803392      2.98E-03
    3    -338.7367055043      3.36E-03
    4    -338.9832516073      6.56E-04
    5    -338.9948290684      2.47E-04
    6    -338.9964469292      6.37E-05
    7    -338.9969040271      4.24E-05
    8    -338.9971554159      3.42E-05
    9    -338.9973636600      3.28E-05
   10    -338.9976596244      3.56E-05
   11    -338.9969120949      3.17E-05
   12    -338.9956727569      6.97E-05
   13    -338.9957630366      6.64E-05
   14    -338.9958534086      6.74E-05
   15    -338.9958423590      6.69E-05
   16    -338.9958135039      6.52E-05
   17    -338.9958825630      6.14E-05
   18    -338.9960614211      1.41E-05
   19    -338.9961703064      1.47E-05
   20    -338.9962793764      1.59E-05
   21    -338.9962373342      1.55E-05
   22    -338.9958758204      1.75E-05
   23    -338.9953932157      3.78E-05
   24    -338.9954160316      3.87E-05
   25    -338.9952465378      3.35E-05
   26    -338.9951555520      3.14E-05
   27    -338.9951716847      2.53E-05
   28    -338.9952881772      9.83E-06 Convergence criterion met
 ---------------------------------------
 One-Electron    Energy = -1153.6978074061
 Total Coulomb   Energy =   516.5767236435
 Alpha Exchange  Energy =    -5.3050250565
 Beta  Exchange  Energy =    -5.1459917618
 DFT   Exchange  Energy =   -32.9713709598
 DFT Correlation Energy =    -1.9810437858
 Nuclear Repu.   Energy =   343.5292271494
 Nuclear Attr.   Energy = -1491.0916100155
 Kinetic         Energy =   337.3938026094
 <S^2> = 0.7635
 SCF time:  CPU 3912.54 s  wall 3916.99 s
 Final Alpha MO Eigenvalues
            1           2           3           4           5           6
    1 -13.8568848 -13.8568680  -9.7933833  -9.7932920  -9.7330354  -9.7329299
            7           8           9          10          11          12
    1  -9.7323626  -9.7323080  -0.8503132  -0.8442096  -0.7409172  -0.6564703
           13          14          15          16          17          18
    1  -0.6299592  -0.5427896  -0.5187330  -0.4620136  -0.4491103  -0.4243540
           19          20          21          22          23          24
    1  -0.4156668  -0.3450582  -0.3314008  -0.3256369  -0.3187088  -0.3022667
           25          26          27          28          29          30
    1  -0.2778222  -0.2416304  -0.2084413  -0.1701606  -0.1058888   0.0434841
           31          32          33          34          35
    1   0.1355594   0.1358458   0.1465765   0.1550784   0.1585518
 Final Beta MO Eigenvalues
            1           2           3           4           5           6
    1 -13.8569305 -13.8569136  -9.7948964  -9.7948008  -9.7291325  -9.7290244
            7           8           9          10          11          12
    1  -9.7283113  -9.7282356  -0.8498468  -0.8441677  -0.7365752  -0.6479331
           13          14          15          16          17          18
    1  -0.6266145  -0.5335800  -0.5174837  -0.4611805  -0.4464659  -0.4216391
           19          20          21          22          23          24
    1  -0.4126702  -0.3411975  -0.3283346  -0.3183019  -0.3146961  -0.2985853
           25          26          27          28          29          30
    1  -0.2745103  -0.2388074  -0.2016876  -0.1346837  -0.0894621   0.1328854
           31          32          33          34
    1   0.1337743   0.1424666   0.1511260   0.1554857
 Analysis of SCF Wavefunction
 
 --------------------------------------------------------------
                    Orbital Energies (a.u.)
 --------------------------------------------------------------
 
 Alpha MOs
 -- Occupied --
-13.857 -13.857  -9.793  -9.793  -9.733  -9.733  -9.732  -9.732
 -0.850  -0.844  -0.741  -0.656  -0.630  -0.543  -0.519  -0.462
 -0.449  -0.424  -0.416  -0.345  -0.331  -0.326  -0.319  -0.302
 -0.278  -0.242  -0.208  -0.170  -0.106   0.043
 -- Virtual --
  0.136   0.136   0.147   0.155   0.159   0.184   0.189   0.209
  0.233   0.239   0.253   0.268   0.273   0.282   0.283   0.285
  0.288   0.291   0.302   0.310   0.312   0.319   0.330   0.330
  0.334   0.340   0.343   0.348   0.360   0.366   0.368   0.378
  0.381   0.388   0.402   0.416   0.426   0.430   0.442   0.444
  0.449   0.466   0.468   0.487   0.498   0.499   0.506   0.510
  0.528   0.542   0.571   0.607   0.625   0.626   0.640   0.697
  0.744   0.750   0.782   0.785   0.786   0.788   0.791   0.796
  0.812   0.827   0.835   0.843   0.849   0.851   0.853   0.871
  0.898   0.910   0.914   0.917   0.918   0.926   0.927   0.937
  0.959   0.970   0.974   0.983   0.987   0.993   0.999   1.038
  1.039   1.052   1.055   1.060   1.069   1.080   1.102   1.104
  1.118   1.127   1.127   1.178   1.199   1.207   1.238   1.253
  1.297   1.303   1.314   1.317   1.331   1.343   1.355   1.375
  1.387   1.396   1.423   1.444   1.448   1.461   1.494   1.516
  1.528   1.543   1.557   1.565   1.595   1.598   1.600   1.612
  1.632   1.640   1.670   1.685   1.687   1.691   1.729   1.745
  1.767   1.773   1.795   1.824   1.901   1.949   1.958   1.970
  1.993   2.030   2.031   2.058   2.064   2.079   2.112   2.120
  2.122   2.152   2.171   2.213   2.307   2.426   2.489   2.518
  2.601   2.725   2.814   2.820   2.820   2.884   2.913   2.926
  2.950   2.983   2.997   3.008   3.017   3.041   3.058   3.074
  3.077   3.082   3.111   3.113   3.130   3.159   3.163   3.171
  3.178   3.197   3.219   3.230   3.232   3.261   3.338   3.358
  3.362   3.379   3.412   3.437   3.469   3.469   3.482   3.486
  3.491   3.505   3.514   3.516   3.554   3.556   3.571   3.608
  3.629   3.652   3.656   3.664   3.677   3.682   3.690   3.704
  3.716   3.746   3.750   3.779   3.780   3.814   3.836   3.856
  3.875   3.904   3.911   3.951   3.953   3.971   3.998   4.010
  4.026   4.030   4.049   4.082   4.160   4.170   4.172   4.176
  4.178   4.202   4.223   4.239   4.258   4.260   4.267   4.276
  4.286   4.345   4.352   4.372   4.419   4.454   4.530   4.543
  4.573   4.600   4.620   4.636   4.650   4.661   4.684   4.687
  4.699   4.717   4.736   4.763   4.787   4.798   4.805   4.824
  4.891   4.942   4.967   4.976   5.078   5.087   5.103   5.130
  5.178   5.227   5.227   5.247   5.295   5.393   5.414   5.422
  5.460   5.492   5.493   5.514   5.552   5.555   5.618   5.632
  5.688   5.834   5.844   5.867   5.936   5.939   6.071   6.086
  6.088   6.158   6.244   6.323   6.575   6.630   6.638   6.686
  6.780  24.124  24.669  24.699  24.942  24.951  25.435  27.467
 27.631  27.640  27.710  27.729  27.938  28.169  28.288  28.303
 28.455  28.480  28.482  28.714  28.735  28.808  28.833  28.869
 29.386  36.114  36.138  37.763  37.769  38.461  38.471  38.642
 38.734  40.696  40.700  40.768  40.770  40.864  40.866  40.888
 40.891  40.971  40.975  41.055  41.062  41.122  41.125  41.130
 41.131  41.151  41.155  41.194  41.237  41.280  41.297  41.387
 41.398  41.422  41.440  41.454  41.454  41.456  41.473  41.486
 41.493  41.522  41.528  41.580  41.619  41.641  41.660  41.723
 41.751
 
 Beta MOs
 -- Occupied --
-13.857 -13.857  -9.795  -9.795  -9.729  -9.729  -9.728  -9.728
 -0.850  -0.844  -0.737  -0.648  -0.627  -0.534  -0.517  -0.461
 -0.446  -0.422  -0.413  -0.341  -0.328  -0.318  -0.315  -0.299
 -0.275  -0.239  -0.202  -0.135  -0.089
 -- Virtual --
  0.133   0.134   0.142   0.151   0.155   0.180   0.185   0.205
  0.229   0.235   0.242   0.249   0.266   0.271   0.279   0.281
  0.283   0.286   0.288   0.299   0.309   0.318   0.325   0.327
  0.330   0.337   0.338   0.341   0.345   0.359   0.363   0.367
  0.378   0.378   0.385   0.402   0.414   0.423   0.428   0.440
  0.448   0.448   0.466   0.483   0.486   0.496   0.500   0.506
  0.508   0.530   0.542   0.573   0.610   0.626   0.626   0.639
  0.697   0.743   0.756   0.787   0.788   0.790   0.791   0.794
  0.799   0.818   0.830   0.838   0.845   0.850   0.853   0.860
  0.872   0.899   0.913   0.916   0.918   0.922   0.928   0.930
  0.938   0.964   0.974   0.977   0.987   0.993   0.994   1.002
  1.038   1.042   1.052   1.058   1.060   1.075   1.082   1.104
  1.108   1.120   1.129   1.130   1.179   1.199   1.209   1.240
  1.254   1.301   1.304   1.316   1.321   1.334   1.344   1.356
  1.378   1.388   1.397   1.425   1.444   1.449   1.463   1.498
  1.521   1.530   1.545   1.559   1.565   1.598   1.601   1.601
  1.614   1.635   1.642   1.672   1.686   1.689   1.698   1.729
  1.745   1.770   1.775   1.798   1.827   1.903   1.952   1.959
  1.973   1.994   2.034   2.034   2.062   2.064   2.080   2.116
  2.123   2.124   2.153   2.173   2.215   2.310   2.428   2.492
  2.520   2.602   2.728   2.816   2.824   2.827   2.889   2.918
  2.936   2.958   2.985   2.997   3.015   3.020   3.044   3.063
  3.081   3.084   3.085   3.114   3.120   3.136   3.163   3.174
  3.182   3.185   3.200   3.228   3.236   3.238   3.264   3.343
  3.362   3.363   3.382   3.419   3.440   3.471   3.473   3.488
  3.492   3.498   3.509   3.521   3.524   3.557   3.562   3.573
  3.611   3.635   3.655   3.659   3.668   3.679   3.686   3.692
  3.710   3.717   3.752   3.758   3.781   3.784   3.819   3.841
  3.861   3.877   3.908   3.914   3.955   3.958   3.974   4.002
  4.013   4.028   4.041   4.052   4.085   4.162   4.173   4.177
  4.179   4.180   4.205   4.225   4.241   4.260   4.261   4.270
  4.282   4.289   4.346   4.353   4.375   4.423   4.457   4.530
  4.546   4.577   4.602   4.625   4.639   4.653   4.666   4.691
  4.691   4.704   4.722   4.741   4.767   4.793   4.806   4.808
  4.827   4.892   4.945   4.972   4.977   5.080   5.089   5.105
  5.134   5.179   5.230   5.230   5.250   5.297   5.395   5.416
  5.424   5.460   5.493   5.493   5.515   5.553   5.556   5.619
  5.632   5.689   5.835   5.845   5.869   5.937   5.939   6.075
  6.088   6.089   6.159   6.246   6.324   6.575   6.630   6.638
  6.686   6.783  24.127  24.674  24.700  24.942  24.957  25.438
 27.471  27.638  27.640  27.711  27.736  27.943  28.170  28.289
 28.304  28.457  28.482  28.484  28.716  28.737  28.810  28.835
 28.870  29.387  36.114  36.138  37.763  37.769  38.461  38.471
 38.642  38.734  40.696  40.700  40.768  40.770  40.864  40.866
 40.888  40.891  40.971  40.975  41.055  41.061  41.126  41.130
 41.134  41.138  41.155  41.156  41.197  41.240  41.282  41.301
 41.386  41.400  41.422  41.444  41.459  41.460  41.462  41.479
 41.488  41.495  41.524  41.530  41.583  41.622  41.644  41.663
 41.725  41.752
 --------------------------------------------------------------
 
          Ground-State Mulliken Net Atomic Charges

     Atom                 Charge (a.u.)    Spin (a.u.)
  --------------------------------------------------------
      1 C                    -0.140759       0.301183
      2 C                    -0.130796       0.282348
      3 C                    -0.388372      -0.062434
      4 C                    -0.137997       0.300659
      5 C                    -0.127170       0.281829
      6 C                    -0.388942      -0.062475
      7 H                     0.089530      -0.016383
      8 H                     0.087025      -0.013746
      9 H                     0.089566      -0.016469
     10 H                     0.087029      -0.013871
     11 H                     0.171075       0.004882
     12 H                     0.173554       0.002142
     13 H                     0.171104       0.004855
     14 H                     0.173589       0.002180
     15 N                    -0.364195       0.002643
     16 N                    -0.364241       0.002657
  --------------------------------------------------------
  Sum of atomic charges =    -1.000000
  Sum of spin   charges =     1.000000

 -----------------------------------------------------------------
                    Cartesian Multipole Moments
 -----------------------------------------------------------------
    Charge (ESU x 10^10)
                -4.8032
    Dipole Moment (Debye)
         X    -128.2383      Y    -117.7408      Z    -120.7969
       Tot     211.8959
    Quadrupole Moments (Debye-Ang)
        XX   -3488.7250     XY   -3145.3411     YY   -2945.3473
        XZ   -3218.4537     YZ   -2959.6269     ZZ   -3093.9400
    Octapole Moments (Debye-Ang^2)
       XXX  -96612.0678    XXY  -85617.1539    XYY  -78726.4366
       YYY  -75100.0840    XXZ  -87384.0702    XYZ  -78900.9858
       YYZ  -74001.4099    XZZ  -82269.4604    YZZ  -75768.0263
       ZZZ  -80626.4576
    Hexadecapole Moments (Debye-Ang^3)
      XXXX ************   XXXY ************   XXYY ************
      XYYY ************   YYYY ************   XXXZ ************
      XXYZ ************   XYYZ ************   YYYZ ************
      XXZZ ************   XYZZ ************   YYZZ ************
      XZZZ ************   YZZZ ************   ZZZZ ************
 -----------------------------------------------------------------
 Total job time:  3918.48s(wall), 3914.01s(cpu) 
 Tue Apr 12 14:43:45 2011

        *************************************************************
        *                                                           *
        *  Thank you very much for using Q-Chem.  Have a nice day.  *
        *                                                           *
        *************************************************************


0 sent ACK to 0 
now end server 0 ... 
 
**********************************************************************
Job 2 of 3 
**********************************************************************
 
Process 0 of 1 is on cl051.dal.acenet.ca - thread support 1
initial socket setup ...start
initial socket setup ...done 
now start server 0 ... 

cmd = /usr/bin/ssh glooscap.ace-net.ca /usr/local/qchem/bin/get_hostid 1088012581 > /tmp/179729.1.medium.q/qchem5740/lic.dat
                  Welcome to Q-Chem
     A Quantum Leap Into The Future Of Chemistry

 Y. Shao, L. Fusti-Molnar, Y. Jung, J. Kussmann, C. Ochsenfeld,
 S. T. Brown, A. T. B. Gilbert, L. V. Slipchenko,S. V. Levchenko,
 D. P. O'Neill, R. A. DiStasio Jr., R. C. Lochan, T. Wang,
 G. J. O. Beran, N. A. Besley, J. M. Herbert, C. Y. Lin,
 T. Van Voorhis, S. H. Chien, A. Sodt, R. P. Steele, 
 V. A. Rassolov, P. E. Maslen, P. P. Korambath, R. D. Adamson,
 B. Austin, J. Baker, E. F. C. Byrd, H. Dachsel, R. J. Doerksen,
 A. Dreuw, B. D. Dunietz, A. D. Dutoi, T. R. Furlani,
 S. R. Gwaltney, A. Heyden, S. Hirata, C.-P. Hsu, G. Kedziora,
 R. Z. Khaliullin, P. Klunzinger, A. M. Lee, M. S. Lee, W. Liang,
 I. Lotan, N. Nair, B. Peters, E. I. Proynov, P. A. Pieniazek, 
 Y. M. Rhee, J. Ritchie, E. Rosta, C. D. Sherrill, 
 A. C. Simmonett, J. E. Subotnik, H. L. Woodcock III,
 W. Zhang, A. T. Bell, A. K. Chakraborty, D. M. Chipman,
 F. J. Keil, A. Warshel, W. J. Hehre, H. F. Schaefer III,
 J. Kong, A. I. Krylov, P. M. W. Gill, M. Head-Gordon,
 Q-Chem, Version 3.1, Q-Chem, Inc., Pittsburgh, PA (2007).

 Additional authors for Version 3.1: 
 Z. Gan, Y. Zhao, N. E. Schultz, D. Truhlar, E. Epifanovsky and M. Oana.

 Additional authors for Version 3.2: 
 R. Baer, B. R. Brooks, D. Casanova, J.-D. Chai, C.-L. Cheng, 
 C. Cramer, D. Crittenden, A. Ghysels, G. Hawkins, E. G. Hohenstein, 
 C. Kelley, W. Kurlancheek, D. Liotard, E. Livshits, P. Manohar, 
 A. Marenich, D. Neuhauser, R. Olson, M. A. Rohrdanz, K. S. Thanthiriwatte, 
 A. J. W. Thom, V. Vanovschi, C. F. Williams, Q. Wu and Z.-Q. You. 


 Intel X86 Linux Version

 Q-chem begins on Tue Apr 12 14:44:06 2011  

 Parallel job on  1  processors
Processing $rem in /usr/local/qchem/config/preferences.

theFileMan(): MAXOPENFILES=974 MAX_SUB_FILE_NUM=16
Maximum size of a physical file is 2.0 GB, maximum size of a tmp-file is 32.0 GB


--------------------------------------------------------------
User input:
--------------------------------------------------------------

$molecule
0,1
 C        27.589041       23.466286       25.344061
 C        26.339153       23.225647       24.775341
 C        25.423603       24.268255       24.563448
 C        25.808182       25.560291       24.954315
 C        27.058195       25.800951       25.523088
 C        27.973625       24.758410       25.735035
 H        28.281313       22.632208       25.481283
 H        26.068596       22.204544       24.496038
 H        25.116135       26.394463       24.817167
 H        27.328890       26.822035       25.802298
 H        23.708551       24.814869       23.583281
 H        24.079388       23.185360       23.458334
 H        29.688467       24.211771       26.715748
 H        29.317875       25.841635       26.839811
 N        29.254854       25.009876       26.258593
 N        24.142208       24.016731       24.040218

$end

$comment
neutral
$end

$xc_functional
   X HF 1.0
   X BNL 1.0
   C LYP 1.0
$end

$rem
SYMMETRY_DECOMPOSITION	0
exchange 		general
BASIS                   g3large
omega			350
separate_jk		true
mem_static              760
max_scf_cycles          200
scf_final_print         1
sym_ignore              true
$end

--------------------------------------------------------------
 Writing REM_CC_EA           16
 ----------------------------------------------------
       Standard Nuclear Orientation (Angstroms)
    I     Atom         X            Y            Z
 ----------------------------------------------------
    1      C      27.589041    23.466286    25.344061
    2      C      26.339153    23.225647    24.775341
    3      C      25.423603    24.268255    24.563448
    4      C      25.808182    25.560291    24.954315
    5      C      27.058195    25.800951    25.523088
    6      C      27.973625    24.758410    25.735035
    7      H      28.281313    22.632208    25.481283
    8      H      26.068596    22.204544    24.496038
    9      H      25.116135    26.394463    24.817167
   10      H      27.328890    26.822035    25.802298
   11      H      23.708551    24.814869    23.583281
   12      H      24.079388    23.185360    23.458334
   13      H      29.688467    24.211771    26.715748
   14      H      29.317875    25.841635    26.839811
   15      N      29.254854    25.009876    26.258593
   16      N      24.142208    24.016731    24.040218
 ----------------------------------------------------
 Nuclear Repulsion Energy =   343.5292271490 hartrees
 There are       29 alpha and       29 beta electrons
 Requested basis set is G3large
 There are 128 shells and 416 basis functions

Total QAlloc Memory Limit   2000 MB
Mega-Array Size       743 MB
MEM_STATIC part       760 MB
 A cutoff of  1.0D-08 yielded   6560 shell pairs
 There are  69931 function pairs ( 87060 Cartesian)
Evaluating contribution to one-electron hamiltonian from nuclear
 Smallest overlap matrix eigenvalue = 7.44E-07

 Q-Chem warning in module mkSTV.C, line 194:

 Overlap eigenvalue is smaller than square root of threshold

 Linear dependence detected in AO basis
 Number of orthogonalized atomic orbitals = 415
 Maximum deviation from orthogonality = 1.050E-10
 Multipole matrices computed through 2nd order

  Scale SEOQF with 1.000000e-03/1.000000e-03/1.000000e-03

 Standard Electronic Orientation quadrupole field applied
 Nucleus-field energy     =     0.0000000004 hartrees
 Guess from superposition of atomic densities
 Warning:  Energy on first SCF cycle will be non-variational
 A restricted hybrid HF-DFT SCF calculation will be
 performed using Pulay DIIS extrapolation
 Exchange:     1.0000 Hartree-Fock + 1.0000 BNL
 Correlation:  1.0000 LYP
 Using SG-1 standard quadrature grid
 SCF converges when DIIS error is below 1.0E-05
 ---------------------------------------
  Cycle       Energy         DIIS Error
 ---------------------------------------
    1    -341.6603243030      2.48E-02
    2    -338.9364266172      2.18E-03
    3    -339.0102633260      1.39E-03
    4    -339.0452677587      2.28E-04
    5    -339.0464479770      7.44E-05
    6    -339.0465836385      3.79E-05
    7    -339.0466725272      6.28E-06 Convergence criterion met
 ---------------------------------------
 One-Electron    Energy = -1143.0099178011
 Total Coulomb   Energy =   505.5814939629
 Alpha Exchange  Energy =    -5.1586671913
 Beta  Exchange  Energy =    -5.1586671913
 DFT   Exchange  Energy =   -32.8746507521
 DFT Correlation Energy =    -1.9554907036
 Nuclear Repu.   Energy =   343.5292271494
 Nuclear Attr.   Energy = -1480.1159320006
 Kinetic         Energy =   337.1060141995
 SCF time:  CPU 748.68 s  wall 749.80 s
 Final Alpha MO Eigenvalues
            1           2           3           4           5           6
    1 -14.0157296 -14.0157185  -9.9803864  -9.9802922  -9.9430030  -9.9428837
            7           8           9          10          11          12
    1  -9.9424978  -9.9424298  -1.0222241  -1.0107646  -0.9288290  -0.8519834
           13          14          15          16          17          18
    1  -0.8138814  -0.7274398  -0.7001103  -0.6334828  -0.6306430  -0.5962587
           19          20          21          22          23          24
    1  -0.5788620  -0.5350097  -0.5204424  -0.5095409  -0.5079986  -0.4857962
           25          26          27          28          29          30
    1  -0.4505566  -0.4325736  -0.3763148  -0.3477958  -0.2706849   0.0294111
           31          32          33          34
    1   0.0340755   0.0406876   0.0558271   0.0563088
 Analysis of SCF Wavefunction
 
 --------------------------------------------------------------
                    Orbital Energies (a.u.)
 --------------------------------------------------------------
 
 Alpha MOs
 -- Occupied --
-14.016 -14.016  -9.980  -9.980  -9.943  -9.943  -9.942  -9.942
 -1.022  -1.011  -0.929  -0.852  -0.814  -0.727  -0.700  -0.633
 -0.631  -0.596  -0.579  -0.535  -0.520  -0.510  -0.508  -0.486
 -0.451  -0.433  -0.376  -0.348  -0.271
 -- Virtual --
  0.029   0.034   0.041   0.056   0.056   0.060   0.078   0.088
  0.089   0.103   0.111   0.128   0.132   0.136   0.140   0.149
  0.158   0.161   0.170   0.174   0.175   0.183   0.196   0.198
  0.205   0.205   0.213   0.222   0.226   0.226   0.229   0.241
  0.249   0.257   0.264   0.276   0.277   0.288   0.291   0.296
  0.306   0.310   0.320   0.331   0.353   0.354   0.355   0.361
  0.363   0.377   0.378   0.401   0.441   0.454   0.465   0.475
  0.533   0.571   0.582   0.611   0.611   0.615   0.621   0.624
  0.630   0.643   0.653   0.676   0.683   0.684   0.692   0.696
  0.710   0.729   0.746   0.747   0.751   0.757   0.762   0.762
  0.779   0.782   0.792   0.817   0.817   0.819   0.832   0.835
  0.866   0.872   0.893   0.895   0.896   0.897   0.908   0.928
  0.934   0.941   0.943   0.953   1.019   1.039   1.041   1.069
  1.094   1.125   1.141   1.145   1.147   1.163   1.178   1.184
  1.193   1.218   1.233   1.253   1.276   1.284   1.288   1.319
  1.343   1.356   1.371   1.381   1.398   1.419   1.423   1.429
  1.440   1.456   1.457   1.506   1.513   1.517   1.518   1.559
  1.587   1.594   1.603   1.627   1.654   1.719   1.778   1.793
  1.795   1.832   1.848   1.858   1.880   1.896   1.915   1.938
  1.953   1.954   1.993   1.996   2.031   2.121   2.242   2.315
  2.342   2.426   2.542   2.625   2.640   2.644   2.695   2.722
  2.740   2.756   2.801   2.821   2.830   2.833   2.861   2.870
  2.889   2.890   2.893   2.920   2.922   2.940   2.969   2.970
  2.977   2.987   3.006   3.027   3.039   3.047   3.074   3.154
  3.169   3.173   3.190   3.220   3.252   3.278   3.284   3.292
  3.295   3.300   3.313   3.323   3.326   3.365   3.370   3.387
  3.423   3.437   3.467   3.473   3.486   3.492   3.502   3.511
  3.522   3.535   3.557   3.569   3.599   3.604   3.629   3.652
  3.669   3.697   3.729   3.730   3.768   3.771   3.790   3.819
  3.836   3.839   3.852   3.871   3.911   3.987   3.987   3.989
  3.993   3.993   4.021   4.039   4.074   4.076   4.079   4.090
  4.093   4.097   4.180   4.185   4.186   4.230   4.270   4.346
  4.355   4.388   4.423   4.439   4.450   4.465   4.477   4.496
  4.509   4.510   4.530   4.553   4.579   4.598   4.604   4.628
  4.637   4.720   4.773   4.784   4.789   4.894   4.907   4.923
  4.946   5.006   5.046   5.048   5.060   5.111   5.212   5.235
  5.246   5.299   5.325   5.327   5.351   5.375   5.381   5.440
  5.464   5.515   5.657   5.662   5.689   5.771   5.773   5.879
  5.900   5.917   5.977   6.055   6.144   6.412   6.472   6.483
  6.515   6.589  23.922  24.461  24.503  24.744  24.749  25.236
 27.264  27.421  27.445  27.515  27.519  27.736  27.968  28.088
 28.106  28.250  28.276  28.283  28.512  28.531  28.603  28.632
 28.670  29.184  35.955  35.979  37.604  37.611  38.302  38.312
 38.483  38.575  40.537  40.541  40.609  40.611  40.705  40.707
 40.728  40.732  40.812  40.816  40.860  40.869  40.913  40.920
 40.924  40.929  40.946  40.959  40.989  41.034  41.081  41.094
 41.193  41.196  41.228  41.237  41.245  41.247  41.250  41.266
 41.290  41.299  41.325  41.326  41.375  41.413  41.433  41.452
 41.523  41.551
 --------------------------------------------------------------
 
          Ground-State Mulliken Net Atomic Charges

     Atom                 Charge (a.u.)
  ----------------------------------------
      1 C                     0.009644
      2 C                     0.015746
      3 C                    -0.401900
      4 C                     0.010638
      5 C                     0.017061
      6 C                    -0.402061
      7 H                     0.153064
      8 H                     0.152995
      9 H                     0.153096
     10 H                     0.152937
     11 H                     0.196597
     12 H                     0.196671
     13 H                     0.196607
     14 H                     0.196684
     15 N                    -0.323882
     16 N                    -0.323898
  ----------------------------------------
  Sum of atomic charges =     0.000000

 -----------------------------------------------------------------
                    Cartesian Multipole Moments
 -----------------------------------------------------------------
    Charge (ESU x 10^10)
                 0.0000
    Dipole Moment (Debye)
         X       0.0010      Y       0.0005      Z      -0.0003
       Tot       0.0012
    Quadrupole Moments (Debye-Ang)
        XX     -47.1536     XY      -1.9887     YY     -42.5884
        XZ      10.9351     YZ       2.7931     ZZ     -45.9042
    Octapole Moments (Debye-Ang^2)
       XXX   -3778.9963    XXY   -1263.7863    XYY   -1235.8371
       YYY   -3132.8738    XXZ    -603.1371    XYZ     291.8314
       YYZ    -934.5830    XZZ    -675.8006    YZZ    -984.7291
       ZZZ   -3462.7922
    Hexadecapole Moments (Debye-Ang^3)
      XXXX -202667.1635   XXXY  -97040.0312   XXYY  -64168.3438
      XYYY  -87315.3970   YYYY -153923.5029   XXXZ  -71778.4804
      XXYZ  -15518.4503   XYYZ  -20908.2560   YYYZ  -73793.9793
      XXZZ  -33336.0268   XYZZ  -14097.0040   YYZZ  -47731.7163
      XZZZ  -71855.1157   YZZZ  -79621.6356   ZZZZ -174374.4673
 -----------------------------------------------------------------
 Total job time:  751.19s(wall), 750.06s(cpu) 
 Tue Apr 12 14:56:37 2011

        *************************************************************
        *                                                           *
        *  Thank you very much for using Q-Chem.  Have a nice day.  *
        *                                                           *
        *************************************************************


0 sent ACK to 0 
now end server 0 ... 
 
**********************************************************************
Job 3 of 3 
**********************************************************************
 
Process 0 of 1 is on cl051.dal.acenet.ca - thread support 1
initial socket setup ...start
initial socket setup ...done 
now start server 0 ... 

cmd = /usr/bin/ssh glooscap.ace-net.ca /usr/local/qchem/bin/get_hostid 1911690576 > /tmp/179729.1.medium.q/qchem5740/lic.dat
                  Welcome to Q-Chem
     A Quantum Leap Into The Future Of Chemistry

 Y. Shao, L. Fusti-Molnar, Y. Jung, J. Kussmann, C. Ochsenfeld,
 S. T. Brown, A. T. B. Gilbert, L. V. Slipchenko,S. V. Levchenko,
 D. P. O'Neill, R. A. DiStasio Jr., R. C. Lochan, T. Wang,
 G. J. O. Beran, N. A. Besley, J. M. Herbert, C. Y. Lin,
 T. Van Voorhis, S. H. Chien, A. Sodt, R. P. Steele, 
 V. A. Rassolov, P. E. Maslen, P. P. Korambath, R. D. Adamson,
 B. Austin, J. Baker, E. F. C. Byrd, H. Dachsel, R. J. Doerksen,
 A. Dreuw, B. D. Dunietz, A. D. Dutoi, T. R. Furlani,
 S. R. Gwaltney, A. Heyden, S. Hirata, C.-P. Hsu, G. Kedziora,
 R. Z. Khaliullin, P. Klunzinger, A. M. Lee, M. S. Lee, W. Liang,
 I. Lotan, N. Nair, B. Peters, E. I. Proynov, P. A. Pieniazek, 
 Y. M. Rhee, J. Ritchie, E. Rosta, C. D. Sherrill, 
 A. C. Simmonett, J. E. Subotnik, H. L. Woodcock III,
 W. Zhang, A. T. Bell, A. K. Chakraborty, D. M. Chipman,
 F. J. Keil, A. Warshel, W. J. Hehre, H. F. Schaefer III,
 J. Kong, A. I. Krylov, P. M. W. Gill, M. Head-Gordon,
 Q-Chem, Version 3.1, Q-Chem, Inc., Pittsburgh, PA (2007).

 Additional authors for Version 3.1: 
 Z. Gan, Y. Zhao, N. E. Schultz, D. Truhlar, E. Epifanovsky and M. Oana.

 Additional authors for Version 3.2: 
 R. Baer, B. R. Brooks, D. Casanova, J.-D. Chai, C.-L. Cheng, 
 C. Cramer, D. Crittenden, A. Ghysels, G. Hawkins, E. G. Hohenstein, 
 C. Kelley, W. Kurlancheek, D. Liotard, E. Livshits, P. Manohar, 
 A. Marenich, D. Neuhauser, R. Olson, M. A. Rohrdanz, K. S. Thanthiriwatte, 
 A. J. W. Thom, V. Vanovschi, C. F. Williams, Q. Wu and Z.-Q. You. 


 Intel X86 Linux Version

 Q-chem begins on Tue Apr 12 14:56:59 2011  

 Parallel job on  1  processors
Processing $rem in /usr/local/qchem/config/preferences.

theFileMan(): MAXOPENFILES=974 MAX_SUB_FILE_NUM=16
Maximum size of a physical file is 2.0 GB, maximum size of a tmp-file is 32.0 GB


--------------------------------------------------------------
User input:
--------------------------------------------------------------

$molecule
1,2
 C        27.589041       23.466286       25.344061
 C        26.339153       23.225647       24.775341
 C        25.423603       24.268255       24.563448
 C        25.808182       25.560291       24.954315
 C        27.058195       25.800951       25.523088
 C        27.973625       24.758410       25.735035
 H        28.281313       22.632208       25.481283
 H        26.068596       22.204544       24.496038
 H        25.116135       26.394463       24.817167
 H        27.328890       26.822035       25.802298
 H        23.708551       24.814869       23.583281
 H        24.079388       23.185360       23.458334
 H        29.688467       24.211771       26.715748
 H        29.317875       25.841635       26.839811
 N        29.254854       25.009876       26.258593
 N        24.142208       24.016731       24.040218

$end

$comment
positive
$end

$xc_functional
   X HF 1.0
   X BNL 1.0
   C LYP 1.0
$end

$rem
SYMMETRY_DECOMPOSITION	0
exchange 		general
BASIS                   g3large
omega			350
separate_jk		true
mem_static              760
max_scf_cycles          200
scf_final_print         1
sym_ignore              true
$end

--------------------------------------------------------------
 Writing REM_CC_EA           16
 ----------------------------------------------------
       Standard Nuclear Orientation (Angstroms)
    I     Atom         X            Y            Z
 ----------------------------------------------------
    1      C      27.589041    23.466286    25.344061
    2      C      26.339153    23.225647    24.775341
    3      C      25.423603    24.268255    24.563448
    4      C      25.808182    25.560291    24.954315
    5      C      27.058195    25.800951    25.523088
    6      C      27.973625    24.758410    25.735035
    7      H      28.281313    22.632208    25.481283
    8      H      26.068596    22.204544    24.496038
    9      H      25.116135    26.394463    24.817167
   10      H      27.328890    26.822035    25.802298
   11      H      23.708551    24.814869    23.583281
   12      H      24.079388    23.185360    23.458334
   13      H      29.688467    24.211771    26.715748
   14      H      29.317875    25.841635    26.839811
   15      N      29.254854    25.009876    26.258593
   16      N      24.142208    24.016731    24.040218
 ----------------------------------------------------
 Nuclear Repulsion Energy =   343.5292271490 hartrees
 There are       29 alpha and       28 beta electrons
 Requested basis set is G3large
 There are 128 shells and 416 basis functions

Total QAlloc Memory Limit   2000 MB
Mega-Array Size       743 MB
MEM_STATIC part       760 MB
 A cutoff of  1.0D-08 yielded   6560 shell pairs
 There are  69931 function pairs ( 87060 Cartesian)
Evaluating contribution to one-electron hamiltonian from nuclear
 Smallest overlap matrix eigenvalue = 7.44E-07

 Q-Chem warning in module mkSTV.C, line 194:

 Overlap eigenvalue is smaller than square root of threshold

 Linear dependence detected in AO basis
 Number of orthogonalized atomic orbitals = 415
 Maximum deviation from orthogonality = 1.050E-10
 Multipole matrices computed through 2nd order

  Scale SEOQF with 1.000000e-03/1.000000e-03/1.000000e-03

 Standard Electronic Orientation quadrupole field applied
 Nucleus-field energy     =     0.0000000004 hartrees
 Guess from superposition of atomic densities
 Warning:  Energy on first SCF cycle will be non-variational
 An unrestricted hybrid HF-DFT SCF calculation will be
 performed using Pulay DIIS extrapolation
 Exchange:     1.0000 Hartree-Fock + 1.0000 BNL
 Correlation:  1.0000 LYP
 Using SG-1 standard quadrature grid
 SCF converges when DIIS error is below 1.0E-05
 Warning!  Inaccurate integrated density:
   Number of electrons =    57
   Numerical integral  =    58.000897553966
   Relative error      =     1.7559606210 %
 ---------------------------------------
  Cycle       Energy         DIIS Error
 ---------------------------------------
    1    -341.6603243030      2.48E-02
    2    -338.7059262230      1.72E-03
    3    -338.7678702544      8.59E-04
    4    -338.7809835813      3.05E-04
    5    -338.7831973972      8.53E-05
    6    -338.7834282428      3.49E-05
    7    -338.7834813764      1.07E-05
    8    -338.7834899860      4.78E-06 Convergence criterion met
 ---------------------------------------
 One-Electron    Energy = -1131.3637571566
 Total Coulomb   Energy =   493.8739569974
 Alpha Exchange  Energy =    -5.1743611988
 Beta  Exchange  Energy =    -4.9849917291
 DFT   Exchange  Energy =   -32.7405687382
 DFT Correlation Energy =    -1.9229953100
 Nuclear Repu.   Energy =   343.5292271494
 Nuclear Attr.   Energy = -1468.1698863241
 Kinetic         Energy =   336.8061291675
 <S^2> = 0.7724
 SCF time:  CPU 1068.02 s  wall 1069.24 s
 Final Alpha MO Eigenvalues
            1           2           3           4           5           6
    1 -14.2338595 -14.2338268 -10.2025917 -10.2024963 -10.1445705 -10.1444483
            7           8           9          10          11          12
    1 -10.1440848 -10.1440208  -1.2310124  -1.2189666  -1.1353678  -1.0494760
           13          14          15          16          17          18
    1  -1.0249420  -0.9292069  -0.8995044  -0.8312380  -0.8305739  -0.7993770
           19          20          21          22          23          24
    1  -0.7761811  -0.7292490  -0.7212455  -0.7177479  -0.7028143  -0.6895273
           25          26          27          28          29          30
    1  -0.6620349  -0.6281079  -0.5884507  -0.5434497  -0.4884834  -0.1287643
           31          32          33          34
    1  -0.1143885  -0.0919122  -0.0844563  -0.0719845
 Final Beta MO Eigenvalues
            1           2           3           4           5           6
    1 -14.2283068 -14.2282772 -10.1994445 -10.1993647 -10.1437805 -10.1436561
            7           8           9          10          11          12
    1 -10.1433282 -10.1432834  -1.2234556  -1.2106711  -1.1281020  -1.0474333
           13          14          15          16          17          18
    1  -1.0114212  -0.9246419  -0.8951802  -0.8281894  -0.8269734  -0.7939498
           19          20          21          22          23          24
    1  -0.7714032  -0.7253875  -0.7173138  -0.7016638  -0.6983307  -0.6803623
           25          26          27          28          29          30
    1  -0.6340850  -0.6254970  -0.5416039  -0.5347329  -0.2562323  -0.1109259
           31          32          33
    1  -0.0915607  -0.0896706  -0.0791387
 Analysis of SCF Wavefunction
 
 --------------------------------------------------------------
                    Orbital Energies (a.u.)
 --------------------------------------------------------------
 
 Alpha MOs
 -- Occupied --
-14.234 -14.234 -10.203 -10.202 -10.145 -10.144 -10.144 -10.144
 -1.231  -1.219  -1.135  -1.049  -1.025  -0.929  -0.900  -0.831
 -0.831  -0.799  -0.776  -0.729  -0.721  -0.718  -0.703  -0.690
 -0.662  -0.628  -0.588  -0.543  -0.488
 -- Virtual --
 -0.129  -0.114  -0.092  -0.084  -0.072  -0.058  -0.053  -0.036
 -0.029  -0.024  -0.015  -0.006  -0.005   0.007   0.010   0.019
  0.034   0.038   0.038   0.045   0.045   0.051   0.056   0.059
  0.070   0.077   0.078   0.082   0.089   0.097   0.099   0.099
  0.108   0.115   0.128   0.130   0.140   0.141   0.153   0.159
  0.162   0.171   0.171   0.182   0.190   0.205   0.209   0.211
  0.217   0.223   0.228   0.231   0.283   0.285   0.291   0.299
  0.365   0.382   0.412   0.431   0.434   0.438   0.450   0.451
  0.454   0.469   0.469   0.504   0.509   0.510   0.514   0.527
  0.540   0.548   0.564   0.569   0.582   0.585   0.590   0.591
  0.604   0.610   0.620   0.638   0.641   0.643   0.646   0.669
  0.691   0.691   0.711   0.717   0.720   0.728   0.729   0.743
  0.752   0.755   0.760   0.775   0.844   0.858   0.865   0.890
  0.914   0.942   0.964   0.965   0.966   0.982   0.996   1.010
  1.011   1.039   1.063   1.070   1.097   1.105   1.110   1.133
  1.156   1.178   1.183   1.200   1.214   1.236   1.242   1.243
  1.255   1.271   1.271   1.326   1.330   1.334   1.336   1.382
  1.409   1.425   1.428   1.441   1.469   1.530   1.592   1.603
  1.606   1.644   1.662   1.670   1.689   1.705   1.724   1.750
  1.761   1.762   1.799   1.803   1.846   1.931   2.047   2.121
  2.148   2.237   2.338   2.417   2.449   2.449   2.501   2.529
  2.544   2.553   2.609   2.622   2.628   2.643   2.665   2.672
  2.687   2.692   2.700   2.720   2.722   2.739   2.769   2.771
  2.778   2.781   2.797   2.822   2.832   2.845   2.865   2.956
  2.970   2.971   2.990   3.017   3.048   3.077   3.078   3.088
  3.097   3.098   3.116   3.125   3.127   3.164   3.173   3.184
  3.217   3.236   3.262   3.278   3.289   3.290   3.305   3.308
  3.324   3.335   3.361   3.373   3.400   3.404   3.429   3.448
  3.474   3.499   3.526   3.531   3.568   3.571   3.585   3.620
  3.635   3.641   3.648   3.669   3.715   3.778   3.780   3.790
  3.797   3.803   3.820   3.844   3.871   3.881   3.883   3.891
  3.897   3.900   3.984   3.989   3.992   4.048   4.086   4.154
  4.154   4.191   4.227   4.241   4.261   4.271   4.272   4.295
  4.302   4.313   4.329   4.357   4.374   4.401   4.404   4.421
  4.443   4.517   4.578   4.582   4.587   4.687   4.707   4.723
  4.745   4.795   4.847   4.851   4.860   4.908   5.005   5.033
  5.039   5.087   5.114   5.115   5.138   5.175   5.177   5.240
  5.257   5.306   5.458   5.459   5.484   5.564   5.567   5.690
  5.698   5.711   5.774   5.849   5.949   6.209   6.274   6.284
  6.312   6.388  23.716  24.259  24.291  24.532  24.542  25.026
 27.054  27.219  27.228  27.298  27.317  27.526  27.759  27.879
 27.895  28.046  28.071  28.073  28.306  28.326  28.399  28.425
 28.461  28.977  35.737  35.761  37.382  37.388  38.087  38.097
 38.267  38.359  40.316  40.320  40.389  40.391  40.482  40.484
 40.509  40.513  40.596  40.600  40.643  40.650  40.710  40.713
 40.719  40.720  40.739  40.745  40.783  40.827  40.869  40.886
 40.975  40.987  41.010  41.030  41.042  41.043  41.044  41.062
 41.076  41.083  41.112  41.118  41.169  41.208  41.230  41.249
 41.314  41.341
 
 Beta MOs
 -- Occupied --
-14.228 -14.228 -10.199 -10.199 -10.144 -10.144 -10.143 -10.143
 -1.223  -1.211  -1.128  -1.047  -1.011  -0.925  -0.895  -0.828
 -0.827  -0.794  -0.771  -0.725  -0.717  -0.702  -0.698  -0.680
 -0.634  -0.625  -0.542  -0.535
 -- Virtual --
 -0.256  -0.111  -0.092  -0.090  -0.079  -0.072  -0.058  -0.053
 -0.036  -0.027  -0.023  -0.015  -0.005  -0.004   0.008   0.011
  0.019   0.035   0.039   0.039   0.046   0.047   0.051   0.056
  0.064   0.072   0.078   0.080   0.084   0.091   0.097   0.100
  0.102   0.109   0.116   0.128   0.133   0.142   0.143   0.156
  0.159   0.163   0.172   0.173   0.184   0.193   0.205   0.211
  0.212   0.219   0.225   0.232   0.232   0.283   0.287   0.295
  0.302   0.366   0.387   0.414   0.435   0.436   0.441   0.453
  0.454   0.456   0.471   0.475   0.506   0.512   0.513   0.518
  0.530   0.543   0.553   0.568   0.572   0.585   0.587   0.592
  0.595   0.605   0.613   0.621   0.643   0.644   0.645   0.652
  0.671   0.693   0.695   0.717   0.723   0.724   0.731   0.732
  0.748   0.755   0.758   0.762   0.777   0.845   0.863   0.867
  0.893   0.918   0.945   0.968   0.968   0.968   0.985   0.999
  1.012   1.012   1.041   1.064   1.072   1.100   1.106   1.112
  1.137   1.158   1.179   1.186   1.203   1.217   1.240   1.243
  1.246   1.258   1.274   1.274   1.330   1.333   1.338   1.340
  1.384   1.412   1.426   1.430   1.445   1.472   1.533   1.596
  1.608   1.609   1.649   1.664   1.673   1.693   1.711   1.730
  1.754   1.767   1.768   1.804   1.808   1.848   1.935   2.050
  2.125   2.151   2.239   2.345   2.425   2.452   2.453   2.505
  2.531   2.548   2.559   2.613   2.630   2.630   2.647   2.670
  2.676   2.693   2.696   2.704   2.723   2.725   2.743   2.771
  2.775   2.784   2.787   2.806   2.828   2.840   2.850   2.874
  2.959   2.974   2.976   2.993   3.021   3.053   3.082   3.085
  3.094   3.101   3.103   3.119   3.130   3.130   3.168   3.176
  3.189   3.224   3.240   3.269   3.281   3.293   3.296   3.309
  3.315   3.329   3.339   3.365   3.377   3.406   3.409   3.434
  3.455   3.478   3.505   3.532   3.537   3.573   3.577   3.592
  3.625   3.640   3.646   3.657   3.676   3.720   3.787   3.791
  3.794   3.801   3.805   3.827   3.847   3.876   3.886   3.887
  3.895   3.903   3.903   3.990   3.994   3.995   4.049   4.087
  4.157   4.158   4.194   4.232   4.245   4.263   4.276   4.278
  4.299   4.310   4.317   4.334   4.361   4.381   4.404   4.409
  4.430   4.446   4.524   4.582   4.587   4.592   4.694   4.711
  4.727   4.750   4.805   4.852   4.855   4.865   4.913   5.013
  5.037   5.049   5.101   5.126   5.128   5.154   5.183   5.183
  5.245   5.267   5.318   5.462   5.466   5.491   5.572   5.574
  5.691   5.701   5.717   5.779   5.853   5.952   6.214   6.279
  6.290   6.317   6.390  23.718  24.261  24.294  24.536  24.543
 25.028  27.058  27.221  27.232  27.303  27.318  27.529  27.760
 27.880  27.896  28.047  28.072  28.075  28.307  28.327  28.400
 28.426  28.462  28.978  35.744  35.768  37.392  37.398  38.091
 38.101  38.271  38.363  40.327  40.331  40.399  40.400  40.495
 40.497  40.518  40.521  40.602  40.605  40.648  40.655  40.712
 40.715  40.721  40.722  40.741  40.748  40.785  40.829  40.871
 40.888  40.980  40.990  41.014  41.032  41.044  41.044  41.046
 41.063  41.079  41.086  41.115  41.119  41.170  41.209  41.231
 41.249  41.315  41.342
 --------------------------------------------------------------
 
          Ground-State Mulliken Net Atomic Charges

     Atom                 Charge (a.u.)    Spin (a.u.)
  --------------------------------------------------------
      1 C                     0.063304       0.040895
      2 C                     0.063172       0.035290
      3 C                    -0.340760       0.205881
      4 C                     0.063454       0.040854
      5 C                     0.063619       0.035489
      6 C                    -0.340240       0.205879
      7 H                     0.202407      -0.003367
      8 H                     0.202231      -0.003089
      9 H                     0.202456      -0.003359
     10 H                     0.202155      -0.003100
     11 H                     0.239211      -0.001699
     12 H                     0.239201      -0.001710
     13 H                     0.239239      -0.001700
     14 H                     0.239218      -0.001723
     15 N                    -0.169299       0.227793
     16 N                    -0.169368       0.227665
  --------------------------------------------------------
  Sum of atomic charges =     1.000000
  Sum of spin   charges =     1.000000

 -----------------------------------------------------------------
                    Cartesian Multipole Moments
 -----------------------------------------------------------------
    Charge (ESU x 10^10)
                 4.8032
    Dipole Moment (Debye)
         X     128.2404      Y     117.7433      Z     120.7971
       Tot     211.8986
    Quadrupole Moments (Debye-Ang)
        XX    3401.5341     XY    3144.4394     YY    2853.6137
        XZ    3244.5348     YZ    2965.9312     ZZ    3000.6355
    Octapole Moments (Debye-Ang^2)
       XXX   89623.9995    XXY   83427.2292    XYY   76228.6392
       YYY   68349.6268    XXZ   86581.0056    XYZ   79682.8951
       YYZ   72000.3261    XZZ   81088.6056    YZZ   73796.1126
       ZZZ   73586.4492
    Hexadecapole Moments (Debye-Ang^3)
      XXXX 2344483.6176   XXXY 2198702.5920   XXYY 2022733.3096
      XYYY 1826314.2895   YYYY 1616310.3288   XXXZ 2295419.5258
      XXYZ 2126909.4697   XYYZ 1934967.8881   YYYZ 1727530.9009
      XXZZ 2176805.7632   XYZZ 1994698.6559   YYZZ 1794141.7678
      XZZZ 2001353.0773   YZZZ 1812890.3727   ZZZZ 1779651.4656
 -----------------------------------------------------------------
 Total job time:  1070.65s(wall), 1069.42s(cpu) 
 Tue Apr 12 15:14:50 2011

        *************************************************************
        *                                                           *
        *  Thank you very much for using Q-Chem.  Have a nice day.  *
        *                                                           *
        *************************************************************


0 sent ACK to 0 
now end server 0 ... 
