Process 0 of 1 is on cl057.dal.acenet.ca - thread support 1
initial socket setup ...start
initial socket setup ...done 
now start server 0 ... 

cmd = /usr/bin/ssh glooscap.ace-net.ca /usr/local/qchem/bin/get_hostid 422093875 > /tmp/179671.1.long.q/qchem16510/lic.dat
                  Welcome to Q-Chem
     A Quantum Leap Into The Future Of Chemistry

 Y. Shao, L. Fusti-Molnar, Y. Jung, J. Kussmann, C. Ochsenfeld,
 S. T. Brown, A. T. B. Gilbert, L. V. Slipchenko,S. V. Levchenko,
 D. P. O'Neill, R. A. DiStasio Jr., R. C. Lochan, T. Wang,
 G. J. O. Beran, N. A. Besley, J. M. Herbert, C. Y. Lin,
 T. Van Voorhis, S. H. Chien, A. Sodt, R. P. Steele, 
 V. A. Rassolov, P. E. Maslen, P. P. Korambath, R. D. Adamson,
 B. Austin, J. Baker, E. F. C. Byrd, H. Dachsel, R. J. Doerksen,
 A. Dreuw, B. D. Dunietz, A. D. Dutoi, T. R. Furlani,
 S. R. Gwaltney, A. Heyden, S. Hirata, C.-P. Hsu, G. Kedziora,
 R. Z. Khaliullin, P. Klunzinger, A. M. Lee, M. S. Lee, W. Liang,
 I. Lotan, N. Nair, B. Peters, E. I. Proynov, P. A. Pieniazek, 
 Y. M. Rhee, J. Ritchie, E. Rosta, C. D. Sherrill, 
 A. C. Simmonett, J. E. Subotnik, H. L. Woodcock III,
 W. Zhang, A. T. Bell, A. K. Chakraborty, D. M. Chipman,
 F. J. Keil, A. Warshel, W. J. Hehre, H. F. Schaefer III,
 J. Kong, A. I. Krylov, P. M. W. Gill, M. Head-Gordon,
 Q-Chem, Version 3.1, Q-Chem, Inc., Pittsburgh, PA (2007).

 Additional authors for Version 3.1: 
 Z. Gan, Y. Zhao, N. E. Schultz, D. Truhlar, E. Epifanovsky and M. Oana.

 Additional authors for Version 3.2: 
 R. Baer, B. R. Brooks, D. Casanova, J.-D. Chai, C.-L. Cheng, 
 C. Cramer, D. Crittenden, A. Ghysels, G. Hawkins, E. G. Hohenstein, 
 C. Kelley, W. Kurlancheek, D. Liotard, E. Livshits, P. Manohar, 
 A. Marenich, D. Neuhauser, R. Olson, M. A. Rohrdanz, K. S. Thanthiriwatte, 
 A. J. W. Thom, V. Vanovschi, C. F. Williams, Q. Wu and Z.-Q. You. 


 Intel X86 Linux Version

 Q-chem begins on Mon Apr 11 18:49:19 2011  

 Parallel job on  1  processors
Processing $rem in /usr/local/qchem/config/preferences.

theFileMan(): MAXOPENFILES=974 MAX_SUB_FILE_NUM=16
Maximum size of a physical file is 2.0 GB, maximum size of a tmp-file is 32.0 GB


--------------------------------------------------------------
User input:
--------------------------------------------------------------

$molecule
-1,2
 C        25.045259       23.435011       24.198259
 C        23.883123       22.987669       23.571693
 C        22.952639       23.894247       23.036823
 C        23.225454       25.266073       23.167511
 C        24.388231       25.712584       23.794245
 C        25.325571       24.806040       24.316170
 H        25.746307       22.708881       24.618103
 H        23.683336       21.915379       23.505596
 H        22.506229       25.992571       22.782879
 H        24.569353       26.785936       23.895315
 H        21.333246       24.090744       21.797949
 H        21.790066       22.505487       22.079519
 H        26.780706       26.185043       24.738384
 H        27.238531       24.598999       25.019846
 N        26.464031       25.257441       25.008450
 N        21.747786       23.445486       22.464247

$end

$comment
negative
$end

$xc_functional
   X HF 1.0
   X BNL 1.0
   C LYP 1.0
$end

$rem
SYMMETRY_DECOMPOSITION	0
exchange 		general
BASIS                   g3large
omega			500
separate_jk		true
mem_static              760
max_scf_cycles          200
scf_final_print         1
sym_ignore              true
$end

--------------------------------------------------------------
 Writing REM_CC_EA           16
 ----------------------------------------------------
       Standard Nuclear Orientation (Angstroms)
    I     Atom         X            Y            Z
 ----------------------------------------------------
    1      C      25.045259    23.435011    24.198259
    2      C      23.883123    22.987669    23.571693
    3      C      22.952639    23.894247    23.036823
    4      C      23.225454    25.266073    23.167511
    5      C      24.388231    25.712584    23.794245
    6      C      25.325571    24.806040    24.316170
    7      H      25.746307    22.708881    24.618103
    8      H      23.683336    21.915379    23.505596
    9      H      22.506229    25.992571    22.782879
   10      H      24.569353    26.785936    23.895315
   11      H      21.333246    24.090744    21.797949
   12      H      21.790066    22.505487    22.079519
   13      H      26.780706    26.185043    24.738384
   14      H      27.238531    24.598999    25.019846
   15      N      26.464031    25.257441    25.008450
   16      N      21.747786    23.445486    22.464247
 ----------------------------------------------------
 Nuclear Repulsion Energy =   343.4676084748 hartrees
 There are       30 alpha and       29 beta electrons
 Requested basis set is G3large
 There are 128 shells and 416 basis functions

Total QAlloc Memory Limit   2000 MB
Mega-Array Size       743 MB
MEM_STATIC part       760 MB
 A cutoff of  1.0D-08 yielded   6564 shell pairs
 There are  69935 function pairs ( 87064 Cartesian)
Evaluating contribution to one-electron hamiltonian from nuclear
 Smallest overlap matrix eigenvalue = 7.45E-07

 Q-Chem warning in module mkSTV.C, line 194:

 Overlap eigenvalue is smaller than square root of threshold

 Linear dependence detected in AO basis
 Number of orthogonalized atomic orbitals = 415
 Maximum deviation from orthogonality = 8.255E-11
 Multipole matrices computed through 2nd order

  Scale SEOQF with 1.000000e-03/1.000000e-03/1.000000e-03

 Standard Electronic Orientation quadrupole field applied
 Nucleus-field energy     =     0.0000000019 hartrees
 Guess from superposition of atomic densities
 Warning:  Energy on first SCF cycle will be non-variational
 An unrestricted hybrid HF-DFT SCF calculation will be
 performed using Pulay DIIS extrapolation
 Exchange:     1.0000 Hartree-Fock + 1.0000 BNL
 Correlation:  1.0000 LYP
 Using SG-1 standard quadrature grid
 SCF converges when DIIS error is below 1.0E-05
 Warning!  Inaccurate integrated density:
   Number of electrons =    59
   Numerical integral  =    58.000465635056
   Relative error      =    -1.6941260423 %
 ---------------------------------------
  Cycle       Energy         DIIS Error
 ---------------------------------------
    1    -342.4833869060      2.53E-02
    2    -339.1211945407      2.61E-03
    3    -339.1552866602      2.60E-03
    4    -339.3085090071      4.09E-04
    5    -339.3141598238      2.09E-04
    6    -339.3155202626      7.06E-05
    7    -339.3161760571      5.48E-05
    8    -339.3170285760      5.80E-05
    9    -339.3171811921      5.88E-05
   10    -339.3157211450      4.61E-05
   11    -339.3140925634      4.50E-05
   12    -339.3139595927      4.52E-05
   13    -339.3139445403      3.82E-05
   14    -339.3139724523      9.71E-06 Convergence criterion met
 ---------------------------------------
 One-Electron    Energy = -1153.2268330144
 Total Coulomb   Energy =   516.1696578576
 Alpha Exchange  Energy =    -7.0291622923
 Beta  Exchange  Energy =    -6.8485291818
 DFT   Exchange  Energy =   -29.8680142799
 DFT Correlation Energy =    -1.9787000180
 Nuclear Repu.   Energy =   343.4676084767
 Nuclear Attr.   Energy = -1490.5806306012
 Kinetic         Energy =   337.3537975868
 <S^2> = 0.7687
 SCF time:  CPU 2015.48 s  wall 2018.61 s
 Final Alpha MO Eigenvalues
            1           2           3           4           5           6
    1 -13.9406117 -13.9391031  -9.8903409  -9.8902471  -9.8310236  -9.8305387
            7           8           9          10          11          12
    1  -9.8293927  -9.8289841  -0.9253694  -0.9169002  -0.8145045  -0.7281995
           13          14          15          16          17          18
    1  -0.6943622  -0.6009798  -0.5707622  -0.5059677  -0.4954043  -0.4681910
           19          20          21          22          23          24
    1  -0.4587092  -0.3890852  -0.3743985  -0.3722077  -0.3634446  -0.3304735
           25          26          27          28          29          30
    1  -0.3244952  -0.2816313  -0.2438359  -0.2016565  -0.1312737   0.0394586
           31          32          33          34          35
    1   0.1317291   0.1378338   0.1444398   0.1534568   0.1575542
 Final Beta MO Eigenvalues
            1           2           3           4           5           6
    1 -13.9405879 -13.9390413  -9.8921641  -9.8920508  -9.8272804  -9.8267333
            7           8           9          10          11          12
    1  -9.8256072  -9.8251079  -0.9248165  -0.9168592  -0.8100462  -0.7186462
           13          14          15          16          17          18
    1  -0.6909589  -0.5904498  -0.5698819  -0.5051625  -0.4930534  -0.4650406
           19          20          21          22          23          24
    1  -0.4558223  -0.3860819  -0.3717263  -0.3642483  -0.3599643  -0.3263421
           25          26          27          28          29          30
    1  -0.3223527  -0.2793429  -0.2352428  -0.1589018  -0.1133941   0.1280024
           31          32          33          34
    1   0.1288321   0.1390270   0.1461125   0.1517114
 Analysis of SCF Wavefunction
 
 --------------------------------------------------------------
                    Orbital Energies (a.u.)
 --------------------------------------------------------------
 
 Alpha MOs
 -- Occupied --
-13.941 -13.939  -9.890  -9.890  -9.831  -9.831  -9.829  -9.829
 -0.925  -0.917  -0.815  -0.728  -0.694  -0.601  -0.571  -0.506
 -0.495  -0.468  -0.459  -0.389  -0.374  -0.372  -0.363  -0.330
 -0.324  -0.282  -0.244  -0.202  -0.131   0.039
 -- Virtual --
  0.132   0.138   0.144   0.153   0.158   0.184   0.188   0.211
  0.229   0.242   0.250   0.268   0.268   0.278   0.282   0.287
  0.288   0.291   0.300   0.310   0.312   0.323   0.328   0.331
  0.331   0.341   0.349   0.351   0.359   0.368   0.372   0.378
  0.385   0.395   0.396   0.416   0.429   0.434   0.445   0.454
  0.459   0.462   0.481   0.490   0.503   0.509   0.512   0.515
  0.536   0.552   0.592   0.625   0.635   0.646   0.652   0.698
  0.750   0.770   0.796   0.798   0.804   0.809   0.814   0.819
  0.822   0.824   0.858   0.861   0.875   0.878   0.889   0.891
  0.900   0.915   0.920   0.938   0.941   0.948   0.952   0.956
  0.983   0.993   0.997   0.998   0.999   1.015   1.037   1.041
  1.052   1.054   1.065   1.090   1.094   1.114   1.124   1.130
  1.148   1.149   1.155   1.207   1.209   1.218   1.259   1.275
  1.305   1.335   1.335   1.355   1.359   1.369   1.376   1.392
  1.402   1.410   1.446   1.463   1.472   1.483   1.531   1.550
  1.571   1.574   1.579   1.583   1.606   1.622   1.625   1.629
  1.658   1.668   1.713   1.715   1.716   1.741   1.748   1.769
  1.792   1.805   1.837   1.878   1.939   1.960   1.989   2.034
  2.035   2.036   2.079   2.094   2.098   2.117   2.123   2.154
  2.175   2.195   2.209   2.243   2.340   2.467   2.534   2.552
  2.641   2.763   2.844   2.871   2.875   2.917   2.954   2.973
  2.997   3.024   3.044   3.052   3.059   3.099   3.102   3.113
  3.115   3.124   3.158   3.163   3.172   3.201   3.204   3.216
  3.224   3.249   3.258   3.273   3.284   3.317   3.371   3.405
  3.410   3.430   3.455   3.473   3.509   3.513   3.530   3.535
  3.552   3.555   3.557   3.564   3.596   3.599   3.604   3.651
  3.672   3.706   3.709   3.709   3.711   3.731   3.733   3.753
  3.777   3.791   3.809   3.817   3.868   3.869   3.882   3.892
  3.893   3.960   3.984   3.989   3.998   4.011   4.036   4.056
  4.074   4.080   4.119   4.141   4.184   4.216   4.218   4.227
  4.228   4.263   4.282   4.284   4.297   4.310   4.311   4.330
  4.341   4.384   4.427   4.431   4.458   4.498   4.576   4.592
  4.619   4.655   4.657   4.670   4.696   4.707   4.718   4.743
  4.757   4.790   4.795   4.823   4.829   4.846   4.866   4.897
  4.938   4.959   5.015   5.023   5.122   5.143   5.149   5.198
  5.232   5.244   5.304   5.342   5.346   5.404   5.452   5.495
  5.511   5.562   5.563   5.563   5.605   5.620   5.682   5.686
  5.746   5.877   5.889   5.926   5.986   6.002   6.126   6.134
  6.140   6.209   6.293   6.378   6.630   6.692   6.703   6.742
  6.830  24.188  24.731  24.763  25.002  25.015  25.496  27.530
 27.696  27.705  27.773  27.796  28.003  28.231  28.349  28.366
 28.518  28.541  28.547  28.776  28.802  28.874  28.898  28.931
 29.450  36.191  36.220  37.835  37.865  38.539  38.554  38.720
 38.815  40.784  40.798  40.826  40.847  40.941  40.943  40.978
 40.987  41.039  41.044  41.128  41.129  41.173  41.179  41.187
 41.192  41.200  41.207  41.277  41.308  41.398  41.402  41.443
 41.455  41.483  41.498  41.507  41.511  41.515  41.519  41.530
 41.540  41.579  41.608  41.649  41.661  41.720  41.750  41.801
 41.828
 
 Beta MOs
 -- Occupied --
-13.941 -13.939  -9.892  -9.892  -9.827  -9.827  -9.826  -9.825
 -0.925  -0.917  -0.810  -0.719  -0.691  -0.590  -0.570  -0.505
 -0.493  -0.465  -0.456  -0.386  -0.372  -0.364  -0.360  -0.326
 -0.322  -0.279  -0.235  -0.159  -0.113
 -- Virtual --
  0.128   0.129   0.139   0.146   0.152   0.176   0.181   0.201
  0.224   0.237   0.240   0.245   0.265   0.265   0.275   0.279
  0.284   0.285   0.286   0.295   0.309   0.319   0.323   0.327
  0.327   0.331   0.335   0.344   0.348   0.355   0.364   0.368
  0.377   0.378   0.392   0.394   0.412   0.426   0.430   0.442
  0.451   0.456   0.477   0.482   0.487   0.500   0.511   0.513
  0.515   0.536   0.551   0.593   0.628   0.636   0.643   0.651
  0.698   0.751   0.773   0.801   0.801   0.806   0.810   0.820
  0.823   0.824   0.829   0.861   0.862   0.876   0.878   0.890
  0.892   0.908   0.915   0.921   0.938   0.943   0.947   0.953
  0.957   0.989   0.995   0.998   1.001   1.007   1.015   1.039
  1.041   1.052   1.056   1.067   1.090   1.099   1.119   1.124
  1.130   1.149   1.150   1.156   1.207   1.209   1.220   1.261
  1.275   1.307   1.335   1.336   1.358   1.362   1.370   1.376
  1.394   1.402   1.411   1.447   1.461   1.472   1.484   1.533
  1.554   1.571   1.575   1.582   1.584   1.606   1.625   1.627
  1.631   1.660   1.669   1.716   1.717   1.720   1.741   1.748
  1.770   1.795   1.807   1.838   1.881   1.940   1.961   1.990
  2.035   2.037   2.039   2.082   2.097   2.098   2.117   2.125
  2.156   2.177   2.195   2.211   2.245   2.342   2.468   2.535
  2.554   2.641   2.765   2.847   2.875   2.879   2.920   2.958
  2.981   3.004   3.026   3.043   3.059   3.060   3.100   3.105
  3.118   3.120   3.126   3.164   3.167   3.177   3.205   3.213
  3.224   3.231   3.251   3.262   3.278   3.289   3.319   3.375
  3.406   3.413   3.432   3.461   3.476   3.512   3.516   3.535
  3.541   3.556   3.557   3.564   3.568   3.598   3.600   3.609
  3.653   3.677   3.708   3.711   3.712   3.714   3.733   3.739
  3.754   3.779   3.797   3.816   3.819   3.871   3.873   3.885
  3.892   3.898   3.965   3.987   3.991   4.001   4.014   4.041
  4.060   4.075   4.082   4.125   4.143   4.188   4.218   4.221
  4.227   4.230   4.265   4.283   4.288   4.298   4.310   4.312
  4.332   4.346   4.385   4.428   4.433   4.461   4.500   4.575
  4.594   4.623   4.658   4.659   4.672   4.699   4.710   4.721
  4.749   4.760   4.794   4.799   4.825   4.834   4.853   4.867
  4.899   4.942   4.960   5.017   5.024   5.122   5.145   5.154
  5.202   5.233   5.244   5.306   5.343   5.347   5.407   5.454
  5.496   5.511   5.562   5.563   5.564   5.606   5.621   5.682
  5.687   5.747   5.878   5.890   5.928   5.986   6.002   6.129
  6.136   6.140   6.210   6.295   6.379   6.630   6.692   6.703
  6.742   6.832  24.191  24.736  24.763  25.002  25.020  25.498
 27.533  27.702  27.705  27.774  27.802  28.007  28.232  28.350
 28.367  28.520  28.542  28.548  28.777  28.804  28.876  28.899
 28.932  29.451  36.191  36.220  37.835  37.865  38.540  38.554
 38.720  38.815  40.784  40.797  40.826  40.847  40.941  40.943
 40.978  40.987  41.039  41.045  41.126  41.128  41.174  41.181
 41.191  41.198  41.206  41.210  41.281  41.312  41.399  41.404
 41.441  41.454  41.489  41.503  41.513  41.514  41.518  41.524
 41.535  41.541  41.579  41.608  41.652  41.664  41.723  41.753
 41.802  41.829
 --------------------------------------------------------------
 
          Ground-State Mulliken Net Atomic Charges

     Atom                 Charge (a.u.)    Spin (a.u.)
  --------------------------------------------------------
      1 C                    -0.087366       0.235848
      2 C                    -0.066062       0.208604
      3 C                    -0.291042      -0.134421
      4 C                    -0.061093       0.194446
      5 C                    -0.052697       0.193434
      6 C                    -0.313178      -0.113136
      7 H                     0.076032       0.000062
      8 H                    -0.009945       0.088809
      9 H                     0.069478       0.004482
     10 H                     0.070094       0.003256
     11 H                     0.129658       0.050484
     12 H                     0.028884       0.158353
     13 H                     0.142510       0.038463
     14 H                     0.075211       0.110173
     15 N                    -0.360468      -0.014682
     16 N                    -0.350015      -0.024176
  --------------------------------------------------------
  Sum of atomic charges =    -1.000000
  Sum of spin   charges =     1.000000

 -----------------------------------------------------------------
                    Cartesian Multipole Moments
 -----------------------------------------------------------------
    Charge (ESU x 10^10)
                -4.8032
    Dipole Moment (Debye)
         X    -115.0467      Y    -115.9493      Z    -114.8144
       Tot     199.6555
    Quadrupole Moments (Debye-Ang)
        XX   -2821.8247     XY   -2778.9244     YY   -2860.3068
        XZ   -2751.6599     YZ   -2775.9285     ZZ   -2808.0733
    Octapole Moments (Debye-Ang^2)
       XXX  -70777.8836    XXY  -68201.4424    XYY  -68598.2043
       YYY  -72029.4499    XXZ  -67519.3145    XYZ  -66570.2063
       YYZ  -68562.8991    XZZ  -67359.7024    YZZ  -68003.6140
       ZZZ  -70126.3376
    Hexadecapole Moments (Debye-Ang^3)
      XXXX ************   XXXY ************   XXYY ************
      XYYY ************   YYYY ************   XXXZ ************
      XXYZ ************   XYYZ ************   YYYZ ************
      XXZZ ************   XYZZ ************   YYZZ ************
      XZZZ ************   YZZZ ************   ZZZZ ************
 -----------------------------------------------------------------
 Total job time:  2020.56s(wall), 2016.94s(cpu) 
 Mon Apr 11 19:23:00 2011

        *************************************************************
        *                                                           *
        *  Thank you very much for using Q-Chem.  Have a nice day.  *
        *                                                           *
        *************************************************************


0 sent ACK to 0 
now end server 0 ... 
 
**********************************************************************
Job 2 of 3 
**********************************************************************
 
Process 0 of 1 is on cl057.dal.acenet.ca - thread support 1
initial socket setup ...start
initial socket setup ...done 
now start server 0 ... 

cmd = /usr/bin/ssh glooscap.ace-net.ca /usr/local/qchem/bin/get_hostid 1389695333 > /tmp/179671.1.long.q/qchem16510/lic.dat
                  Welcome to Q-Chem
     A Quantum Leap Into The Future Of Chemistry

 Y. Shao, L. Fusti-Molnar, Y. Jung, J. Kussmann, C. Ochsenfeld,
 S. T. Brown, A. T. B. Gilbert, L. V. Slipchenko,S. V. Levchenko,
 D. P. O'Neill, R. A. DiStasio Jr., R. C. Lochan, T. Wang,
 G. J. O. Beran, N. A. Besley, J. M. Herbert, C. Y. Lin,
 T. Van Voorhis, S. H. Chien, A. Sodt, R. P. Steele, 
 V. A. Rassolov, P. E. Maslen, P. P. Korambath, R. D. Adamson,
 B. Austin, J. Baker, E. F. C. Byrd, H. Dachsel, R. J. Doerksen,
 A. Dreuw, B. D. Dunietz, A. D. Dutoi, T. R. Furlani,
 S. R. Gwaltney, A. Heyden, S. Hirata, C.-P. Hsu, G. Kedziora,
 R. Z. Khaliullin, P. Klunzinger, A. M. Lee, M. S. Lee, W. Liang,
 I. Lotan, N. Nair, B. Peters, E. I. Proynov, P. A. Pieniazek, 
 Y. M. Rhee, J. Ritchie, E. Rosta, C. D. Sherrill, 
 A. C. Simmonett, J. E. Subotnik, H. L. Woodcock III,
 W. Zhang, A. T. Bell, A. K. Chakraborty, D. M. Chipman,
 F. J. Keil, A. Warshel, W. J. Hehre, H. F. Schaefer III,
 J. Kong, A. I. Krylov, P. M. W. Gill, M. Head-Gordon,
 Q-Chem, Version 3.1, Q-Chem, Inc., Pittsburgh, PA (2007).

 Additional authors for Version 3.1: 
 Z. Gan, Y. Zhao, N. E. Schultz, D. Truhlar, E. Epifanovsky and M. Oana.

 Additional authors for Version 3.2: 
 R. Baer, B. R. Brooks, D. Casanova, J.-D. Chai, C.-L. Cheng, 
 C. Cramer, D. Crittenden, A. Ghysels, G. Hawkins, E. G. Hohenstein, 
 C. Kelley, W. Kurlancheek, D. Liotard, E. Livshits, P. Manohar, 
 A. Marenich, D. Neuhauser, R. Olson, M. A. Rohrdanz, K. S. Thanthiriwatte, 
 A. J. W. Thom, V. Vanovschi, C. F. Williams, Q. Wu and Z.-Q. You. 


 Intel X86 Linux Version

 Q-chem begins on Mon Apr 11 19:23:21 2011  

 Parallel job on  1  processors
Processing $rem in /usr/local/qchem/config/preferences.

theFileMan(): MAXOPENFILES=974 MAX_SUB_FILE_NUM=16
Maximum size of a physical file is 2.0 GB, maximum size of a tmp-file is 32.0 GB


--------------------------------------------------------------
User input:
--------------------------------------------------------------

$molecule
0,1
 C        25.045259       23.435011       24.198259
 C        23.883123       22.987669       23.571693
 C        22.952639       23.894247       23.036823
 C        23.225454       25.266073       23.167511
 C        24.388231       25.712584       23.794245
 C        25.325571       24.806040       24.316170
 H        25.746307       22.708881       24.618103
 H        23.683336       21.915379       23.505596
 H        22.506229       25.992571       22.782879
 H        24.569353       26.785936       23.895315
 H        21.333246       24.090744       21.797949
 H        21.790066       22.505487       22.079519
 H        26.780706       26.185043       24.738384
 H        27.238531       24.598999       25.019846
 N        26.464031       25.257441       25.008450
 N        21.747786       23.445486       22.464247

$end

$comment
neutral
$end

$xc_functional
   X HF 1.0
   X BNL 1.0
   C LYP 1.0
$end

$rem
SYMMETRY_DECOMPOSITION	0
exchange 		general
BASIS                   g3large
omega			500
separate_jk		true
mem_static              760
max_scf_cycles          200
scf_final_print         1
sym_ignore              true
$end

--------------------------------------------------------------
 Writing REM_CC_EA           16
 ----------------------------------------------------
       Standard Nuclear Orientation (Angstroms)
    I     Atom         X            Y            Z
 ----------------------------------------------------
    1      C      25.045259    23.435011    24.198259
    2      C      23.883123    22.987669    23.571693
    3      C      22.952639    23.894247    23.036823
    4      C      23.225454    25.266073    23.167511
    5      C      24.388231    25.712584    23.794245
    6      C      25.325571    24.806040    24.316170
    7      H      25.746307    22.708881    24.618103
    8      H      23.683336    21.915379    23.505596
    9      H      22.506229    25.992571    22.782879
   10      H      24.569353    26.785936    23.895315
   11      H      21.333246    24.090744    21.797949
   12      H      21.790066    22.505487    22.079519
   13      H      26.780706    26.185043    24.738384
   14      H      27.238531    24.598999    25.019846
   15      N      26.464031    25.257441    25.008450
   16      N      21.747786    23.445486    22.464247
 ----------------------------------------------------
 Nuclear Repulsion Energy =   343.4676084748 hartrees
 There are       29 alpha and       29 beta electrons
 Requested basis set is G3large
 There are 128 shells and 416 basis functions

Total QAlloc Memory Limit   2000 MB
Mega-Array Size       743 MB
MEM_STATIC part       760 MB
 A cutoff of  1.0D-08 yielded   6564 shell pairs
 There are  69935 function pairs ( 87064 Cartesian)
Evaluating contribution to one-electron hamiltonian from nuclear
 Smallest overlap matrix eigenvalue = 7.45E-07

 Q-Chem warning in module mkSTV.C, line 194:

 Overlap eigenvalue is smaller than square root of threshold

 Linear dependence detected in AO basis
 Number of orthogonalized atomic orbitals = 415
 Maximum deviation from orthogonality = 8.255E-11
 Multipole matrices computed through 2nd order

  Scale SEOQF with 1.000000e-03/1.000000e-03/1.000000e-03

 Standard Electronic Orientation quadrupole field applied
 Nucleus-field energy     =     0.0000000019 hartrees
 Guess from superposition of atomic densities
 Warning:  Energy on first SCF cycle will be non-variational
 A restricted hybrid HF-DFT SCF calculation will be
 performed using Pulay DIIS extrapolation
 Exchange:     1.0000 Hartree-Fock + 1.0000 BNL
 Correlation:  1.0000 LYP
 Using SG-1 standard quadrature grid
 SCF converges when DIIS error is below 1.0E-05
 ---------------------------------------
  Cycle       Energy         DIIS Error
 ---------------------------------------
    1    -342.4833869060      2.53E-02
    2    -339.2627923960      1.95E-03
    3    -339.3484111247      8.82E-04
    4    -339.3627773252      2.59E-04
    5    -339.3646125370      6.33E-05
    6    -339.3647288475      2.89E-05
    7    -339.3647425272      8.45E-06 Convergence criterion met
 ---------------------------------------
 One-Electron    Energy = -1143.0970637056
 Total Coulomb   Energy =   505.7615957140
 Alpha Exchange  Energy =    -6.8679686768
 Beta  Exchange  Energy =    -6.8679686768
 DFT   Exchange  Energy =   -29.8053871005
 DFT Correlation Energy =    -1.9555585581
 Nuclear Repu.   Energy =   343.4676084767
 Nuclear Attr.   Energy = -1480.1891555728
 Kinetic         Energy =   337.0920918672
 SCF time:  CPU 744.81 s  wall 745.80 s
 Final Alpha MO Eigenvalues
            1           2           3           4           5           6
    1 -14.0933450 -14.0931474 -10.0669775 -10.0668783 -10.0290479 -10.0289033
            7           8           9          10          11          12
    1 -10.0285027 -10.0284141  -1.0908855  -1.0770642  -0.9917624  -0.9125996
           13          14          15          16          17          18
    1  -0.8690393  -0.7758522  -0.7448355  -0.6707895  -0.6684723  -0.6322201
           19          20          21          22          23          24
    1  -0.6152383  -0.5696714  -0.5545060  -0.5446522  -0.5436102  -0.5096062
           25          26          27          28          29          30
    1  -0.4837890  -0.4631766  -0.4032137  -0.3626653  -0.2856844   0.0308481
           31          32          33          34
    1   0.0364497   0.0419431   0.0565600   0.0568915
 Analysis of SCF Wavefunction
 
 --------------------------------------------------------------
                    Orbital Energies (a.u.)
 --------------------------------------------------------------
 
 Alpha MOs
 -- Occupied --
-14.093 -14.093 -10.067 -10.067 -10.029 -10.029 -10.029 -10.028
 -1.091  -1.077  -0.992  -0.913  -0.869  -0.776  -0.745  -0.671
 -0.668  -0.632  -0.615  -0.570  -0.555  -0.545  -0.544  -0.510
 -0.484  -0.463  -0.403  -0.363  -0.286
 -- Virtual --
  0.031   0.036   0.042   0.057   0.057   0.067   0.085   0.088
  0.089   0.107   0.116   0.131   0.135   0.137   0.140   0.156
  0.161   0.166   0.174   0.177   0.179   0.189   0.199   0.206
  0.207   0.208   0.222   0.225   0.231   0.232   0.234   0.245
  0.254   0.268   0.269   0.275   0.282   0.292   0.306   0.312
  0.316   0.318   0.325   0.347   0.363   0.364   0.367   0.373
  0.376   0.392   0.393   0.429   0.464   0.472   0.490   0.495
  0.541   0.587   0.607   0.635   0.636   0.637   0.649   0.650
  0.651   0.661   0.668   0.705   0.709   0.715   0.723   0.735
  0.738   0.741   0.753   0.759   0.777   0.781   0.795   0.796
  0.799   0.812   0.833   0.834   0.837   0.845   0.862   0.875
  0.890   0.891   0.900   0.903   0.927   0.933   0.946   0.962
  0.968   0.974   0.981   0.987   1.053   1.054   1.059   1.095
  1.124   1.141   1.171   1.178   1.194   1.197   1.206   1.217
  1.221   1.243   1.244   1.281   1.307   1.308   1.320   1.368
  1.380   1.406   1.409   1.414   1.414   1.441   1.452   1.463
  1.473   1.486   1.493   1.545   1.549   1.559   1.584   1.585
  1.610   1.626   1.643   1.677   1.712   1.765   1.798   1.832
  1.864   1.867   1.878   1.910   1.923   1.935   1.960   1.962
  1.993   2.012   2.041   2.042   2.069   2.163   2.292   2.368
  2.383   2.473   2.588   2.670   2.697   2.703   2.738   2.771
  2.795   2.813   2.850   2.875   2.881   2.886   2.924   2.926
  2.935   2.936   2.944   2.974   2.983   2.991   3.019   3.020
  3.033   3.042   3.068   3.075   3.091   3.109   3.140   3.193
  3.227   3.231   3.251   3.272   3.297   3.329   3.331   3.348
  3.351   3.372   3.374   3.375   3.386   3.421   3.422   3.424
  3.475   3.490   3.530   3.530   3.531   3.547   3.552   3.566
  3.582   3.602   3.611   3.637   3.649   3.695   3.699   3.702
  3.714   3.725   3.789   3.809   3.816   3.828   3.838   3.860
  3.874   3.910   3.920   3.942   3.980   4.011   4.041   4.044
  4.051   4.060   4.086   4.107   4.110   4.134   4.141   4.149
  4.151   4.162   4.224   4.254   4.270   4.278   4.321   4.400
  4.413   4.443   4.481   4.488   4.497   4.515   4.530   4.544
  4.563   4.584   4.608   4.620   4.648   4.655   4.661   4.699
  4.716   4.765   4.796   4.846   4.850   4.952   4.971   4.976
  5.019   5.062   5.072   5.133   5.166   5.175   5.230   5.281
  5.326   5.357   5.401   5.403   5.406   5.434   5.456   5.516
  5.523   5.581   5.712   5.712   5.757   5.827   5.843   5.943
  5.956   5.976   6.036   6.114   6.207   6.473   6.542   6.550
  6.579   6.648  23.997  24.535  24.577  24.818  24.820  25.307
 27.339  27.497  27.521  27.589  27.597  27.811  28.042  28.160
 28.180  28.324  28.352  28.353  28.585  28.610  28.681  28.707
 28.743  29.259  36.037  36.066  37.681  37.711  38.386  38.401
 38.566  38.661  40.630  40.644  40.673  40.693  40.787  40.789
 40.823  40.833  40.886  40.891  40.946  40.947  40.980  40.990
 40.994  40.998  41.003  41.017  41.080  41.111  41.209  41.213
 41.260  41.273  41.286  41.301  41.309  41.315  41.323  41.326
 41.337  41.352  41.395  41.428  41.457  41.464  41.525  41.555
 41.609  41.637
 --------------------------------------------------------------
 
          Ground-State Mulliken Net Atomic Charges

     Atom                 Charge (a.u.)
  ----------------------------------------
      1 C                     0.007781
      2 C                     0.010536
      3 C                    -0.374478
      4 C                     0.007129
      5 C                     0.011321
      6 C                    -0.373199
      7 H                     0.148236
      8 H                     0.148782
      9 H                     0.148902
     10 H                     0.148421
     11 H                     0.199580
     12 H                     0.199645
     13 H                     0.199852
     14 H                     0.199727
     15 N                    -0.341282
     16 N                    -0.340954
  ----------------------------------------
  Sum of atomic charges =     0.000000

 -----------------------------------------------------------------
                    Cartesian Multipole Moments
 -----------------------------------------------------------------
    Charge (ESU x 10^10)
                 0.0000
    Dipole Moment (Debye)
         X       1.0362      Y      -0.0364      Z      -1.8813
       Tot       2.1481
    Quadrupole Moments (Debye-Ang)
        XX       7.4503     XY      25.1282     YY     -42.8042
        XZ     -14.4364     YZ     -46.5020     ZZ    -139.9179
    Octapole Moments (Debye-Ang^2)
       XXX   -1242.3246    XXY     204.5186    XYY    -379.4135
       YYY   -3062.2878    XXZ    -616.2996    XYZ    -354.6485
       YYZ   -2124.2455    XZZ   -2507.2722    YZZ   -3426.5390
       ZZZ   -6791.0755
    Hexadecapole Moments (Debye-Ang^3)
      XXXX  -88357.9651   XXXY  -28999.0013   XXYY  -18442.4907
      XYYY  -57516.3312   YYYY -148432.7018   XXXZ  -45274.6975
      XXYZ  -14604.2238   XYYZ  -32248.8794   YYYZ  -99656.4555
      XXZZ  -63876.6428   XYZZ  -61346.4120   YYZZ -107190.0051
      XZZZ -140636.6660   YZZZ -166119.3173   ZZZZ -272696.8559
 -----------------------------------------------------------------
 Total job time:  747.19s(wall), 746.18s(cpu) 
 Mon Apr 11 19:35:48 2011

        *************************************************************
        *                                                           *
        *  Thank you very much for using Q-Chem.  Have a nice day.  *
        *                                                           *
        *************************************************************


0 sent ACK to 0 
now end server 0 ... 
 
**********************************************************************
Job 3 of 3 
**********************************************************************
 
Process 0 of 1 is on cl057.dal.acenet.ca - thread support 1
initial socket setup ...start
initial socket setup ...done 
now start server 0 ... 

cmd = /usr/bin/ssh glooscap.ace-net.ca /usr/local/qchem/bin/get_hostid 1600322694 > /tmp/179671.1.long.q/qchem16510/lic.dat
                  Welcome to Q-Chem
     A Quantum Leap Into The Future Of Chemistry

 Y. Shao, L. Fusti-Molnar, Y. Jung, J. Kussmann, C. Ochsenfeld,
 S. T. Brown, A. T. B. Gilbert, L. V. Slipchenko,S. V. Levchenko,
 D. P. O'Neill, R. A. DiStasio Jr., R. C. Lochan, T. Wang,
 G. J. O. Beran, N. A. Besley, J. M. Herbert, C. Y. Lin,
 T. Van Voorhis, S. H. Chien, A. Sodt, R. P. Steele, 
 V. A. Rassolov, P. E. Maslen, P. P. Korambath, R. D. Adamson,
 B. Austin, J. Baker, E. F. C. Byrd, H. Dachsel, R. J. Doerksen,
 A. Dreuw, B. D. Dunietz, A. D. Dutoi, T. R. Furlani,
 S. R. Gwaltney, A. Heyden, S. Hirata, C.-P. Hsu, G. Kedziora,
 R. Z. Khaliullin, P. Klunzinger, A. M. Lee, M. S. Lee, W. Liang,
 I. Lotan, N. Nair, B. Peters, E. I. Proynov, P. A. Pieniazek, 
 Y. M. Rhee, J. Ritchie, E. Rosta, C. D. Sherrill, 
 A. C. Simmonett, J. E. Subotnik, H. L. Woodcock III,
 W. Zhang, A. T. Bell, A. K. Chakraborty, D. M. Chipman,
 F. J. Keil, A. Warshel, W. J. Hehre, H. F. Schaefer III,
 J. Kong, A. I. Krylov, P. M. W. Gill, M. Head-Gordon,
 Q-Chem, Version 3.1, Q-Chem, Inc., Pittsburgh, PA (2007).

 Additional authors for Version 3.1: 
 Z. Gan, Y. Zhao, N. E. Schultz, D. Truhlar, E. Epifanovsky and M. Oana.

 Additional authors for Version 3.2: 
 R. Baer, B. R. Brooks, D. Casanova, J.-D. Chai, C.-L. Cheng, 
 C. Cramer, D. Crittenden, A. Ghysels, G. Hawkins, E. G. Hohenstein, 
 C. Kelley, W. Kurlancheek, D. Liotard, E. Livshits, P. Manohar, 
 A. Marenich, D. Neuhauser, R. Olson, M. A. Rohrdanz, K. S. Thanthiriwatte, 
 A. J. W. Thom, V. Vanovschi, C. F. Williams, Q. Wu and Z.-Q. You. 


 Intel X86 Linux Version

 Q-chem begins on Mon Apr 11 19:36:10 2011  

 Parallel job on  1  processors
Processing $rem in /usr/local/qchem/config/preferences.

theFileMan(): MAXOPENFILES=974 MAX_SUB_FILE_NUM=16
Maximum size of a physical file is 2.0 GB, maximum size of a tmp-file is 32.0 GB


--------------------------------------------------------------
User input:
--------------------------------------------------------------

$molecule
1,2
 C        25.045259       23.435011       24.198259
 C        23.883123       22.987669       23.571693
 C        22.952639       23.894247       23.036823
 C        23.225454       25.266073       23.167511
 C        24.388231       25.712584       23.794245
 C        25.325571       24.806040       24.316170
 H        25.746307       22.708881       24.618103
 H        23.683336       21.915379       23.505596
 H        22.506229       25.992571       22.782879
 H        24.569353       26.785936       23.895315
 H        21.333246       24.090744       21.797949
 H        21.790066       22.505487       22.079519
 H        26.780706       26.185043       24.738384
 H        27.238531       24.598999       25.019846
 N        26.464031       25.257441       25.008450
 N        21.747786       23.445486       22.464247

$end

$comment
positive
$end

$xc_functional
   X HF 1.0
   X BNL 1.0
   C LYP 1.0
$end

$rem
SYMMETRY_DECOMPOSITION	0
exchange 		general
BASIS                   g3large
omega			500
separate_jk		true
mem_static              760
max_scf_cycles          200
scf_final_print         1
sym_ignore              true
$end

--------------------------------------------------------------
 Writing REM_CC_EA           16
 ----------------------------------------------------
       Standard Nuclear Orientation (Angstroms)
    I     Atom         X            Y            Z
 ----------------------------------------------------
    1      C      25.045259    23.435011    24.198259
    2      C      23.883123    22.987669    23.571693
    3      C      22.952639    23.894247    23.036823
    4      C      23.225454    25.266073    23.167511
    5      C      24.388231    25.712584    23.794245
    6      C      25.325571    24.806040    24.316170
    7      H      25.746307    22.708881    24.618103
    8      H      23.683336    21.915379    23.505596
    9      H      22.506229    25.992571    22.782879
   10      H      24.569353    26.785936    23.895315
   11      H      21.333246    24.090744    21.797949
   12      H      21.790066    22.505487    22.079519
   13      H      26.780706    26.185043    24.738384
   14      H      27.238531    24.598999    25.019846
   15      N      26.464031    25.257441    25.008450
   16      N      21.747786    23.445486    22.464247
 ----------------------------------------------------
 Nuclear Repulsion Energy =   343.4676084748 hartrees
 There are       29 alpha and       28 beta electrons
 Requested basis set is G3large
 There are 128 shells and 416 basis functions

Total QAlloc Memory Limit   2000 MB
Mega-Array Size       743 MB
MEM_STATIC part       760 MB
 A cutoff of  1.0D-08 yielded   6564 shell pairs
 There are  69935 function pairs ( 87064 Cartesian)
Evaluating contribution to one-electron hamiltonian from nuclear
 Smallest overlap matrix eigenvalue = 7.45E-07

 Q-Chem warning in module mkSTV.C, line 194:

 Overlap eigenvalue is smaller than square root of threshold

 Linear dependence detected in AO basis
 Number of orthogonalized atomic orbitals = 415
 Maximum deviation from orthogonality = 8.255E-11
 Multipole matrices computed through 2nd order

  Scale SEOQF with 1.000000e-03/1.000000e-03/1.000000e-03

 Standard Electronic Orientation quadrupole field applied
 Nucleus-field energy     =     0.0000000019 hartrees
 Guess from superposition of atomic densities
 Warning:  Energy on first SCF cycle will be non-variational
 An unrestricted hybrid HF-DFT SCF calculation will be
 performed using Pulay DIIS extrapolation
 Exchange:     1.0000 Hartree-Fock + 1.0000 BNL
 Correlation:  1.0000 LYP
 Using SG-1 standard quadrature grid
 SCF converges when DIIS error is below 1.0E-05
 Warning!  Inaccurate integrated density:
   Number of electrons =    57
   Numerical integral  =    58.000465635056
   Relative error      =     1.7552028685 %
 ---------------------------------------
  Cycle       Energy         DIIS Error
 ---------------------------------------
    1    -342.4833869060      2.53E-02
    2    -339.0040735342      1.71E-03
    3    -339.0869011351      6.36E-04
    4    -339.0953116823      3.03E-04
    5    -339.0977800200      7.46E-05
    6    -339.0980292931      2.73E-05
    7    -339.0980866694      1.21E-05
    8    -339.0981050806      3.63E-06 Convergence criterion met
 ---------------------------------------
 One-Electron    Energy = -1131.3379506377
 Total Coulomb   Energy =   493.9377941663
 Alpha Exchange  Energy =    -6.8962632015
 Beta  Exchange  Energy =    -6.6443295243
 DFT   Exchange  Energy =   -29.7023314396
 DFT Correlation Energy =    -1.9226329205
 Nuclear Repu.   Energy =   343.4676084767
 Nuclear Attr.   Energy = -1468.1161065735
 Kinetic         Energy =   336.7781559358
 <S^2> = 0.7817
 SCF time:  CPU 1063.42 s  wall 1064.39 s
 Final Alpha MO Eigenvalues
            1           2           3           4           5           6
    1 -14.3118561 -14.3116932 -10.2935706 -10.2934216 -10.2327881 -10.2326479
            7           8           9          10          11          12
    1 -10.2322151 -10.2321643  -1.3019149  -1.2869043  -1.2004738  -1.1122913
           13          14          15          16          17          18
    1  -1.0835409  -0.9803892  -0.9461334  -0.8710450  -0.8700207  -0.8360811
           19          20          21          22          23          24
    1  -0.8136444  -0.7667452  -0.7577893  -0.7571960  -0.7405664  -0.7115494
           25          26          27          28          29          30
    1  -0.7033722  -0.6616367  -0.6171153  -0.5593139  -0.5081046  -0.1217237
           31          32          33          34
    1  -0.1083434  -0.0881824  -0.0815063  -0.0700686
 Final Beta MO Eigenvalues
            1           2           3           4           5           6
    1 -14.3063657 -14.3062115 -10.2900100 -10.2898789 -10.2321213 -10.2319824
            7           8           9          10          11          12
    1 -10.2315174 -10.2314844  -1.2930032  -1.2773979  -1.1917755  -1.1104824
           13          14          15          16          17          18
    1  -1.0659972  -0.9751089  -0.9413788  -0.8680066  -0.8667298  -0.8307813
           19          20          21          22          23          24
    1  -0.8088819  -0.7632558  -0.7533240  -0.7395269  -0.7290280  -0.7053896
           25          26          27          28          29          30
    1  -0.6589679  -0.6577969  -0.5584953  -0.5547875  -0.2480545  -0.0987422
           31          32          33
    1  -0.0891511  -0.0810739  -0.0704909
 Analysis of SCF Wavefunction
 
 --------------------------------------------------------------
                    Orbital Energies (a.u.)
 --------------------------------------------------------------
 
 Alpha MOs
 -- Occupied --
-14.312 -14.312 -10.294 -10.293 -10.233 -10.233 -10.232 -10.232
 -1.302  -1.287  -1.200  -1.112  -1.084  -0.980  -0.946  -0.871
 -0.870  -0.836  -0.814  -0.767  -0.758  -0.757  -0.741  -0.712
 -0.703  -0.662  -0.617  -0.559  -0.508
 -- Virtual --
 -0.122  -0.108  -0.088  -0.082  -0.070  -0.055  -0.051  -0.033
 -0.023  -0.022  -0.020   0.000   0.004   0.011   0.013   0.017
  0.038   0.042   0.044   0.049   0.050   0.056   0.059   0.073
  0.074   0.080   0.082   0.092   0.095   0.103   0.106   0.107
  0.108   0.127   0.135   0.137   0.143   0.151   0.154   0.159
  0.169   0.179   0.185   0.196   0.202   0.217   0.222   0.223
  0.231   0.231   0.241   0.248   0.301   0.301   0.315   0.318
  0.370   0.397   0.431   0.456   0.461   0.463   0.467   0.472
  0.476   0.479   0.492   0.531   0.532   0.535   0.551   0.554
  0.560   0.567   0.573   0.577   0.605   0.606   0.624   0.625
  0.630   0.630   0.653   0.655   0.658   0.665   0.682   0.700
  0.709   0.715   0.722   0.732   0.742   0.756   0.760   0.780
  0.782   0.785   0.799   0.801   0.873   0.877   0.882   0.914
  0.944   0.959   0.986   0.999   1.012   1.016   1.027   1.035
  1.038   1.064   1.071   1.089   1.133   1.134   1.137   1.184
  1.189   1.216   1.223   1.228   1.234   1.249   1.273   1.275
  1.289   1.298   1.304   1.360   1.362   1.377   1.405   1.407
  1.425   1.455   1.465   1.491   1.526   1.573   1.605   1.638
  1.678   1.679   1.686   1.722   1.732   1.741   1.767   1.770
  1.798   1.819   1.842   1.851   1.882   1.970   2.095   2.172
  2.187   2.282   2.383   2.464   2.500   2.505   2.545   2.572
  2.597   2.607   2.660   2.668   2.680   2.694   2.723   2.727
  2.728   2.734   2.750   2.771   2.779   2.788   2.818   2.819
  2.831   2.833   2.857   2.864   2.884   2.904   2.929   2.994
  3.021   3.030   3.049   3.067   3.090   3.121   3.131   3.142
  3.147   3.169   3.174   3.177   3.181   3.215   3.219   3.224
  3.267   3.286   3.322   3.325   3.333   3.348   3.353   3.367
  3.375   3.402   3.414   3.438   3.449   3.493   3.494   3.498
  3.517   3.524   3.591   3.607   3.610   3.628   3.632   3.656
  3.674   3.711   3.712   3.739   3.781   3.812   3.831   3.843
  3.851   3.858   3.888   3.904   3.911   3.938   3.945   3.948
  3.953   3.958   4.027   4.057   4.070   4.093   4.135   4.207
  4.209   4.243   4.282   4.284   4.297   4.323   4.335   4.347
  4.356   4.383   4.400   4.417   4.449   4.451   4.460   4.489
  4.520   4.563   4.593   4.642   4.652   4.745   4.762   4.775
  4.816   4.864   4.868   4.932   4.961   4.968   5.023   5.078
  5.118   5.144   5.189   5.191   5.193   5.235   5.249   5.313
  5.314   5.371   5.507   5.511   5.550   5.620   5.635   5.752
  5.753   5.768   5.832   5.907   6.010   6.269   6.343   6.351
  6.374   6.446  23.788  24.330  24.361  24.599  24.614  25.094
 27.126  27.293  27.300  27.368  27.392  27.598  27.829  27.947
 27.965  28.118  28.140  28.146  28.376  28.402  28.474  28.498
 28.531  29.049  35.819  35.847  37.459  37.489  38.171  38.185
 38.349  38.445  40.408  40.421  40.455  40.473  40.565  40.567
 40.604  40.613  40.669  40.674  40.722  40.724  40.770  40.776
 40.783  40.789  40.797  40.804  40.876  40.906  40.994  40.999
 41.037  41.049  41.081  41.095  41.105  41.108  41.112  41.116
 41.127  41.139  41.176  41.206  41.248  41.259  41.317  41.347
 41.399  41.426
 
 Beta MOs
 -- Occupied --
-14.306 -14.306 -10.290 -10.290 -10.232 -10.232 -10.232 -10.231
 -1.293  -1.277  -1.192  -1.110  -1.066  -0.975  -0.941  -0.868
 -0.867  -0.831  -0.809  -0.763  -0.753  -0.740  -0.729  -0.705
 -0.659  -0.658  -0.558  -0.555
 -- Virtual --
 -0.248  -0.099  -0.089  -0.081  -0.070  -0.070  -0.053  -0.050
 -0.032  -0.022  -0.021  -0.017   0.002   0.005   0.011   0.014
  0.018   0.038   0.044   0.044   0.049   0.053   0.058   0.059
  0.074   0.078   0.081   0.086   0.095   0.096   0.104   0.107
  0.107   0.111   0.128   0.135   0.142   0.144   0.154   0.158
  0.161   0.169   0.181   0.186   0.198   0.206   0.217   0.224
  0.224   0.233   0.233   0.243   0.253   0.302   0.302   0.319
  0.322   0.371   0.402   0.433   0.458   0.462   0.469   0.471
  0.475   0.478   0.485   0.494   0.534   0.536   0.539   0.557
  0.558   0.564   0.570   0.578   0.581   0.606   0.608   0.629
  0.629   0.631   0.631   0.654   0.659   0.660   0.671   0.686
  0.703   0.712   0.718   0.727   0.733   0.747   0.762   0.762
  0.784   0.785   0.786   0.802   0.804   0.877   0.878   0.883
  0.917   0.949   0.961   0.989   1.000   1.015   1.019   1.031
  1.037   1.038   1.066   1.072   1.093   1.134   1.135   1.140
  1.186   1.193   1.219   1.225   1.232   1.236   1.254   1.274
  1.279   1.293   1.300   1.307   1.363   1.365   1.381   1.408
  1.409   1.429   1.456   1.467   1.494   1.528   1.576   1.610
  1.644   1.681   1.681   1.693   1.724   1.735   1.748   1.770
  1.776   1.805   1.825   1.847   1.856   1.884   1.974   2.097
  2.177   2.189   2.284   2.389   2.471   2.504   2.510   2.548
  2.576   2.601   2.613   2.662   2.678   2.682   2.698   2.727
  2.732   2.735   2.739   2.753   2.774   2.783   2.792   2.821
  2.822   2.835   2.839   2.865   2.873   2.890   2.910   2.938
  2.997   3.026   3.034   3.052   3.071   3.095   3.127   3.134
  3.149   3.151   3.174   3.176   3.181   3.187   3.220   3.223
  3.227   3.273   3.289   3.329   3.331   3.336   3.352   3.356
  3.371   3.383   3.405   3.417   3.442   3.454   3.498   3.501
  3.504   3.520   3.530   3.595   3.613   3.614   3.634   3.640
  3.661   3.677   3.716   3.722   3.744   3.786   3.816   3.840
  3.846   3.860   3.861   3.891   3.909   3.915   3.941   3.950
  3.951   3.958   3.963   4.032   4.059   4.077   4.094   4.136
  4.209   4.213   4.247   4.286   4.289   4.301   4.325   4.338
  4.351   4.362   4.388   4.406   4.422   4.452   4.456   4.464
  4.498   4.522   4.567   4.599   4.647   4.656   4.751   4.768
  4.779   4.820   4.868   4.874   4.936   4.965   4.974   5.030
  5.082   5.126   5.157   5.201   5.203   5.207   5.241   5.257
  5.318   5.324   5.382   5.514   5.515   5.557   5.627   5.642
  5.753   5.755   5.774   5.836   5.910   6.013   6.275   6.348
  6.356   6.379   6.448  23.790  24.331  24.364  24.603  24.615
 25.097  27.129  27.294  27.305  27.373  27.394  27.601  27.830
 27.948  27.967  28.119  28.141  28.147  28.377  28.403  28.475
 28.498  28.532  29.050  35.826  35.855  37.469  37.499  38.175
 38.189  38.353  38.449  40.419  40.434  40.462  40.482  40.577
 40.579  40.612  40.622  40.674  40.679  40.728  40.730  40.772
 40.778  40.786  40.791  40.799  40.806  40.877  40.907  40.997
 41.001  41.042  41.055  41.082  41.096  41.106  41.110  41.114
 41.117  41.129  41.140  41.179  41.209  41.249  41.260  41.318
 41.348  41.400  41.427
 --------------------------------------------------------------
 
          Ground-State Mulliken Net Atomic Charges

     Atom                 Charge (a.u.)    Spin (a.u.)
  --------------------------------------------------------
      1 C                     0.059661       0.033962
      2 C                     0.062532       0.029140
      3 C                    -0.316143       0.229748
      4 C                     0.057975       0.033864
      5 C                     0.063599       0.029500
      6 C                    -0.315533       0.229329
      7 H                     0.200090      -0.003341
      8 H                     0.200407      -0.003102
      9 H                     0.200677      -0.003329
     10 H                     0.200096      -0.003103
     11 H                     0.240522      -0.002236
     12 H                     0.240717      -0.002288
     13 H                     0.240956      -0.002255
     14 H                     0.240714      -0.002295
     15 N                    -0.188228       0.218432
     16 N                    -0.188040       0.217977
  --------------------------------------------------------
  Sum of atomic charges =     1.000000
  Sum of spin   charges =     1.000000

 -----------------------------------------------------------------
                    Cartesian Multipole Moments
 -----------------------------------------------------------------
    Charge (ESU x 10^10)
                 4.8032
    Dipole Moment (Debye)
         X     116.9228      Y     116.9266      Z     111.9545
       Tot     199.6912
    Quadrupole Moments (Debye-Ang)
        XX    2824.9247     XY    2852.2096     YY    2816.5893
        XZ    2741.1432     YZ    2728.1921     ZZ    2567.6137
    Octapole Moments (Debye-Ang^2)
       XXX   67770.1845    XXY   69059.6846    XYY   68858.6351
       YYY   67113.5244    XXZ   66595.7006    XYZ   66932.7963
       YYZ   65773.3490    XZZ   63247.8859    YZZ   62631.8888
       ZZZ   57834.1338
    Hexadecapole Moments (Debye-Ang^3)
      XXXX 1614320.5803   XXXY 1660486.2363   XXYY 1670841.0071
      XYYY 1644751.3948   YYYY 1580450.7993   XXXZ 1606250.0104
      XXYZ 1629515.6218   XYYZ 1617237.5082   YYYZ 1568258.7989
      XXZZ 1545115.1561   XYZZ 1545834.3959   YYZZ 1510811.7264
      XZZZ 1433949.9310   YZZZ 1412123.0777   ZZZZ 1275221.2940
 -----------------------------------------------------------------
 Total job time:  1065.79s(wall), 1064.81s(cpu) 
 Mon Apr 11 19:53:56 2011

        *************************************************************
        *                                                           *
        *  Thank you very much for using Q-Chem.  Have a nice day.  *
        *                                                           *
        *************************************************************


0 sent ACK to 0 
now end server 0 ... 
