Process 0 of 1 is on cl156.stfx.acenet.ca - thread support 1
initial socket setup ...start
initial socket setup ...done 
now start server 0 ... 

cmd = /usr/bin/ssh clhead /usr/local/qchem/bin/get_hostid 1787251020 > /globalscratch/itamblyn/bnl/g297_b3lyp_neut_g03Large/g2g71115/omega500/qchem9406/lic.dat
                  Welcome to Q-Chem
     A Quantum Leap Into The Future Of Chemistry

 Y. Shao, L. Fusti-Molnar, Y. Jung, J. Kussmann, C. Ochsenfeld,
 S. T. Brown, A. T. B. Gilbert, L. V. Slipchenko,S. V. Levchenko,
 D. P. O'Neill, R. A. DiStasio Jr., R. C. Lochan, T. Wang,
 G. J. O. Beran, N. A. Besley, J. M. Herbert, C. Y. Lin,
 T. Van Voorhis, S. H. Chien, A. Sodt, R. P. Steele, 
 V. A. Rassolov, P. E. Maslen, P. P. Korambath, R. D. Adamson,
 B. Austin, J. Baker, E. F. C. Byrd, H. Dachsel, R. J. Doerksen,
 A. Dreuw, B. D. Dunietz, A. D. Dutoi, T. R. Furlani,
 S. R. Gwaltney, A. Heyden, S. Hirata, C.-P. Hsu, G. Kedziora,
 R. Z. Khaliullin, P. Klunzinger, A. M. Lee, M. S. Lee, W. Liang,
 I. Lotan, N. Nair, B. Peters, E. I. Proynov, P. A. Pieniazek, 
 Y. M. Rhee, J. Ritchie, E. Rosta, C. D. Sherrill, 
 A. C. Simmonett, J. E. Subotnik, H. L. Woodcock III,
 W. Zhang, A. T. Bell, A. K. Chakraborty, D. M. Chipman,
 F. J. Keil, A. Warshel, W. J. Hehre, H. F. Schaefer III,
 J. Kong, A. I. Krylov, P. M. W. Gill, M. Head-Gordon,
 Q-Chem, Version 3.1, Q-Chem, Inc., Pittsburgh, PA (2007).

 Additional authors for Version 3.1: 
 Z. Gan, Y. Zhao, N. E. Schultz, D. Truhlar, E. Epifanovsky and M. Oana.

 Additional authors for Version 3.2: 
 R. Baer, B. R. Brooks, D. Casanova, J.-D. Chai, C.-L. Cheng, 
 C. Cramer, D. Crittenden, A. Ghysels, G. Hawkins, E. G. Hohenstein, 
 C. Kelley, W. Kurlancheek, D. Liotard, E. Livshits, P. Manohar, 
 A. Marenich, D. Neuhauser, R. Olson, M. A. Rohrdanz, K. S. Thanthiriwatte, 
 A. J. W. Thom, V. Vanovschi, C. F. Williams, Q. Wu and Z.-Q. You. 


 Intel X86 Linux Version

 Q-chem begins on Mon Apr 11 18:28:42 2011  

 Parallel job on  1  processors
Processing $rem in /usr/local/qchem/config/preferences.

theFileMan(): MAXOPENFILES=974 MAX_SUB_FILE_NUM=16
Maximum size of a physical file is 2.0 GB, maximum size of a tmp-file is 32.0 GB


--------------------------------------------------------------
User input:
--------------------------------------------------------------

$molecule
-1,2
S
O,1,so
C,1,cs1,2,cso
C,1,cs2,2,cso2,3,csoc,0
H,3,ch,1,hcs,2,h1cso,0
H,4,ch2,1,h2cs,2,h2cso,0
H,3,ch3,1,h3cs,5,h3csh,0
H,3,ch4,1,h4cs,5,h4csh,0
H,4,ch5,1,h5cs,6,h5csh2,0
H,4,ch6,1,h6cs,6,h6csh2,0

so=1.51140759
cs1=1.83759223
cs2=1.83757605
ch=1.09413741
ch2=1.09272343
ch3=1.09447663
ch4=1.0926981
ch5=1.09444552
ch6=1.09414812
cso=107.49120831
cso2=107.48671236
hcs=109.58947455
h2cs=106.97262301
h3cs=109.94965456
h4cs=106.97501928
h5cs=109.9687057
h6cs=109.56953857
csoc=102.16581582
h1cso=51.822253
h2cso=66.97806433
h3csh=122.16990429
h4csh=-118.66611641
h5csh2=119.1736631
h6csh2=-118.6283509

$end

$comment
negative
$end

$xc_functional
   X HF 1.0
   X BNL 1.0
   C LYP 1.0
$end

$rem
SYMMETRY_DECOMPOSITION	0
exchange 		general
BASIS                   g3large
omega			500
separate_jk		true
mem_static              760
max_scf_cycles          200
scf_final_print         1
sym_ignore              true
$end

--------------------------------------------------------------
 Writing REM_CC_EA           10
 ----------------------------------------------------
       Standard Nuclear Orientation (Angstroms)
    I     Atom         X            Y            Z
 ----------------------------------------------------
    1      S       0.000000     0.000000     0.000000
    2      O       0.000000     0.000000     1.511408
    3      C       1.752628     0.000000    -0.552306
    4      C      -0.369357    -1.713294    -0.552163
    5      H       2.294007    -0.810315    -0.054877
    6      H      -1.399644    -1.928052    -0.258169
    7      H       1.801273    -0.107679    -1.640386
    8      H       2.180416     0.960896    -0.256222
    9      H      -0.271965    -1.784595    -1.639933
   10      H       0.306821    -2.413270    -0.052187
 ----------------------------------------------------
 Nuclear Repulsion Energy =   181.6387707826 hartrees
 There are       22 alpha and       21 beta electrons
 Requested basis set is G3large
 There are 85 shells and 252 basis functions

Total QAlloc Memory Limit   2000 MB
Mega-Array Size       743 MB
MEM_STATIC part       760 MB

                       Distance Matrix (Angstroms)
             S (  1)   O (  2)   C (  3)   C (  4)   H (  5)   H (  6)
   O (  2)  1.511408
   C (  3)  1.837592  2.707511
   C (  4)  1.837576  2.707421  2.727306
   H (  5)  2.433534  2.893497  1.094137  2.855902
   H (  6)  2.396464  2.967792  3.706847  1.092723  3.864417
   H (  7)  2.438656  3.631801  1.094477  2.910990  1.802864  3.933212
   H (  8)  2.396494  2.966825  1.092698  3.706780  1.786233  4.600310
   H (  9)  2.438878  3.631761  2.909757  1.094446  3.169516  1.789277
   H ( 10)  2.433256  2.891858  2.857332  1.094148  2.553112  1.786026
             H (  7)   H (  8)   H (  9)
   H (  8)  1.789276
   H (  9)  2.666527  3.932753
   H ( 10)  3.173565  3.864840  1.803097
 
 A cutoff of  1.0D-08 yielded   3293 shell pairs
 There are  29101 function pairs ( 36888 Cartesian)
Evaluating contribution to one-electron hamiltonian from nuclear
 Smallest overlap matrix eigenvalue = 1.06E-04
 Multipole matrices computed through 2nd order

  Scale SEOQF with 1.000000e-01/1.000000e-01/1.000000e-01

 Standard Electronic Orientation quadrupole field applied
 Nucleus-field energy     =     0.0000000006 hartrees
 Guess from superposition of atomic densities
 Warning:  Energy on first SCF cycle will be non-variational
 An unrestricted hybrid HF-DFT SCF calculation will be
 performed using Pulay DIIS extrapolation
 Exchange:     1.0000 Hartree-Fock + 1.0000 BNL
 Correlation:  1.0000 LYP
 Using SG-1 standard quadrature grid
 SCF converges when DIIS error is below 1.0E-05
 Warning!  Inaccurate integrated density:
   Number of electrons =    43
   Numerical integral  =    41.999560747224
   Relative error      =    -2.3266029134 %
 ---------------------------------------
  Cycle       Energy         DIIS Error
 ---------------------------------------
    1    -550.9117829135      2.84E-02
    2    -549.8242437596      4.72E-03
    3    -549.7874735187      6.11E-03
    4    -549.9961050485      6.21E-04
    5    -550.0033083280      2.71E-04
    6    -550.0065316439      1.05E-04
    7    -550.0079631941      5.20E-05
    8    -550.0087024328      2.43E-05
    9    -550.0089020602      1.18E-05
   10    -550.0089456917      6.98E-06 Convergence criterion met
 ---------------------------------------
 One-Electron    Energy = -1125.3100095008
 Total Coulomb   Energy =   437.7476937199
 Alpha Exchange  Energy =    -5.1658070620
 Beta  Exchange  Energy =    -5.0896560662
 DFT   Exchange  Energy =   -32.3023808668
 DFT Correlation Energy =    -1.5275566989
 Nuclear Repu.   Energy =   181.6387707832
 Nuclear Attr.   Energy = -1673.6260189266
 Kinetic         Energy =   548.3160094258
 <S^2> = 0.7502
 SCF time:  CPU 302.03 s  wall 346.96 s
 Final Alpha MO Eigenvalues
            1           2           3           4           5           6
    1 -87.9305002 -18.6684109  -9.9282535  -9.9271539  -7.8636789  -5.9086625
            7           8           9          10          11          12
    1  -5.9083695  -5.9008668  -1.0530447  -0.8356826  -0.7606475  -0.6334082
           13          14          15          16          17          18
    1  -0.4855960  -0.4700381  -0.4691210  -0.4286861  -0.4158530  -0.3955861
           19          20          21          22          23          24
    1  -0.3710214  -0.2822097  -0.2377560   0.0256694   0.1307173   0.1503941
           25          26          27
    1   0.1551514   0.1786891   0.1882261
 Final Beta MO Eigenvalues
            1           2           3           4           5           6
    1 -87.9304223 -18.6682567  -9.9275278  -9.9263790  -7.8635994  -5.9085981
            7           8           9          10          11          12
    1  -5.9083099  -5.9006979  -1.0527962  -0.8347448  -0.7589015  -0.6317076
           13          14          15          16          17          18
    1  -0.4847497  -0.4688383  -0.4683550  -0.4281736  -0.4149062  -0.3950729
           19          20          21          22          23          24
    1  -0.3703719  -0.2819101  -0.2361677   0.1273924   0.1322531   0.1520762
           25          26
    1   0.1650875   0.1691393
 Analysis of SCF Wavefunction
 
 --------------------------------------------------------------
                    Orbital Energies (a.u.)
 --------------------------------------------------------------
 
 Alpha MOs
 -- Occupied --
-87.931 -18.668  -9.928  -9.927  -7.864  -5.909  -5.908  -5.901
 -1.053  -0.836  -0.761  -0.633  -0.486  -0.470  -0.469  -0.429
 -0.416  -0.396  -0.371  -0.282  -0.238   0.026
 -- Virtual --
  0.131   0.150   0.155   0.179   0.188   0.190   0.212   0.228
  0.229   0.258   0.263   0.274   0.277   0.279   0.290   0.296
  0.309   0.313   0.338   0.345   0.352   0.363   0.391   0.404
  0.423   0.435   0.472   0.475   0.480   0.506   0.525   0.539
  0.555   0.584   0.610   0.636   0.669   0.675   0.675   0.697
  0.714   0.716   0.752   0.772   0.788   0.798   0.852   0.878
  0.884   0.902   0.915   0.937   0.961   0.973   1.023   1.066
  1.071   1.093   1.143   1.146   1.179   1.206   1.209   1.257
  1.279   1.280   1.307   1.311   1.367   1.378   1.388   1.404
  1.408   1.427   1.457   1.458   1.479   1.498   1.546   1.549
  1.559   1.589   1.601   1.638   1.656   1.671   1.679   1.681
  1.688   1.706   1.729   1.765   1.778   1.805   1.869   1.884
  2.028   2.057   2.194   2.263   2.318   2.406   2.441   2.456
  2.684   2.748   2.814   2.901   2.932   2.983   3.026   3.175
  3.194   3.197   3.204   3.231   3.331   3.344   3.396   3.433
  3.437   3.458   3.472   3.496   3.502   3.557   3.561   3.619
  3.631   3.749   3.778   3.787   3.795   3.828   3.833   3.837
  3.845   3.878   3.899   3.950   4.062   4.096   4.141   4.167
  4.172   4.198   4.278   4.366   4.379   4.388   4.435   4.474
  4.571   4.579   4.617   4.618   4.668   4.723   4.734   4.777
  4.931   4.969   5.042   5.166   5.300   5.311   5.321   5.360
  5.407   5.436   5.448   5.460   5.623   5.665   5.879   5.883
  5.906   5.908   5.919   5.968   6.551   7.164   7.227   7.524
  7.534   7.770   9.133  17.457  17.548  17.742  23.739  23.785
 23.834  23.907  24.006  24.468  24.482  28.100  28.145  28.313
 28.331  28.360  28.400  31.070  31.076  31.088  31.091  31.096
 31.102  31.149  41.110  41.118  41.159  41.166  41.416  41.429
 41.434  41.439  41.488  41.503  43.925  43.991  44.105  44.107
 44.119  45.980  45.994  46.414  50.346 189.998
 
 Beta MOs
 -- Occupied --
-87.930 -18.668  -9.928  -9.926  -7.864  -5.909  -5.908  -5.901
 -1.053  -0.835  -0.759  -0.632  -0.485  -0.469  -0.468  -0.428
 -0.415  -0.395  -0.370  -0.282  -0.236
 -- Virtual --
  0.127   0.132   0.152   0.165   0.169   0.181   0.183   0.208
  0.221   0.223   0.249   0.255   0.266   0.268   0.273   0.282
  0.294   0.300   0.305   0.330   0.341   0.349   0.358   0.386
  0.398   0.419   0.431   0.467   0.469   0.474   0.502   0.521
  0.535   0.552   0.581   0.607   0.633   0.665   0.671   0.672
  0.692   0.710   0.713   0.747   0.767   0.783   0.792   0.848
  0.873   0.881   0.901   0.912   0.936   0.961   0.972   1.022
  1.065   1.070   1.093   1.143   1.146   1.178   1.205   1.208
  1.256   1.277   1.279   1.305   1.310   1.366   1.377   1.387
  1.403   1.407   1.425   1.455   1.457   1.478   1.497   1.546
  1.548   1.557   1.587   1.600   1.637   1.655   1.670   1.678
  1.680   1.686   1.705   1.727   1.763   1.777   1.804   1.868
  1.883   2.028   2.057   2.194   2.263   2.318   2.406   2.441
  2.456   2.684   2.747   2.813   2.901   2.932   2.983   3.025
  3.176   3.195   3.197   3.205   3.231   3.331   3.344   3.397
  3.434   3.437   3.458   3.472   3.496   3.503   3.557   3.561
  3.620   3.632   3.750   3.779   3.788   3.796   3.829   3.834
  3.838   3.845   3.879   3.900   3.950   4.063   4.096   4.141
  4.167   4.172   4.198   4.278   4.366   4.379   4.388   4.435
  4.475   4.571   4.579   4.617   4.618   4.668   4.723   4.734
  4.777   4.931   4.969   5.043   5.167   5.300   5.311   5.322
  5.361   5.408   5.436   5.448   5.460   5.623   5.665   5.879
  5.883   5.906   5.908   5.920   5.968   6.551   7.164   7.227
  7.524   7.534   7.770   9.133  17.457  17.548  17.742  23.739
 23.785  23.834  23.907  24.006  24.469  24.483  28.101  28.146
 28.313  28.331  28.360  28.400  31.070  31.076  31.088  31.091
 31.096  31.102  31.149  41.111  41.118  41.160  41.167  41.417
 41.429  41.434  41.440  41.488  41.504  43.925  43.992  44.105
 44.107  44.119  45.980  45.994  46.414  50.346 189.998
 --------------------------------------------------------------
 
          Ground-State Mulliken Net Atomic Charges

     Atom                 Charge (a.u.)    Spin (a.u.)
  --------------------------------------------------------
      1 S                     0.262431       0.075391
      2 O                    -0.705632       0.080894
      3 C                     1.238148      -1.504555
      4 C                     1.371009      -1.634553
      5 H                    -0.290687       0.423381
      6 H                    -0.340853       0.459106
      7 H                    -0.915021       1.072636
      8 H                    -0.290819       0.407965
      9 H                    -0.997864       1.156645
     10 H                    -0.330712       0.463090
  --------------------------------------------------------
  Sum of atomic charges =    -1.000000
  Sum of spin   charges =     1.000000

 -----------------------------------------------------------------
                    Cartesian Multipole Moments
 -----------------------------------------------------------------
    Charge (ESU x 10^10)
                -4.8032
    Dipole Moment (Debye)
         X      -3.1577      Y       4.5903      Z       5.2755
       Tot       7.6729
    Quadrupole Moments (Debye-Ang)
        XX     -59.1613     XY       2.3661     YY     -61.3707
        XZ       7.3643     YZ     -10.1921     ZZ     -80.6165
    Octapole Moments (Debye-Ang^2)
       XXX     -93.7967    XXY      41.7365    XYY     -30.7567
       YYY     126.9222    XXZ      43.7793    XYZ      -3.3423
       YYZ      46.9610    XZZ     -44.8904    YZZ      60.2629
       ZZZ     135.0389
    Hexadecapole Moments (Debye-Ang^3)
      XXXX    -646.6092   XXXY      -3.9935   XXYY    -226.3396
      XYYY       0.5444   YYYY    -676.0978   XXXZ     111.3411
      XXYZ     -47.3865   XYYZ      33.7011   YYYZ    -149.1684
      XXZZ    -253.7811   XYZZ       6.7420   YYZZ    -264.5768
      XZZZ     134.8718   YZZZ    -181.5940   ZZZZ    -862.3373
 -----------------------------------------------------------------
 Total job time:  350.14s(wall), 302.41s(cpu) 
 Mon Apr 11 18:34:32 2011

        *************************************************************
        *                                                           *
        *  Thank you very much for using Q-Chem.  Have a nice day.  *
        *                                                           *
        *************************************************************


0 sent ACK to 0 
now end server 0 ... 
 
**********************************************************************
Job 2 of 3 
**********************************************************************
 
Process 0 of 1 is on cl156.stfx.acenet.ca - thread support 1
initial socket setup ...start
initial socket setup ...done 
now start server 0 ... 

cmd = /usr/bin/ssh clhead /usr/local/qchem/bin/get_hostid 732753663 > /globalscratch/itamblyn/bnl/g297_b3lyp_neut_g03Large/g2g71115/omega500/qchem9406/lic.dat
                  Welcome to Q-Chem
     A Quantum Leap Into The Future Of Chemistry

 Y. Shao, L. Fusti-Molnar, Y. Jung, J. Kussmann, C. Ochsenfeld,
 S. T. Brown, A. T. B. Gilbert, L. V. Slipchenko,S. V. Levchenko,
 D. P. O'Neill, R. A. DiStasio Jr., R. C. Lochan, T. Wang,
 G. J. O. Beran, N. A. Besley, J. M. Herbert, C. Y. Lin,
 T. Van Voorhis, S. H. Chien, A. Sodt, R. P. Steele, 
 V. A. Rassolov, P. E. Maslen, P. P. Korambath, R. D. Adamson,
 B. Austin, J. Baker, E. F. C. Byrd, H. Dachsel, R. J. Doerksen,
 A. Dreuw, B. D. Dunietz, A. D. Dutoi, T. R. Furlani,
 S. R. Gwaltney, A. Heyden, S. Hirata, C.-P. Hsu, G. Kedziora,
 R. Z. Khaliullin, P. Klunzinger, A. M. Lee, M. S. Lee, W. Liang,
 I. Lotan, N. Nair, B. Peters, E. I. Proynov, P. A. Pieniazek, 
 Y. M. Rhee, J. Ritchie, E. Rosta, C. D. Sherrill, 
 A. C. Simmonett, J. E. Subotnik, H. L. Woodcock III,
 W. Zhang, A. T. Bell, A. K. Chakraborty, D. M. Chipman,
 F. J. Keil, A. Warshel, W. J. Hehre, H. F. Schaefer III,
 J. Kong, A. I. Krylov, P. M. W. Gill, M. Head-Gordon,
 Q-Chem, Version 3.1, Q-Chem, Inc., Pittsburgh, PA (2007).

 Additional authors for Version 3.1: 
 Z. Gan, Y. Zhao, N. E. Schultz, D. Truhlar, E. Epifanovsky and M. Oana.

 Additional authors for Version 3.2: 
 R. Baer, B. R. Brooks, D. Casanova, J.-D. Chai, C.-L. Cheng, 
 C. Cramer, D. Crittenden, A. Ghysels, G. Hawkins, E. G. Hohenstein, 
 C. Kelley, W. Kurlancheek, D. Liotard, E. Livshits, P. Manohar, 
 A. Marenich, D. Neuhauser, R. Olson, M. A. Rohrdanz, K. S. Thanthiriwatte, 
 A. J. W. Thom, V. Vanovschi, C. F. Williams, Q. Wu and Z.-Q. You. 


 Intel X86 Linux Version

 Q-chem begins on Mon Apr 11 18:34:36 2011  

 Parallel job on  1  processors
Processing $rem in /usr/local/qchem/config/preferences.

theFileMan(): MAXOPENFILES=974 MAX_SUB_FILE_NUM=16
Maximum size of a physical file is 2.0 GB, maximum size of a tmp-file is 32.0 GB


--------------------------------------------------------------
User input:
--------------------------------------------------------------

$molecule
0,1
S
O,1,so
C,1,cs1,2,cso
C,1,cs2,2,cso2,3,csoc,0
H,3,ch,1,hcs,2,h1cso,0
H,4,ch2,1,h2cs,2,h2cso,0
H,3,ch3,1,h3cs,5,h3csh,0
H,3,ch4,1,h4cs,5,h4csh,0
H,4,ch5,1,h5cs,6,h5csh2,0
H,4,ch6,1,h6cs,6,h6csh2,0

so=1.51140759
cs1=1.83759223
cs2=1.83757605
ch=1.09413741
ch2=1.09272343
ch3=1.09447663
ch4=1.0926981
ch5=1.09444552
ch6=1.09414812
cso=107.49120831
cso2=107.48671236
hcs=109.58947455
h2cs=106.97262301
h3cs=109.94965456
h4cs=106.97501928
h5cs=109.9687057
h6cs=109.56953857
csoc=102.16581582
h1cso=51.822253
h2cso=66.97806433
h3csh=122.16990429
h4csh=-118.66611641
h5csh2=119.1736631
h6csh2=-118.6283509

$end

$comment
neutral
$end

$xc_functional
   X HF 1.0
   X BNL 1.0
   C LYP 1.0
$end

$rem
SYMMETRY_DECOMPOSITION	0
exchange 		general
BASIS                   g3large
omega			500
separate_jk		true
mem_static              760
max_scf_cycles          200
scf_final_print         1
sym_ignore              true
$end

--------------------------------------------------------------
 Writing REM_CC_EA           10
 ----------------------------------------------------
       Standard Nuclear Orientation (Angstroms)
    I     Atom         X            Y            Z
 ----------------------------------------------------
    1      S       0.000000     0.000000     0.000000
    2      O       0.000000     0.000000     1.511408
    3      C       1.752628     0.000000    -0.552306
    4      C      -0.369357    -1.713294    -0.552163
    5      H       2.294007    -0.810315    -0.054877
    6      H      -1.399644    -1.928052    -0.258169
    7      H       1.801273    -0.107679    -1.640386
    8      H       2.180416     0.960896    -0.256222
    9      H      -0.271965    -1.784595    -1.639933
   10      H       0.306821    -2.413270    -0.052187
 ----------------------------------------------------
 Nuclear Repulsion Energy =   181.6387707826 hartrees
 There are       21 alpha and       21 beta electrons
 Requested basis set is G3large
 There are 85 shells and 252 basis functions

Total QAlloc Memory Limit   2000 MB
Mega-Array Size       743 MB
MEM_STATIC part       760 MB

                       Distance Matrix (Angstroms)
             S (  1)   O (  2)   C (  3)   C (  4)   H (  5)   H (  6)
   O (  2)  1.511408
   C (  3)  1.837592  2.707511
   C (  4)  1.837576  2.707421  2.727306
   H (  5)  2.433534  2.893497  1.094137  2.855902
   H (  6)  2.396464  2.967792  3.706847  1.092723  3.864417
   H (  7)  2.438656  3.631801  1.094477  2.910990  1.802864  3.933212
   H (  8)  2.396494  2.966825  1.092698  3.706780  1.786233  4.600310
   H (  9)  2.438878  3.631761  2.909757  1.094446  3.169516  1.789277
   H ( 10)  2.433256  2.891858  2.857332  1.094148  2.553112  1.786026
             H (  7)   H (  8)   H (  9)
   H (  8)  1.789276
   H (  9)  2.666527  3.932753
   H ( 10)  3.173565  3.864840  1.803097
 
 A cutoff of  1.0D-08 yielded   3293 shell pairs
 There are  29101 function pairs ( 36888 Cartesian)
Evaluating contribution to one-electron hamiltonian from nuclear
 Smallest overlap matrix eigenvalue = 1.06E-04
 Multipole matrices computed through 2nd order

  Scale SEOQF with 1.000000e-01/1.000000e-01/1.000000e-01

 Standard Electronic Orientation quadrupole field applied
 Nucleus-field energy     =     0.0000000006 hartrees
 Guess from superposition of atomic densities
 Warning:  Energy on first SCF cycle will be non-variational
 A restricted hybrid HF-DFT SCF calculation will be
 performed using Pulay DIIS extrapolation
 Exchange:     1.0000 Hartree-Fock + 1.0000 BNL
 Correlation:  1.0000 LYP
 Using SG-1 standard quadrature grid
 SCF converges when DIIS error is below 1.0E-05
 ---------------------------------------
  Cycle       Energy         DIIS Error
 ---------------------------------------
    1    -550.9117829135      2.84E-02
    2    -549.8857780133      4.69E-03
    3    -549.8460810402      5.88E-03
    4    -550.0328788757      5.94E-04
    5    -550.0353418383      2.26E-04
    6    -550.0358170778      5.93E-05
    7    -550.0358634114      1.43E-05
    8    -550.0358694661      4.28E-06 Convergence criterion met
 ---------------------------------------
 One-Electron    Energy = -1119.8722775173
 Total Coulomb   Energy =   432.1944278059
 Alpha Exchange  Energy =    -5.0919474675
 Beta  Exchange  Energy =    -5.0919474675
 DFT   Exchange  Energy =   -32.2917088756
 DFT Correlation Energy =    -1.5211867273
 Nuclear Repu.   Energy =   181.6387707832
 Nuclear Attr.   Energy = -1668.0942528467
 Kinetic         Energy =   548.2219753294
 SCF time:  CPU 187.56 s  wall 214.01 s
 Final Alpha MO Eigenvalues
            1           2           3           4           5           6
    1 -88.0600051 -18.7914589 -10.0644363 -10.0642681  -7.9926731  -6.0376160
            7           8           9          10          11          12
    1  -6.0375268  -6.0298748  -1.1765873  -0.9674122  -0.8948529  -0.7640322
           13          14          15          16          17          18
    1  -0.6179430  -0.6034448  -0.6024914  -0.5658895  -0.5421168  -0.5278295
           19          20          21          22          23          24
    1  -0.4961334  -0.4060561  -0.3610241   0.0258466   0.0412498   0.0539648
           25          26
    1   0.0615933   0.0781942
 Analysis of SCF Wavefunction
 
 --------------------------------------------------------------
                    Orbital Energies (a.u.)
 --------------------------------------------------------------
 
 Alpha MOs
 -- Occupied --
-88.060 -18.791 -10.064 -10.064  -7.993  -6.038  -6.038  -6.030
 -1.177  -0.967  -0.895  -0.764  -0.618  -0.603  -0.602  -0.566
 -0.542  -0.528  -0.496  -0.406  -0.361
 -- Virtual --
  0.026   0.041   0.054   0.062   0.078   0.082   0.085   0.096
  0.113   0.119   0.140   0.142   0.160   0.162   0.163   0.179
  0.182   0.196   0.199   0.211   0.214   0.229   0.235   0.257
  0.281   0.302   0.328   0.346   0.359   0.367   0.385   0.407
  0.412   0.431   0.459   0.493   0.506   0.539   0.546   0.549
  0.566   0.579   0.586   0.624   0.638   0.654   0.662   0.722
  0.742   0.752   0.774   0.784   0.805   0.826   0.839   0.894
  0.932   0.940   0.960   1.009   1.017   1.052   1.078   1.080
  1.131   1.148   1.151   1.179   1.180   1.236   1.244   1.257
  1.276   1.280   1.303   1.326   1.330   1.348   1.366   1.414
  1.421   1.426   1.458   1.469   1.508   1.526   1.534   1.544
  1.549   1.553   1.570   1.599   1.630   1.647   1.673   1.736
  1.750   1.905   1.936   2.071   2.134   2.190   2.281   2.317
  2.329   2.548   2.615   2.685   2.770   2.800   2.851   2.889
  3.040   3.060   3.063   3.069   3.097   3.197   3.210   3.262
  3.299   3.302   3.323   3.336   3.360   3.368   3.421   3.425
  3.485   3.499   3.616   3.645   3.656   3.661   3.697   3.701
  3.705   3.713   3.744   3.765   3.822   3.930   3.961   4.005
  4.031   4.038   4.064   4.147   4.228   4.242   4.250   4.300
  4.337   4.435   4.444   4.480   4.485   4.534   4.586   4.598
  4.639   4.802   4.840   4.914   5.039   5.179   5.187   5.191
  5.233   5.286   5.314   5.321   5.338   5.496   5.543   5.741
  5.744   5.771   5.782   5.787   5.844   6.426   7.043   7.106
  7.403   7.413   7.648   9.005  17.328  17.419  17.614  23.610
 23.655  23.705  23.778  23.877  24.332  24.345  27.964  28.009
 28.176  28.194  28.223  28.263  30.941  30.947  30.959  30.962
 30.967  30.973  31.020  40.974  40.981  41.023  41.029  41.280
 41.292  41.297  41.303  41.351  41.367  43.802  43.869  43.982
 43.984  43.996  45.857  45.871  46.291  50.223 189.868
 --------------------------------------------------------------
 
          Ground-State Mulliken Net Atomic Charges

     Atom                 Charge (a.u.)
  ----------------------------------------
      1 S                     0.357161
      2 O                    -0.584345
      3 C                    -0.302069
      4 C                    -0.302465
      5 H                     0.147611
      6 H                     0.143858
      7 H                     0.124219
      8 H                     0.143944
      9 H                     0.124198
     10 H                     0.147888
  ----------------------------------------
  Sum of atomic charges =     0.000000

 -----------------------------------------------------------------
                    Cartesian Multipole Moments
 -----------------------------------------------------------------
    Charge (ESU x 10^10)
                 0.0000
    Dipole Moment (Debye)
         X       1.2555      Y      -1.5546      Z      -4.1109
       Tot       4.5708
    Quadrupole Moments (Debye-Ang)
        XX     -29.4878     XY       1.2408     YY     -30.0225
        XZ      -0.6723     YZ       0.8327     ZZ     -38.2770
    Octapole Moments (Debye-Ang^2)
       XXX     -29.1312    XXY      12.0774    XYY      -9.7804
       YYY      36.1122    XXZ      -0.5441    XYZ      -0.5919
       YYZ      -0.2828    XZZ      -9.7192    YZZ      12.0436
       ZZZ     -14.7648
    Hexadecapole Moments (Debye-Ang^3)
      XXXX    -196.0971   XXXY     -11.5904   XXYY     -60.1552
      XYYY     -13.8943   YYYY    -185.1105   XXXZ      18.4979
      XXYZ      -8.4923   XYYZ       7.4288   YYYZ     -23.5967
      XXZZ     -62.4336   XYZZ      -5.0253   YYZZ     -60.2602
      XZZZ      14.8717   YZZZ     -18.4154   ZZZZ    -171.4062
 -----------------------------------------------------------------
 Total job time:  217.70s(wall), 187.94s(cpu) 
 Mon Apr 11 18:38:13 2011

        *************************************************************
        *                                                           *
        *  Thank you very much for using Q-Chem.  Have a nice day.  *
        *                                                           *
        *************************************************************


0 sent ACK to 0 
now end server 0 ... 
 
**********************************************************************
Job 3 of 3 
**********************************************************************
 
Process 0 of 1 is on cl156.stfx.acenet.ca - thread support 1
initial socket setup ...start
initial socket setup ...done 
now start server 0 ... 

cmd = /usr/bin/ssh clhead /usr/local/qchem/bin/get_hostid 85701301 > /globalscratch/itamblyn/bnl/g297_b3lyp_neut_g03Large/g2g71115/omega500/qchem9406/lic.dat
                  Welcome to Q-Chem
     A Quantum Leap Into The Future Of Chemistry

 Y. Shao, L. Fusti-Molnar, Y. Jung, J. Kussmann, C. Ochsenfeld,
 S. T. Brown, A. T. B. Gilbert, L. V. Slipchenko,S. V. Levchenko,
 D. P. O'Neill, R. A. DiStasio Jr., R. C. Lochan, T. Wang,
 G. J. O. Beran, N. A. Besley, J. M. Herbert, C. Y. Lin,
 T. Van Voorhis, S. H. Chien, A. Sodt, R. P. Steele, 
 V. A. Rassolov, P. E. Maslen, P. P. Korambath, R. D. Adamson,
 B. Austin, J. Baker, E. F. C. Byrd, H. Dachsel, R. J. Doerksen,
 A. Dreuw, B. D. Dunietz, A. D. Dutoi, T. R. Furlani,
 S. R. Gwaltney, A. Heyden, S. Hirata, C.-P. Hsu, G. Kedziora,
 R. Z. Khaliullin, P. Klunzinger, A. M. Lee, M. S. Lee, W. Liang,
 I. Lotan, N. Nair, B. Peters, E. I. Proynov, P. A. Pieniazek, 
 Y. M. Rhee, J. Ritchie, E. Rosta, C. D. Sherrill, 
 A. C. Simmonett, J. E. Subotnik, H. L. Woodcock III,
 W. Zhang, A. T. Bell, A. K. Chakraborty, D. M. Chipman,
 F. J. Keil, A. Warshel, W. J. Hehre, H. F. Schaefer III,
 J. Kong, A. I. Krylov, P. M. W. Gill, M. Head-Gordon,
 Q-Chem, Version 3.1, Q-Chem, Inc., Pittsburgh, PA (2007).

 Additional authors for Version 3.1: 
 Z. Gan, Y. Zhao, N. E. Schultz, D. Truhlar, E. Epifanovsky and M. Oana.

 Additional authors for Version 3.2: 
 R. Baer, B. R. Brooks, D. Casanova, J.-D. Chai, C.-L. Cheng, 
 C. Cramer, D. Crittenden, A. Ghysels, G. Hawkins, E. G. Hohenstein, 
 C. Kelley, W. Kurlancheek, D. Liotard, E. Livshits, P. Manohar, 
 A. Marenich, D. Neuhauser, R. Olson, M. A. Rohrdanz, K. S. Thanthiriwatte, 
 A. J. W. Thom, V. Vanovschi, C. F. Williams, Q. Wu and Z.-Q. You. 


 Intel X86 Linux Version

 Q-chem begins on Mon Apr 11 18:38:17 2011  

 Parallel job on  1  processors
Processing $rem in /usr/local/qchem/config/preferences.

theFileMan(): MAXOPENFILES=974 MAX_SUB_FILE_NUM=16
Maximum size of a physical file is 2.0 GB, maximum size of a tmp-file is 32.0 GB


--------------------------------------------------------------
User input:
--------------------------------------------------------------

$molecule
1,2
S
O,1,so
C,1,cs1,2,cso
C,1,cs2,2,cso2,3,csoc,0
H,3,ch,1,hcs,2,h1cso,0
H,4,ch2,1,h2cs,2,h2cso,0
H,3,ch3,1,h3cs,5,h3csh,0
H,3,ch4,1,h4cs,5,h4csh,0
H,4,ch5,1,h5cs,6,h5csh2,0
H,4,ch6,1,h6cs,6,h6csh2,0

so=1.51140759
cs1=1.83759223
cs2=1.83757605
ch=1.09413741
ch2=1.09272343
ch3=1.09447663
ch4=1.0926981
ch5=1.09444552
ch6=1.09414812
cso=107.49120831
cso2=107.48671236
hcs=109.58947455
h2cs=106.97262301
h3cs=109.94965456
h4cs=106.97501928
h5cs=109.9687057
h6cs=109.56953857
csoc=102.16581582
h1cso=51.822253
h2cso=66.97806433
h3csh=122.16990429
h4csh=-118.66611641
h5csh2=119.1736631
h6csh2=-118.6283509

$end

$comment
positive
$end

$xc_functional
   X HF 1.0
   X BNL 1.0
   C LYP 1.0
$end

$rem
SYMMETRY_DECOMPOSITION	0
exchange 		general
BASIS                   g3large
omega			500
separate_jk		true
mem_static              760
max_scf_cycles          200
scf_final_print         1
sym_ignore              true
$end

--------------------------------------------------------------
 Writing REM_CC_EA           10
 ----------------------------------------------------
       Standard Nuclear Orientation (Angstroms)
    I     Atom         X            Y            Z
 ----------------------------------------------------
    1      S       0.000000     0.000000     0.000000
    2      O       0.000000     0.000000     1.511408
    3      C       1.752628     0.000000    -0.552306
    4      C      -0.369357    -1.713294    -0.552163
    5      H       2.294007    -0.810315    -0.054877
    6      H      -1.399644    -1.928052    -0.258169
    7      H       1.801273    -0.107679    -1.640386
    8      H       2.180416     0.960896    -0.256222
    9      H      -0.271965    -1.784595    -1.639933
   10      H       0.306821    -2.413270    -0.052187
 ----------------------------------------------------
 Nuclear Repulsion Energy =   181.6387707826 hartrees
 There are       21 alpha and       20 beta electrons
 Requested basis set is G3large
 There are 85 shells and 252 basis functions

Total QAlloc Memory Limit   2000 MB
Mega-Array Size       743 MB
MEM_STATIC part       760 MB

                       Distance Matrix (Angstroms)
             S (  1)   O (  2)   C (  3)   C (  4)   H (  5)   H (  6)
   O (  2)  1.511408
   C (  3)  1.837592  2.707511
   C (  4)  1.837576  2.707421  2.727306
   H (  5)  2.433534  2.893497  1.094137  2.855902
   H (  6)  2.396464  2.967792  3.706847  1.092723  3.864417
   H (  7)  2.438656  3.631801  1.094477  2.910990  1.802864  3.933212
   H (  8)  2.396494  2.966825  1.092698  3.706780  1.786233  4.600310
   H (  9)  2.438878  3.631761  2.909757  1.094446  3.169516  1.789277
   H ( 10)  2.433256  2.891858  2.857332  1.094148  2.553112  1.786026
             H (  7)   H (  8)   H (  9)
   H (  8)  1.789276
   H (  9)  2.666527  3.932753
   H ( 10)  3.173565  3.864840  1.803097
 
 A cutoff of  1.0D-08 yielded   3293 shell pairs
 There are  29101 function pairs ( 36888 Cartesian)
Evaluating contribution to one-electron hamiltonian from nuclear
 Smallest overlap matrix eigenvalue = 1.06E-04
 Multipole matrices computed through 2nd order

  Scale SEOQF with 1.000000e-01/1.000000e-01/1.000000e-01

 Standard Electronic Orientation quadrupole field applied
 Nucleus-field energy     =     0.0000000006 hartrees
 Guess from superposition of atomic densities
 Warning:  Energy on first SCF cycle will be non-variational
 An unrestricted hybrid HF-DFT SCF calculation will be
 performed using Pulay DIIS extrapolation
 Exchange:     1.0000 Hartree-Fock + 1.0000 BNL
 Correlation:  1.0000 LYP
 Using SG-1 standard quadrature grid
 SCF converges when DIIS error is below 1.0E-05
 Warning!  Inaccurate integrated density:
   Number of electrons =    41
   Numerical integral  =    41.999560747224
   Relative error      =     2.4379530420 %
 ---------------------------------------
  Cycle       Energy         DIIS Error
 ---------------------------------------
    1    -550.9117829135      2.84E-02
    2    -549.5417293964      4.12E-03
    3    -549.5754438985      4.45E-03
    4    -549.6885179691      8.44E-04
    5    -549.6944687587      2.98E-04
    6    -549.6962065671      9.11E-05
    7    -549.6967207876      6.55E-05
    8    -549.6970626710      4.52E-05
    9    -549.6972570134      2.53E-05
   10    -549.6973750629      1.08E-05
   11    -549.6974053689      8.10E-06 Convergence criterion met
 ---------------------------------------
 One-Electron    Energy = -1109.0732193509
 Total Coulomb   Energy =   421.3915993979
 Alpha Exchange  Energy =    -5.1262783096
 Beta  Exchange  Energy =    -4.8612974189
 DFT   Exchange  Energy =   -32.1807585840
 DFT Correlation Energy =    -1.4862218865
 Nuclear Repu.   Energy =   181.6387707832
 Nuclear Attr.   Energy = -1657.0173627895
 Kinetic         Energy =   547.9441434386
 <S^2> = 0.7617
 SCF time:  CPU 316.36 s  wall 358.13 s
 Final Alpha MO Eigenvalues
            1           2           3           4           5           6
    1 -88.3369242 -19.1493372 -10.2889041 -10.2874618  -8.2711030  -6.3160211
            7           8           9          10          11          12
    1  -6.3131576  -6.3114821  -1.4946566  -1.2229914  -1.1138411  -1.0137195
           13          14          15          16          17          18
    1  -0.8734537  -0.8551822  -0.8489611  -0.8009476  -0.7774790  -0.7749408
           19          20          21          22          23          24
    1  -0.7499818  -0.6938896  -0.6728909  -0.1288163  -0.1228007  -0.1092284
           25          26
    1  -0.0850541  -0.0750253
 Final Beta MO Eigenvalues
            1           2           3           4           5           6
    1 -88.3356375 -19.1301646 -10.2875983 -10.2863508  -8.2696667  -6.3150671
            7           8           9          10          11          12
    1  -6.3121854  -6.3082578  -1.4648968  -1.2038079  -1.1102965  -0.9917998
           13          14          15          16          17          18
    1  -0.8405170  -0.8403004  -0.8315345  -0.7831139  -0.7746709  -0.7461904
           19          20          21          22          23          24
    1  -0.7237151  -0.6764303  -0.3175114  -0.1184603  -0.1126816  -0.1075913
           25
    1  -0.0832533
 Analysis of SCF Wavefunction
 
 --------------------------------------------------------------
                    Orbital Energies (a.u.)
 --------------------------------------------------------------
 
 Alpha MOs
 -- Occupied --
-88.337 -19.149 -10.289 -10.287  -8.271  -6.316  -6.313  -6.311
 -1.495  -1.223  -1.114  -1.014  -0.873  -0.855  -0.849  -0.801
 -0.777  -0.775  -0.750  -0.694  -0.673
 -- Virtual --
 -0.129  -0.123  -0.109  -0.085  -0.075  -0.066  -0.066  -0.045
 -0.034  -0.031  -0.024  -0.007  -0.002   0.015   0.016   0.027
  0.032   0.041   0.052   0.055   0.057   0.064   0.074   0.088
  0.103   0.120   0.142   0.163   0.182   0.186   0.200   0.206
  0.211   0.225   0.263   0.292   0.302   0.335   0.361   0.363
  0.389   0.397   0.404   0.442   0.452   0.468   0.478   0.513
  0.543   0.562   0.566   0.582   0.595   0.605   0.631   0.676
  0.707   0.721   0.744   0.788   0.814   0.823   0.851   0.854
  0.907   0.920   0.940   0.941   0.962   1.019   1.029   1.034
  1.034   1.062   1.080   1.101   1.107   1.133   1.157   1.182
  1.199   1.212   1.253   1.260   1.288   1.315   1.326   1.328
  1.338   1.340   1.367   1.370   1.423   1.432   1.463   1.533
  1.545   1.621   1.655   1.787   1.882   1.942   2.005   2.052
  2.059   2.336   2.401   2.430   2.562   2.570   2.628   2.677
  2.816   2.836   2.843   2.857   2.877   2.970   2.983   3.033
  3.074   3.089   3.104   3.111   3.143   3.146   3.204   3.211
  3.267   3.277   3.371   3.389   3.404   3.437   3.454   3.458
  3.475   3.477   3.522   3.543   3.556   3.692   3.746   3.784
  3.811   3.817   3.850   3.905   4.020   4.034   4.041   4.090
  4.127   4.221   4.233   4.268   4.277   4.316   4.371   4.389
  4.433   4.535   4.557   4.643   4.755   4.834   4.864   4.924
  4.928   4.987   4.987   5.027   5.069   5.220   5.225   5.458
  5.533   5.535   5.551   5.567   5.577   6.121   6.677   6.741
  7.040   7.089   7.323   8.722  17.050  17.146  17.335  23.331
 23.378  23.425  23.504  23.598  24.108  24.122  27.737  27.783
 27.954  27.972  28.001  28.041  30.662  30.668  30.682  30.683
 30.690  30.695  30.740  40.748  40.756  40.800  40.807  41.056
 41.068  41.073  41.078  41.129  41.143  43.427  43.493  43.607
 43.635  43.637  45.482  45.522  45.940  49.866 189.591
 
 Beta MOs
 -- Occupied --
-88.336 -19.130 -10.288 -10.286  -8.270  -6.315  -6.312  -6.308
 -1.465  -1.204  -1.110  -0.992  -0.841  -0.840  -0.832  -0.783
 -0.775  -0.746  -0.724  -0.676
 -- Virtual --
 -0.318  -0.118  -0.113  -0.108  -0.083  -0.074  -0.065  -0.064
 -0.045  -0.034  -0.031  -0.021  -0.004  -0.002   0.017   0.019
  0.027   0.033   0.043   0.054   0.057   0.058   0.064   0.074
  0.089   0.107   0.121   0.146   0.174   0.183   0.187   0.203
  0.209   0.221   0.227   0.264   0.295   0.310   0.337   0.362
  0.365   0.390   0.398   0.407   0.443   0.454   0.470   0.480
  0.516   0.547   0.563   0.568   0.584   0.598   0.612   0.632
  0.679   0.714   0.723   0.748   0.790   0.815   0.826   0.853
  0.858   0.911   0.924   0.941   0.953   0.966   1.026   1.035
  1.040   1.048   1.065   1.085   1.108   1.110   1.139   1.159
  1.189   1.203   1.216   1.255   1.264   1.292   1.318   1.329
  1.333   1.340   1.344   1.369   1.375   1.425   1.437   1.465
  1.534   1.548   1.645   1.673   1.810   1.889   1.946   2.020
  2.058   2.070   2.338   2.403   2.441   2.563   2.575   2.633
  2.679   2.821   2.840   2.845   2.859   2.880   2.973   2.986
  3.038   3.078   3.092   3.107   3.116   3.144   3.150   3.207
  3.213   3.269   3.279   3.378   3.398   3.407   3.441   3.458
  3.465   3.480   3.481   3.526   3.546   3.563   3.696   3.748
  3.786   3.813   3.820   3.851   3.909   4.021   4.036   4.042
  4.091   4.129   4.222   4.235   4.270   4.278   4.320   4.373
  4.390   4.434   4.540   4.572   4.651   4.773   4.884   4.893
  4.954   4.961   5.005   5.018   5.051   5.078   5.229   5.248
  5.489   5.535   5.537   5.558   5.569   5.578   6.136   6.741
  6.804   7.100   7.111   7.351   8.729  17.053  17.147  17.336
 23.334  23.381  23.428  23.504  23.600  24.110  24.124  27.739
 27.785  27.955  27.973  28.002  28.042  30.663  30.669  30.683
 30.683  30.691  30.696  30.741  40.750  40.758  40.801  40.808
 41.057  41.069  41.074  41.080  41.130  41.145  43.476  43.542
 43.655  43.655  43.667  45.519  45.536  45.954  49.889 189.593
 --------------------------------------------------------------
 
          Ground-State Mulliken Net Atomic Charges

     Atom                 Charge (a.u.)    Spin (a.u.)
  --------------------------------------------------------
      1 S                     0.590651       0.227790
      2 O                    -0.173125       0.663191
      3 C                    -0.262522       0.052045
      4 C                    -0.264645       0.042507
      5 H                     0.190243       0.008524
      6 H                     0.187508      -0.000404
      7 H                     0.177267      -0.000861
      8 H                     0.188126      -0.000797
      9 H                     0.176397      -0.000968
     10 H                     0.190099       0.008974
  --------------------------------------------------------
  Sum of atomic charges =     1.000000
  Sum of spin   charges =     1.000000

 -----------------------------------------------------------------
                    Cartesian Multipole Moments
 -----------------------------------------------------------------
    Charge (ESU x 10^10)
                 4.8032
    Dipole Moment (Debye)
         X       2.4761      Y      -3.0292      Z      -2.9506
       Tot       4.9003
    Quadrupole Moments (Debye-Ang)
        XX     -21.2162     XY       1.3623     YY     -21.9016
        XZ      -1.4345     YZ       1.7514     ZZ     -28.3285
    Octapole Moments (Debye-Ang^2)
       XXX     -16.3440    XXY       9.7818    XYY      -9.8070
       YYY      22.8415    XXZ      -3.2607    XYZ      -1.5518
       YYZ      -2.5793    XZZ      -7.3374    YZZ       9.1517
       ZZZ      -8.8018
    Hexadecapole Moments (Debye-Ang^3)
      XXXX    -145.7233   XXXY     -10.5430   XXYY     -47.9356
      XYYY     -10.0286   YYYY    -137.3770   XXXZ      10.5559
      XXYZ      -7.6967   XYYZ       8.3607   YYYZ     -15.8721
      XXZZ     -49.7233   XYZZ      -5.2728   YYZZ     -47.6214
      XZZZ      11.7609   YZZZ     -14.6355   ZZZZ    -129.8290
 -----------------------------------------------------------------
 Total job time:  361.20s(wall), 316.78s(cpu) 
 Mon Apr 11 18:44:18 2011

        *************************************************************
        *                                                           *
        *  Thank you very much for using Q-Chem.  Have a nice day.  *
        *                                                           *
        *************************************************************


0 sent ACK to 0 
now end server 0 ... 
