Process 0 of 1 is on cl015.stfx.acenet.ca - thread support 1
initial socket setup ...start
initial socket setup ...done 
now start server 0 ... 

cmd = /usr/bin/ssh clhead /usr/local/qchem/bin/get_hostid 831918588 > /scratch/tmp/6065265.1.short.q/qchem29299/lic.dat
                  Welcome to Q-Chem
     A Quantum Leap Into The Future Of Chemistry

 Y. Shao, L. Fusti-Molnar, Y. Jung, J. Kussmann, C. Ochsenfeld,
 S. T. Brown, A. T. B. Gilbert, L. V. Slipchenko,S. V. Levchenko,
 D. P. O'Neill, R. A. DiStasio Jr., R. C. Lochan, T. Wang,
 G. J. O. Beran, N. A. Besley, J. M. Herbert, C. Y. Lin,
 T. Van Voorhis, S. H. Chien, A. Sodt, R. P. Steele, 
 V. A. Rassolov, P. E. Maslen, P. P. Korambath, R. D. Adamson,
 B. Austin, J. Baker, E. F. C. Byrd, H. Dachsel, R. J. Doerksen,
 A. Dreuw, B. D. Dunietz, A. D. Dutoi, T. R. Furlani,
 S. R. Gwaltney, A. Heyden, S. Hirata, C.-P. Hsu, G. Kedziora,
 R. Z. Khaliullin, P. Klunzinger, A. M. Lee, M. S. Lee, W. Liang,
 I. Lotan, N. Nair, B. Peters, E. I. Proynov, P. A. Pieniazek, 
 Y. M. Rhee, J. Ritchie, E. Rosta, C. D. Sherrill, 
 A. C. Simmonett, J. E. Subotnik, H. L. Woodcock III,
 W. Zhang, A. T. Bell, A. K. Chakraborty, D. M. Chipman,
 F. J. Keil, A. Warshel, W. J. Hehre, H. F. Schaefer III,
 J. Kong, A. I. Krylov, P. M. W. Gill, M. Head-Gordon,
 Q-Chem, Version 3.1, Q-Chem, Inc., Pittsburgh, PA (2007).

 Additional authors for Version 3.1: 
 Z. Gan, Y. Zhao, N. E. Schultz, D. Truhlar, E. Epifanovsky and M. Oana.

 Additional authors for Version 3.2: 
 R. Baer, B. R. Brooks, D. Casanova, J.-D. Chai, C.-L. Cheng, 
 C. Cramer, D. Crittenden, A. Ghysels, G. Hawkins, E. G. Hohenstein, 
 C. Kelley, W. Kurlancheek, D. Liotard, E. Livshits, P. Manohar, 
 A. Marenich, D. Neuhauser, R. Olson, M. A. Rohrdanz, K. S. Thanthiriwatte, 
 A. J. W. Thom, V. Vanovschi, C. F. Williams, Q. Wu and Z.-Q. You. 


 Intel X86 Linux Version

 Q-chem begins on Mon Jul  8 16:57:50 2013  

 Parallel job on  1  processors
Processing $rem in /usr/local/qchem/config/preferences.

theFileMan(): MAXOPENFILES=974 MAX_SUB_FILE_NUM=16
Maximum size of a physical file is 2.0 GB, maximum size of a tmp-file is 32.0 GB


--------------------------------------------------------------
User input:
--------------------------------------------------------------

$molecule
-1,2
N          0.00000        0.00000        1.83618
C          0.00000        0.00000        0.69391
C          0.00000        0.00000       -0.69391
N          0.00000        0.00000       -1.83618
$end

$comment
negative
$end

$xc_functional
C PBE   1.00
X wPBE  1.00
$end

$rem
SYMMETRY_DECOMPOSITION	0
exchange 		general
LRC_DFT                 true
BASIS                   g3large
omega			370
mem_static              760
max_scf_cycles          200
scf_final_print         1
sym_ignore              true
$end

--------------------------------------------------------------
 Writing REM_CC_EA            4
 ----------------------------------------------------
       Standard Nuclear Orientation (Angstroms)
    I     Atom         X            Y            Z
 ----------------------------------------------------
    1      N       0.000000     0.000000     1.836180
    2      C       0.000000     0.000000     0.693910
    3      C       0.000000     0.000000    -0.693910
    4      N       0.000000     0.000000    -1.836180
 ----------------------------------------------------
 Nuclear Repulsion Energy =    77.2710182365 hartrees
 There are       14 alpha and       13 beta electrons
 Requested basis set is G3large
 There are 40 shells and 168 basis functions

Total QAlloc Memory Limit   2000 MB
Mega-Array Size       743 MB
MEM_STATIC part       760 MB

                       Distance Matrix (Angstroms)
             N (  1)   C (  2)   C (  3)
   C (  2)  1.142270
   C (  3)  2.530090  1.387820
   N (  4)  3.672360  2.530090  1.142270
 
 A cutoff of  1.0D-08 yielded    716 shell pairs
 There are  12995 function pairs ( 17001 Cartesian)
Evaluating contribution to one-electron hamiltonian from nuclear
 Smallest overlap matrix eigenvalue = 9.69E-06

 Q-Chem warning in module mkSTV.C, line 194:

 Overlap eigenvalue is smaller than square root of threshold

 Multipole matrices computed through 2nd order

  Scale SEOQF with 1.000000e-01/1.000000e-01/1.000000e-01

 Standard Electronic Orientation quadrupole field applied
 Nucleus-field energy     =    -0.0000000057 hartrees
 Guess from superposition of atomic densities
 Warning:  Energy on first SCF cycle will be non-variational
 Long-range K will be added via erf
 Coulomb attenuation parameter = 0.37 bohr**(-1)
 An unrestricted Kohn-Sham SCF calculation will be
 performed using Pulay DIIS extrapolation
 Exchange:  wPBE + LR-HF      Correlation:  PBE
 Using SG-1 standard quadrature grid
 SCF converges when DIIS error is below 1.0E-05
 Requested basis set is G3large
 There are 40 shells and 168 basis functions
 A cutoff of  1.0D-08 yielded    716 shell pairs
 There are  12995 function pairs ( 17001 Cartesian)
 Warning!  Inaccurate integrated density:
   Number of electrons =    27
   Numerical integral  =    26.000074941606
   Relative error      =    -3.7034261422 %
 ---------------------------------------
  Cycle       Energy         DIIS Error
 ---------------------------------------
    1    -186.2865098789      3.75E-02
    2    -185.3906192225      6.58E-03
    3    -185.3510473138      8.42E-03
    4    -185.5493657579      7.34E-04
    5    -185.5520820748      2.99E-04
    6    -185.5527785450      5.61E-05
    7    -185.5528613390      1.52E-05
    8    -185.5528673191      4.48E-06 Convergence criterion met
 ---------------------------------------
 One-Electron    Energy =  -409.4631379934
 Total Coulomb   Energy =   171.3367224466
 Alpha Exchange  Energy =    -2.6173568684
 Beta  Exchange  Energy =    -2.4357003582
 DFT   Exchange  Energy =   -18.7690482050
 DFT Correlation Energy =    -0.8753645715
 Nuclear Repu.   Energy =    77.2710182308
 Nuclear Attr.   Energy =  -594.7994486798
 Kinetic         Energy =   185.3363106864
 <S^2> = 0.7626
 SCF time:  CPU 63.11 s  wall 63.53 s
 Final Alpha MO Eigenvalues
            1           2           3           4           5           6
    1 -13.9635696 -13.9635152  -9.9214935  -9.9209748  -0.8462880  -0.8241662
            7           8           9          10          11          12
    1  -0.6004895  -0.3384271  -0.3237635  -0.3009085  -0.2871494  -0.2553040
           13          14          15          16          17          18
    1  -0.2324664  -0.0061646   0.1947046   0.2052664   0.2403634   0.2603326
           19
    1   0.2608467
 Final Beta MO Eigenvalues
            1           2           3           4           5           6
    1 -13.9568530 -13.9567947  -9.9204998  -9.9200411  -0.8365689  -0.8146635
            7           8           9          10          11          12
    1  -0.5800143  -0.3199165  -0.3022692  -0.2875001  -0.2751690  -0.2275504
           13          14          15          16          17          18
    1  -0.2088044   0.1954151   0.2058556   0.2467703   0.2579045   0.2624706
 Analysis of SCF Wavefunction
 
 --------------------------------------------------------------
                    Orbital Energies (a.u.)
 --------------------------------------------------------------
 
 Alpha MOs
 -- Occupied --
-13.964 -13.964  -9.921  -9.921  -0.846  -0.824  -0.600  -0.338
 -0.324  -0.301  -0.287  -0.255  -0.232  -0.006
 -- Virtual --
  0.195   0.205   0.240   0.260   0.261   0.273   0.275   0.312
  0.318   0.411   0.412   0.415   0.425   0.427   0.429   0.446
  0.490   0.502   0.522   0.566   0.779   0.789   0.789   0.833
  0.834   0.892   0.897   0.921   0.966   1.044   1.045   1.083
  1.095   1.105   1.109   1.112   1.164   1.167   1.227   1.231
  1.245   1.422   1.423   1.488   1.608   1.609   1.626   1.694
  1.696   1.862   2.004   2.005   2.314   2.327   2.340   2.341
  2.359   2.660   2.945   2.945   2.950   2.951   2.963   2.964
  2.966   3.064   3.066   3.167   3.169   3.184   3.185   3.404
  3.405   3.419   3.419   3.488   3.490   3.495   3.533   3.722
  3.723   3.773   3.774   3.945   3.945   3.985   3.985   4.129
  4.132   4.225   4.276   4.279   4.415   4.516   4.517   4.702
  4.865   4.866   4.940   4.991   4.991   5.076   5.077   5.140
  5.141   5.335   5.404   5.406   5.552   5.553   6.033   6.229
  6.229   6.802   7.207   7.208   7.231   8.503  24.641  25.026
 27.532  27.532  27.726  27.727  28.913  30.385  36.317  37.175
 37.671  37.674  38.039  38.041  38.503  38.637  40.660  40.669
 40.767  40.773  40.783  40.852  40.854  41.016  41.029  41.044
 41.045  41.270  41.283  41.296  41.466  41.466  41.542  41.542
 41.867  41.909
 
 Beta MOs
 -- Occupied --
-13.957 -13.957  -9.920  -9.920  -0.837  -0.815  -0.580  -0.320
 -0.302  -0.288  -0.275  -0.228  -0.209
 -- Virtual --
  0.195   0.206   0.247   0.258   0.262   0.273   0.276   0.276
  0.315   0.318   0.417   0.423   0.427   0.430   0.431   0.436
  0.448   0.492   0.526   0.542   0.573   0.789   0.791   0.801
  0.847   0.847   0.892   0.901   0.923   0.971   1.049   1.049
  1.090   1.100   1.114   1.118   1.127   1.172   1.184   1.235
  1.253   1.254   1.444   1.444   1.494   1.626   1.626   1.634
  1.697   1.712   1.868   2.009   2.024   2.318   2.334   2.342
  2.354   2.367   2.672   2.954   2.954   2.959   2.961   2.965
  2.975   2.981   3.065   3.078   3.168   3.180   3.192   3.192
  3.414   3.414   3.423   3.423   3.489   3.501   3.502   3.538
  3.735   3.736   3.776   3.790   3.967   3.967   4.006   4.006
  4.140   4.162   4.233   4.285   4.306   4.425   4.530   4.531
  4.712   4.869   4.887   4.949   5.005   5.005   5.109   5.110
  5.172   5.172   5.342   5.410   5.428   5.556   5.572   6.037
  6.232   6.248   6.808   7.211   7.228   7.237   8.507  24.642
 25.027  27.532  27.536  27.727  27.731  28.914  30.386  36.325
 37.184  37.679  37.690  38.046  38.058  38.507  38.641  40.676
 40.685  40.770  40.790  40.798  40.855  40.866  41.019  41.032
 41.047  41.058  41.272  41.286  41.299  41.466  41.469  41.542
 41.546  41.870  41.910
 --------------------------------------------------------------
 
          Ground-State Mulliken Net Atomic Charges

     Atom                 Charge (a.u.)    Spin (a.u.)
  --------------------------------------------------------
      1 N                    -0.579075       0.370780
      2 C                     0.079075       0.129220
      3 C                     0.079083       0.129222
      4 N                    -0.579082       0.370777
  --------------------------------------------------------
  Sum of atomic charges =    -1.000000
  Sum of spin   charges =     1.000000

 -----------------------------------------------------------------
                    Cartesian Multipole Moments
 -----------------------------------------------------------------
    Charge (ESU x 10^10)
                -4.8032
    Dipole Moment (Debye)
         X       0.0000      Y       0.0000      Z       0.0000
       Tot       0.0000
    Quadrupole Moments (Debye-Ang)
        XX     -24.9400     XY      -1.0251     YY     -24.9371
        XZ      -0.0001     YZ       0.0000     ZZ     -47.7048
    Octapole Moments (Debye-Ang^2)
       XXX       0.0000    XXY       0.0000    XYY       0.0000
       YYY       0.0000    XXZ       0.0000    XYZ       0.0000
       YYZ       0.0000    XZZ       0.0000    YZZ       0.0000
       ZZZ       0.0002
    Hexadecapole Moments (Debye-Ang^3)
      XXXX     -31.4623   XXXY      -1.6859   XXYY     -10.4859
      XYYY      -1.6859   YYYY     -31.4528   XXXZ      -0.0001
      XXYZ       0.0000   XYYZ       0.0000   YYYZ      -0.0001
      XXZZ     -64.7023   XYZZ      -2.8145   YYZZ     -64.6944
      XZZZ      -0.0005   YZZZ      -0.0004   ZZZZ    -455.4826
 -----------------------------------------------------------------
 Total job time:  63.76s(wall), 63.33s(cpu) 
 Mon Jul  8 16:58:54 2013

        *************************************************************
        *                                                           *
        *  Thank you very much for using Q-Chem.  Have a nice day.  *
        *                                                           *
        *************************************************************


0 sent ACK to 0 
now end server 0 ... 
 
**********************************************************************
Job 2 of 3 
**********************************************************************
 
Process 0 of 1 is on cl015.stfx.acenet.ca - thread support 1
initial socket setup ...start
initial socket setup ...done 
now start server 0 ... 

cmd = /usr/bin/ssh clhead /usr/local/qchem/bin/get_hostid 1924655675 > /scratch/tmp/6065265.1.short.q/qchem29299/lic.dat
                  Welcome to Q-Chem
     A Quantum Leap Into The Future Of Chemistry

 Y. Shao, L. Fusti-Molnar, Y. Jung, J. Kussmann, C. Ochsenfeld,
 S. T. Brown, A. T. B. Gilbert, L. V. Slipchenko,S. V. Levchenko,
 D. P. O'Neill, R. A. DiStasio Jr., R. C. Lochan, T. Wang,
 G. J. O. Beran, N. A. Besley, J. M. Herbert, C. Y. Lin,
 T. Van Voorhis, S. H. Chien, A. Sodt, R. P. Steele, 
 V. A. Rassolov, P. E. Maslen, P. P. Korambath, R. D. Adamson,
 B. Austin, J. Baker, E. F. C. Byrd, H. Dachsel, R. J. Doerksen,
 A. Dreuw, B. D. Dunietz, A. D. Dutoi, T. R. Furlani,
 S. R. Gwaltney, A. Heyden, S. Hirata, C.-P. Hsu, G. Kedziora,
 R. Z. Khaliullin, P. Klunzinger, A. M. Lee, M. S. Lee, W. Liang,
 I. Lotan, N. Nair, B. Peters, E. I. Proynov, P. A. Pieniazek, 
 Y. M. Rhee, J. Ritchie, E. Rosta, C. D. Sherrill, 
 A. C. Simmonett, J. E. Subotnik, H. L. Woodcock III,
 W. Zhang, A. T. Bell, A. K. Chakraborty, D. M. Chipman,
 F. J. Keil, A. Warshel, W. J. Hehre, H. F. Schaefer III,
 J. Kong, A. I. Krylov, P. M. W. Gill, M. Head-Gordon,
 Q-Chem, Version 3.1, Q-Chem, Inc., Pittsburgh, PA (2007).

 Additional authors for Version 3.1: 
 Z. Gan, Y. Zhao, N. E. Schultz, D. Truhlar, E. Epifanovsky and M. Oana.

 Additional authors for Version 3.2: 
 R. Baer, B. R. Brooks, D. Casanova, J.-D. Chai, C.-L. Cheng, 
 C. Cramer, D. Crittenden, A. Ghysels, G. Hawkins, E. G. Hohenstein, 
 C. Kelley, W. Kurlancheek, D. Liotard, E. Livshits, P. Manohar, 
 A. Marenich, D. Neuhauser, R. Olson, M. A. Rohrdanz, K. S. Thanthiriwatte, 
 A. J. W. Thom, V. Vanovschi, C. F. Williams, Q. Wu and Z.-Q. You. 


 Intel X86 Linux Version

 Q-chem begins on Mon Jul  8 16:58:57 2013  

 Parallel job on  1  processors
Processing $rem in /usr/local/qchem/config/preferences.

theFileMan(): MAXOPENFILES=974 MAX_SUB_FILE_NUM=16
Maximum size of a physical file is 2.0 GB, maximum size of a tmp-file is 32.0 GB


--------------------------------------------------------------
User input:
--------------------------------------------------------------

$molecule
0,1
N          0.00000        0.00000        1.83618
C          0.00000        0.00000        0.69391
C          0.00000        0.00000       -0.69391
N          0.00000        0.00000       -1.83618
$end

$comment
neutral
$end

$xc_functional
C PBE   1.00
X wPBE  1.00
$end


$rem
SYMMETRY_DECOMPOSITION	0
LRC_DFT                 true
exchange 		general
BASIS                   g3large
omega			370
mem_static              760
max_scf_cycles          200
scf_final_print         1
sym_ignore              true
$end

--------------------------------------------------------------
 Writing REM_CC_EA            4
 ----------------------------------------------------
       Standard Nuclear Orientation (Angstroms)
    I     Atom         X            Y            Z
 ----------------------------------------------------
    1      N       0.000000     0.000000     1.836180
    2      C       0.000000     0.000000     0.693910
    3      C       0.000000     0.000000    -0.693910
    4      N       0.000000     0.000000    -1.836180
 ----------------------------------------------------
 Nuclear Repulsion Energy =    77.2710182365 hartrees
 There are       13 alpha and       13 beta electrons
 Requested basis set is G3large
 There are 40 shells and 168 basis functions

Total QAlloc Memory Limit   2000 MB
Mega-Array Size       743 MB
MEM_STATIC part       760 MB

                       Distance Matrix (Angstroms)
             N (  1)   C (  2)   C (  3)
   C (  2)  1.142270
   C (  3)  2.530090  1.387820
   N (  4)  3.672360  2.530090  1.142270
 
 A cutoff of  1.0D-08 yielded    716 shell pairs
 There are  12995 function pairs ( 17001 Cartesian)
Evaluating contribution to one-electron hamiltonian from nuclear
 Smallest overlap matrix eigenvalue = 9.69E-06

 Q-Chem warning in module mkSTV.C, line 194:

 Overlap eigenvalue is smaller than square root of threshold

 Multipole matrices computed through 2nd order

  Scale SEOQF with 1.000000e-01/1.000000e-01/1.000000e-01

 Standard Electronic Orientation quadrupole field applied
 Nucleus-field energy     =    -0.0000000057 hartrees
 Guess from superposition of atomic densities
 Warning:  Energy on first SCF cycle will be non-variational
 Long-range K will be added via erf
 Coulomb attenuation parameter = 0.37 bohr**(-1)
 A restricted Kohn-Sham SCF calculation will be
 performed using Pulay DIIS extrapolation
 Exchange:  wPBE + LR-HF      Correlation:  PBE
 Using SG-1 standard quadrature grid
 SCF converges when DIIS error is below 1.0E-05
 Requested basis set is G3large
 There are 40 shells and 168 basis functions
 A cutoff of  1.0D-08 yielded    716 shell pairs
 There are  12995 function pairs ( 17001 Cartesian)
 ---------------------------------------
  Cycle       Energy         DIIS Error
 ---------------------------------------
    1    -186.2865098789      3.75E-02
    2    -185.4306145898      5.65E-03
    3    -185.3242002519      9.02E-03
    4    -185.5445909284      4.46E-04
    5    -185.5465547805      1.45E-04
    6    -185.5468928121      4.29E-05
    7    -185.5469011299      1.00E-05
    8    -185.5469068555      2.33E-06 Convergence criterion met
 ---------------------------------------
 One-Electron    Energy =  -402.4167142837
 Total Coulomb   Energy =   163.9758496384
 Alpha Exchange  Energy =    -2.4494407164
 Beta  Exchange  Energy =    -2.4494407164
 DFT   Exchange  Energy =   -18.6354312574
 DFT Correlation Energy =    -0.8427477507
 Nuclear Repu.   Energy =    77.2710182308
 Nuclear Attr.   Energy =  -587.4360196591
 Kinetic         Energy =   185.0193053753
 SCF time:  CPU 49.52 s  wall 50.00 s
 Final Alpha MO Eigenvalues
            1           2           3           4           5           6
    1 -14.2558709 -14.2558056 -10.2007461 -10.2002767  -1.1159608  -1.0931257
            7           8           9          10          11          12
    1  -0.8756287  -0.5870413  -0.5870404  -0.5539844  -0.5414944  -0.4929966
           13          14          15          16          17          18
    1  -0.4929940  -0.0068911  -0.0068907   0.0483881   0.0755288   0.0999931
 Analysis of SCF Wavefunction
 
 --------------------------------------------------------------
                    Orbital Energies (a.u.)
 --------------------------------------------------------------
 
 Alpha MOs
 -- Occupied --
-14.256 -14.256 -10.201 -10.200  -1.116  -1.093  -0.876  -0.587
 -0.587  -0.554  -0.541  -0.493  -0.493
 -- Virtual --
 -0.007  -0.007   0.048   0.076   0.100   0.100   0.133   0.133
  0.149   0.166   0.215   0.215   0.228   0.253   0.253   0.261
  0.290   0.316   0.324   0.324   0.371   0.557   0.567   0.567
  0.590   0.590   0.673   0.673   0.712   0.752   0.797   0.797
  0.869   0.882   0.892   0.892   0.908   0.955   0.955   0.976
  0.976   1.000   1.185   1.185   1.226   1.370   1.370   1.401
  1.446   1.446   1.628   1.762   1.762   2.074   2.085   2.107
  2.107   2.124   2.401   2.678   2.678   2.681   2.681   2.693
  2.693   2.700   2.801   2.801   2.905   2.905   2.918   2.918
  3.135   3.135   3.155   3.155   3.223   3.223   3.237   3.267
  3.450   3.450   3.504   3.504   3.688   3.688   3.727   3.727
  3.868   3.868   3.956   4.015   4.015   4.153   4.253   4.253
  4.435   4.594   4.594   4.673   4.728   4.728   4.814   4.814
  4.876   4.876   5.075   5.144   5.144   5.294   5.294   5.768
  5.957   5.957   6.530   6.937   6.937   6.955   8.229  24.362
 24.748  27.253  27.253  27.448  27.448  28.633  30.107  36.028
 36.886  37.383  37.383  37.751  37.751  38.212  38.346  40.371
 40.380  40.480  40.483  40.493  40.563  40.563  40.737  40.750
 40.755  40.755  40.986  41.004  41.018  41.186  41.186  41.262
 41.262  41.581  41.625
 --------------------------------------------------------------
 
          Ground-State Mulliken Net Atomic Charges

     Atom                 Charge (a.u.)
  ----------------------------------------
      1 N                    -0.286476
      2 C                     0.286464
      3 C                     0.286450
      4 N                    -0.286439
  ----------------------------------------
  Sum of atomic charges =     0.000000

 -----------------------------------------------------------------
                    Cartesian Multipole Moments
 -----------------------------------------------------------------
    Charge (ESU x 10^10)
                 0.0000
    Dipole Moment (Debye)
         X       0.0000      Y       0.0000      Z      -0.0002
       Tot       0.0002
    Quadrupole Moments (Debye-Ang)
        XX     -20.8574     XY       0.0000     YY     -20.8574
        XZ       0.0000     YZ       0.0000     ZZ     -30.3038
    Octapole Moments (Debye-Ang^2)
       XXX       0.0000    XXY       0.0000    XYY       0.0000
       YYY       0.0000    XXZ       0.0000    XYZ       0.0000
       YYZ       0.0000    XZZ       0.0000    YZZ       0.0000
       ZZZ      -0.0010
    Hexadecapole Moments (Debye-Ang^3)
      XXXX     -20.2964   XXXY       0.0000   XXYY      -6.7655
      XYYY       0.0000   YYYY     -20.2964   XXXZ       0.0000
      XXYZ       0.0000   XYYZ       0.0000   YYYZ       0.0000
      XXZZ     -50.4599   XYZZ       0.0002   YYZZ     -50.4599
      XZZZ       0.0000   YZZZ       0.0000   ZZZZ    -332.5525
 -----------------------------------------------------------------
 Total job time:  50.21s(wall), 49.72s(cpu) 
 Mon Jul  8 16:59:47 2013

        *************************************************************
        *                                                           *
        *  Thank you very much for using Q-Chem.  Have a nice day.  *
        *                                                           *
        *************************************************************


0 sent ACK to 0 
now end server 0 ... 
 
**********************************************************************
Job 3 of 3 
**********************************************************************
 
Process 0 of 1 is on cl015.stfx.acenet.ca - thread support 1
initial socket setup ...start
initial socket setup ...done 
now start server 0 ... 

cmd = /usr/bin/ssh clhead /usr/local/qchem/bin/get_hostid 834340686 > /scratch/tmp/6065265.1.short.q/qchem29299/lic.dat
                  Welcome to Q-Chem
     A Quantum Leap Into The Future Of Chemistry

 Y. Shao, L. Fusti-Molnar, Y. Jung, J. Kussmann, C. Ochsenfeld,
 S. T. Brown, A. T. B. Gilbert, L. V. Slipchenko,S. V. Levchenko,
 D. P. O'Neill, R. A. DiStasio Jr., R. C. Lochan, T. Wang,
 G. J. O. Beran, N. A. Besley, J. M. Herbert, C. Y. Lin,
 T. Van Voorhis, S. H. Chien, A. Sodt, R. P. Steele, 
 V. A. Rassolov, P. E. Maslen, P. P. Korambath, R. D. Adamson,
 B. Austin, J. Baker, E. F. C. Byrd, H. Dachsel, R. J. Doerksen,
 A. Dreuw, B. D. Dunietz, A. D. Dutoi, T. R. Furlani,
 S. R. Gwaltney, A. Heyden, S. Hirata, C.-P. Hsu, G. Kedziora,
 R. Z. Khaliullin, P. Klunzinger, A. M. Lee, M. S. Lee, W. Liang,
 I. Lotan, N. Nair, B. Peters, E. I. Proynov, P. A. Pieniazek, 
 Y. M. Rhee, J. Ritchie, E. Rosta, C. D. Sherrill, 
 A. C. Simmonett, J. E. Subotnik, H. L. Woodcock III,
 W. Zhang, A. T. Bell, A. K. Chakraborty, D. M. Chipman,
 F. J. Keil, A. Warshel, W. J. Hehre, H. F. Schaefer III,
 J. Kong, A. I. Krylov, P. M. W. Gill, M. Head-Gordon,
 Q-Chem, Version 3.1, Q-Chem, Inc., Pittsburgh, PA (2007).

 Additional authors for Version 3.1: 
 Z. Gan, Y. Zhao, N. E. Schultz, D. Truhlar, E. Epifanovsky and M. Oana.

 Additional authors for Version 3.2: 
 R. Baer, B. R. Brooks, D. Casanova, J.-D. Chai, C.-L. Cheng, 
 C. Cramer, D. Crittenden, A. Ghysels, G. Hawkins, E. G. Hohenstein, 
 C. Kelley, W. Kurlancheek, D. Liotard, E. Livshits, P. Manohar, 
 A. Marenich, D. Neuhauser, R. Olson, M. A. Rohrdanz, K. S. Thanthiriwatte, 
 A. J. W. Thom, V. Vanovschi, C. F. Williams, Q. Wu and Z.-Q. You. 


 Intel X86 Linux Version

 Q-chem begins on Mon Jul  8 16:59:50 2013  

 Parallel job on  1  processors
Processing $rem in /usr/local/qchem/config/preferences.

theFileMan(): MAXOPENFILES=974 MAX_SUB_FILE_NUM=16
Maximum size of a physical file is 2.0 GB, maximum size of a tmp-file is 32.0 GB


--------------------------------------------------------------
User input:
--------------------------------------------------------------

$molecule
1,2
N          0.00000        0.00000        1.83618
C          0.00000        0.00000        0.69391
C          0.00000        0.00000       -0.69391
N          0.00000        0.00000       -1.83618
$end

$comment
positive
$end

$xc_functional
C PBE   1.00
X wPBE  1.00
$end

$rem
SYMMETRY_DECOMPOSITION	0
LRC_DFT                 true
exchange 		general
BASIS                   g3large
omega			370
mem_static              760
max_scf_cycles          200
scf_final_print         1
sym_ignore              true
$end

--------------------------------------------------------------
 Writing REM_CC_EA            4
 ----------------------------------------------------
       Standard Nuclear Orientation (Angstroms)
    I     Atom         X            Y            Z
 ----------------------------------------------------
    1      N       0.000000     0.000000     1.836180
    2      C       0.000000     0.000000     0.693910
    3      C       0.000000     0.000000    -0.693910
    4      N       0.000000     0.000000    -1.836180
 ----------------------------------------------------
 Nuclear Repulsion Energy =    77.2710182365 hartrees
 There are       13 alpha and       12 beta electrons
 Requested basis set is G3large
 There are 40 shells and 168 basis functions

Total QAlloc Memory Limit   2000 MB
Mega-Array Size       743 MB
MEM_STATIC part       760 MB

                       Distance Matrix (Angstroms)
             N (  1)   C (  2)   C (  3)
   C (  2)  1.142270
   C (  3)  2.530090  1.387820
   N (  4)  3.672360  2.530090  1.142270
 
 A cutoff of  1.0D-08 yielded    716 shell pairs
 There are  12995 function pairs ( 17001 Cartesian)
Evaluating contribution to one-electron hamiltonian from nuclear
 Smallest overlap matrix eigenvalue = 9.69E-06

 Q-Chem warning in module mkSTV.C, line 194:

 Overlap eigenvalue is smaller than square root of threshold

 Multipole matrices computed through 2nd order

  Scale SEOQF with 1.000000e-01/1.000000e-01/1.000000e-01

 Standard Electronic Orientation quadrupole field applied
 Nucleus-field energy     =    -0.0000000057 hartrees
 Guess from superposition of atomic densities
 Warning:  Energy on first SCF cycle will be non-variational
 Long-range K will be added via erf
 Coulomb attenuation parameter = 0.37 bohr**(-1)
 An unrestricted Kohn-Sham SCF calculation will be
 performed using Pulay DIIS extrapolation
 Exchange:  wPBE + LR-HF      Correlation:  PBE
 Using SG-1 standard quadrature grid
 SCF converges when DIIS error is below 1.0E-05
 Requested basis set is G3large
 There are 40 shells and 168 basis functions
 A cutoff of  1.0D-08 yielded    716 shell pairs
 There are  12995 function pairs ( 17001 Cartesian)
 Warning!  Inaccurate integrated density:
   Number of electrons =    25
   Numerical integral  =    26.000074941606
   Relative error      =     4.0002997664 %
 ---------------------------------------
  Cycle       Energy         DIIS Error
 ---------------------------------------
    1    -186.2865098789      3.75E-02
    2    -184.9275659983      4.63E-03
    3    -184.9247093454      6.35E-03
    4    -185.0415051812      6.52E-04
    5    -185.0448562564      2.41E-04
    6    -185.0458721318      6.77E-05
    7    -185.0460978649      1.66E-05
    8    -185.0461302162      7.38E-06 Convergence criterion met
 ---------------------------------------
 One-Electron    Energy =  -394.3578740185
 Total Coulomb   Energy =   156.0586223638
 Alpha Exchange  Energy =    -2.4647133294
 Beta  Exchange  Energy =    -2.2622837047
 DFT   Exchange  Energy =   -18.4906858977
 DFT Correlation Energy =    -0.8002138605
 Nuclear Repu.   Energy =    77.2710182308
 Nuclear Attr.   Energy =  -579.1738588322
 Kinetic         Energy =   184.8159848137
 <S^2> = 0.8002
 SCF time:  CPU 63.05 s  wall 63.96 s
 Final Alpha MO Eigenvalues
            1           2           3           4           5           6
    1 -14.5891454 -14.5890823 -10.5186972 -10.5182392  -1.4416245  -1.4247636
            7           8           9          10          11          12
    1  -1.1704699  -0.9024935  -0.8812328  -0.8465252  -0.8344835  -0.8270232
           13          14          15          16          17          18
    1  -0.7955198  -0.3087556  -0.2895060  -0.1216523  -0.0994476  -0.0830218
 Final Beta MO Eigenvalues
            1           2           3           4           5           6
    1 -14.5800754 -14.5800226 -10.5180109 -10.5174721  -1.4164679  -1.3927971
            7           8           9          10          11          12
    1  -1.1723025  -0.8767510  -0.8316813  -0.8251795  -0.8206107  -0.7842612
           13          14          15          16          17
    1  -0.5082581  -0.2839453  -0.2539596  -0.1211348  -0.0936543
 Analysis of SCF Wavefunction
 
 --------------------------------------------------------------
                    Orbital Energies (a.u.)
 --------------------------------------------------------------
 
 Alpha MOs
 -- Occupied --
-14.589 -14.589 -10.519 -10.518  -1.442  -1.425  -1.170  -0.902
 -0.881  -0.847  -0.834  -0.827  -0.796
 -- Virtual --
 -0.309  -0.290  -0.122  -0.099  -0.083  -0.069  -0.067  -0.066
 -0.034  -0.015  -0.012  -0.010   0.044   0.086   0.086   0.090
  0.135   0.145   0.152   0.156   0.197   0.317   0.326   0.326
  0.329   0.336   0.433   0.442   0.494   0.520   0.522   0.522
  0.623   0.644   0.645   0.657   0.683   0.691   0.701   0.716
  0.729   0.744   0.905   0.905   0.936   1.096   1.096   1.153
  1.155   1.172   1.375   1.487   1.500   1.810   1.811   1.842
  1.856   1.866   2.119   2.384   2.386   2.386   2.386   2.405
  2.408   2.412   2.502   2.512   2.609   2.620   2.622   2.622
  2.835   2.835   2.845   2.846   2.907   2.925   2.945   2.975
  3.152   3.152   3.182   3.201   3.376   3.376   3.417   3.417
  3.541   3.569   3.647   3.693   3.718   3.854   3.946   3.947
  4.133   4.281   4.297   4.371   4.429   4.429   4.482   4.483
  4.542   4.542   4.787   4.830   4.853   4.986   5.007   5.467
  5.632   5.652   6.222   6.613   6.634   6.642   7.920  24.047
 24.433  26.935  26.939  27.129  27.134  28.317  29.790  35.695
 36.553  37.040  37.054  37.407  37.422  37.884  38.018  40.030
 40.039  40.139  40.152  40.157  40.223  40.237  40.415  40.418
 40.429  40.431  40.664  40.686  40.699  40.865  40.869  40.941
 40.945  41.257  41.304
 
 Beta MOs
 -- Occupied --
-14.580 -14.580 -10.518 -10.517  -1.416  -1.393  -1.172  -0.877
 -0.832  -0.825  -0.821  -0.784
 -- Virtual --
 -0.508  -0.284  -0.254  -0.121  -0.094  -0.068  -0.066  -0.064
 -0.049  -0.032  -0.012  -0.009  -0.008   0.044   0.089   0.091
  0.091   0.136   0.147   0.157   0.158   0.200   0.317   0.327
  0.329   0.331   0.335   0.441   0.443   0.499   0.529   0.540
  0.541   0.632   0.650   0.658   0.658   0.698   0.707   0.711
  0.732   0.735   0.749   0.928   0.930   0.945   1.113   1.114
  1.164   1.177   1.179   1.380   1.500   1.501   1.816   1.822
  1.859   1.861   1.876   2.125   2.391   2.391   2.392   2.393
  2.407   2.411   2.415   2.508   2.511   2.618   2.620   2.631
  2.631   2.840   2.841   2.862   2.863   2.928   2.929   2.954
  2.980   3.157   3.157   3.204   3.206   3.411   3.412   3.450
  3.451   3.579   3.589   3.660   3.727   3.734   3.869   3.966
  3.968   4.147   4.300   4.302   4.384   4.445   4.446   4.528
  4.533   4.588   4.592   4.794   4.858   4.865   5.011   5.016
  5.475   5.656   5.659   6.230   6.638   6.642   6.649   7.926
 24.048  24.434  26.938  26.938  27.133  27.133  28.317  29.791
 35.706  36.567  37.061  37.066  37.429  37.434  37.890  38.023
 40.052  40.061  40.158  40.165  40.174  40.239  40.242  40.420
 40.431  40.433  40.434  40.667  40.687  40.701  40.868  40.869
 40.945  40.945  41.261  41.306
 --------------------------------------------------------------
 
          Ground-State Mulliken Net Atomic Charges

     Atom                 Charge (a.u.)    Spin (a.u.)
  --------------------------------------------------------
      1 N                     0.016188       0.446491
      2 C                     0.483824       0.053522
      3 C                     0.483816       0.053489
      4 N                     0.016172       0.446498
  --------------------------------------------------------
  Sum of atomic charges =     1.000000
  Sum of spin   charges =     1.000000

 -----------------------------------------------------------------
                    Cartesian Multipole Moments
 -----------------------------------------------------------------
    Charge (ESU x 10^10)
                 4.8032
    Dipole Moment (Debye)
         X       0.0000      Y       0.0000      Z       0.0002
       Tot       0.0002
    Quadrupole Moments (Debye-Ang)
        XX     -17.9297     XY      -0.6044     YY     -17.9287
        XZ       0.0071     YZ      -0.0071     ZZ     -15.0418
    Octapole Moments (Debye-Ang^2)
       XXX       0.0000    XXY       0.0000    XYY       0.0000
       YYY       0.0000    XXZ       0.0000    XYZ       0.0000
       YYZ       0.0000    XZZ       0.0000    YZZ       0.0000
       ZZZ       0.0005
    Hexadecapole Moments (Debye-Ang^3)
      XXXX     -15.1006   XXXY      -0.3896   XXYY      -5.0335
      XYYY      -0.3896   YYYY     -15.0993   XXXZ       0.0057
      XXYZ      -0.0019   XYYZ       0.0019   YYYZ      -0.0057
      XXZZ     -41.3905   XYZZ      -1.6665   YYZZ     -41.3877
      XZZZ       0.0394   YZZZ      -0.0395   ZZZZ    -248.8293
 -----------------------------------------------------------------
 Total job time:  64.18s(wall), 63.26s(cpu) 
 Mon Jul  8 17:00:54 2013

        *************************************************************
        *                                                           *
        *  Thank you very much for using Q-Chem.  Have a nice day.  *
        *                                                           *
        *************************************************************


0 sent ACK to 0 
now end server 0 ... 
