Process 0 of 1 is on cl051.dal.acenet.ca - thread support 1
initial socket setup ...start
initial socket setup ...done 
now start server 0 ... 

cmd = /usr/bin/ssh glooscap.ace-net.ca /usr/local/qchem/bin/get_hostid 1859386008 > /tmp/179707.1.medium.q/qchem22474/lic.dat
                  Welcome to Q-Chem
     A Quantum Leap Into The Future Of Chemistry

 Y. Shao, L. Fusti-Molnar, Y. Jung, J. Kussmann, C. Ochsenfeld,
 S. T. Brown, A. T. B. Gilbert, L. V. Slipchenko,S. V. Levchenko,
 D. P. O'Neill, R. A. DiStasio Jr., R. C. Lochan, T. Wang,
 G. J. O. Beran, N. A. Besley, J. M. Herbert, C. Y. Lin,
 T. Van Voorhis, S. H. Chien, A. Sodt, R. P. Steele, 
 V. A. Rassolov, P. E. Maslen, P. P. Korambath, R. D. Adamson,
 B. Austin, J. Baker, E. F. C. Byrd, H. Dachsel, R. J. Doerksen,
 A. Dreuw, B. D. Dunietz, A. D. Dutoi, T. R. Furlani,
 S. R. Gwaltney, A. Heyden, S. Hirata, C.-P. Hsu, G. Kedziora,
 R. Z. Khaliullin, P. Klunzinger, A. M. Lee, M. S. Lee, W. Liang,
 I. Lotan, N. Nair, B. Peters, E. I. Proynov, P. A. Pieniazek, 
 Y. M. Rhee, J. Ritchie, E. Rosta, C. D. Sherrill, 
 A. C. Simmonett, J. E. Subotnik, H. L. Woodcock III,
 W. Zhang, A. T. Bell, A. K. Chakraborty, D. M. Chipman,
 F. J. Keil, A. Warshel, W. J. Hehre, H. F. Schaefer III,
 J. Kong, A. I. Krylov, P. M. W. Gill, M. Head-Gordon,
 Q-Chem, Version 3.1, Q-Chem, Inc., Pittsburgh, PA (2007).

 Additional authors for Version 3.1: 
 Z. Gan, Y. Zhao, N. E. Schultz, D. Truhlar, E. Epifanovsky and M. Oana.

 Additional authors for Version 3.2: 
 R. Baer, B. R. Brooks, D. Casanova, J.-D. Chai, C.-L. Cheng, 
 C. Cramer, D. Crittenden, A. Ghysels, G. Hawkins, E. G. Hohenstein, 
 C. Kelley, W. Kurlancheek, D. Liotard, E. Livshits, P. Manohar, 
 A. Marenich, D. Neuhauser, R. Olson, M. A. Rohrdanz, K. S. Thanthiriwatte, 
 A. J. W. Thom, V. Vanovschi, C. F. Williams, Q. Wu and Z.-Q. You. 


 Intel X86 Linux Version

 Q-chem begins on Mon Apr 11 23:25:55 2011  

 Parallel job on  1  processors
Processing $rem in /usr/local/qchem/config/preferences.

theFileMan(): MAXOPENFILES=974 MAX_SUB_FILE_NUM=16
Maximum size of a physical file is 2.0 GB, maximum size of a tmp-file is 32.0 GB


--------------------------------------------------------------
User input:
--------------------------------------------------------------

$molecule
-1,2
 C        25.045259       23.435011       24.198259
 C        23.883123       22.987669       23.571693
 C        22.952639       23.894247       23.036823
 C        23.225454       25.266073       23.167511
 C        24.388231       25.712584       23.794245
 C        25.325571       24.806040       24.316170
 H        25.746307       22.708881       24.618103
 H        23.683336       21.915379       23.505596
 H        22.506229       25.992571       22.782879
 H        24.569353       26.785936       23.895315
 H        21.333246       24.090744       21.797949
 H        21.790066       22.505487       22.079519
 H        26.780706       26.185043       24.738384
 H        27.238531       24.598999       25.019846
 N        26.464031       25.257441       25.008450
 N        21.747786       23.445486       22.464247

$end

$comment
negative
$end

$xc_functional
   X HF 1.0
   X BNL 1.0
   C LYP 1.0
$end

$rem
SYMMETRY_DECOMPOSITION	0
exchange 		general
BASIS                   g3large
omega			240
separate_jk		true
mem_static              760
max_scf_cycles          200
scf_final_print         1
sym_ignore              true
$end

--------------------------------------------------------------
 Writing REM_CC_EA           16
 ----------------------------------------------------
       Standard Nuclear Orientation (Angstroms)
    I     Atom         X            Y            Z
 ----------------------------------------------------
    1      C      25.045259    23.435011    24.198259
    2      C      23.883123    22.987669    23.571693
    3      C      22.952639    23.894247    23.036823
    4      C      23.225454    25.266073    23.167511
    5      C      24.388231    25.712584    23.794245
    6      C      25.325571    24.806040    24.316170
    7      H      25.746307    22.708881    24.618103
    8      H      23.683336    21.915379    23.505596
    9      H      22.506229    25.992571    22.782879
   10      H      24.569353    26.785936    23.895315
   11      H      21.333246    24.090744    21.797949
   12      H      21.790066    22.505487    22.079519
   13      H      26.780706    26.185043    24.738384
   14      H      27.238531    24.598999    25.019846
   15      N      26.464031    25.257441    25.008450
   16      N      21.747786    23.445486    22.464247
 ----------------------------------------------------
 Nuclear Repulsion Energy =   343.4676084748 hartrees
 There are       30 alpha and       29 beta electrons
 Requested basis set is G3large
 There are 128 shells and 416 basis functions

Total QAlloc Memory Limit   2000 MB
Mega-Array Size       743 MB
MEM_STATIC part       760 MB
 A cutoff of  1.0D-08 yielded   6564 shell pairs
 There are  69935 function pairs ( 87064 Cartesian)
Evaluating contribution to one-electron hamiltonian from nuclear
 Smallest overlap matrix eigenvalue = 7.45E-07

 Q-Chem warning in module mkSTV.C, line 194:

 Overlap eigenvalue is smaller than square root of threshold

 Linear dependence detected in AO basis
 Number of orthogonalized atomic orbitals = 415
 Maximum deviation from orthogonality = 8.255E-11
 Multipole matrices computed through 2nd order

  Scale SEOQF with 1.000000e-03/1.000000e-03/1.000000e-03

 Standard Electronic Orientation quadrupole field applied
 Nucleus-field energy     =     0.0000000019 hartrees
 Guess from superposition of atomic densities
 Warning:  Energy on first SCF cycle will be non-variational
 An unrestricted hybrid HF-DFT SCF calculation will be
 performed using Pulay DIIS extrapolation
 Exchange:     1.0000 Hartree-Fock + 1.0000 BNL
 Correlation:  1.0000 LYP
 Using SG-1 standard quadrature grid
 SCF converges when DIIS error is below 1.0E-05
 Warning!  Inaccurate integrated density:
   Number of electrons =    59
   Numerical integral  =    58.000465635056
   Relative error      =    -1.6941260423 %
 ---------------------------------------
  Cycle       Energy         DIIS Error
 ---------------------------------------
    1    -341.2428529944      2.49E-02
    2    -338.4537568700      3.15E-03
    3    -338.3337594350      4.07E-03
    4    -338.7226232962      3.83E-04
    5    -338.7262791564      2.86E-04
    6    -338.7285258413      7.89E-05
    7    -338.7295748072      5.14E-05
    8    -338.7304476743      4.29E-05
    9    -338.7312542733      3.38E-05
   10    -338.7321828065      1.77E-05
   11    -338.7328423463      1.50E-05
   12    -338.7330121765      1.56E-05
   13    -338.7329971182      1.55E-05
   14    -338.7332167894      1.67E-05
   15    -338.7331920256      1.67E-05
   16    -338.7327853462      1.29E-05
   17    -338.7326832908      1.18E-05
   18    -338.7327821284      9.78E-06 Convergence criterion met
 ---------------------------------------
 One-Electron    Energy = -1149.3146155470
 Total Coulomb   Energy =   512.0359709262
 Alpha Exchange  Energy =    -3.7594852867
 Beta  Exchange  Energy =    -3.7069343608
 DFT   Exchange  Energy =   -35.4925011809
 DFT Correlation Energy =    -1.9628251558
 Nuclear Repu.   Energy =   343.4676084767
 Nuclear Attr.   Energy = -1486.5492612957
 Kinetic         Energy =   337.2346457487
 <S^2> = 0.7501
 SCF time:  CPU 2636.55 s  wall 2639.49 s
 Final Alpha MO Eigenvalues
            1           2           3           4           5           6
    1 -13.8398308 -13.8384258  -9.8061404  -9.8058529  -9.7713692  -9.7710322
            7           8           9          10          11          12
    1  -9.7709025  -9.7707243  -0.8465476  -0.8351144  -0.7580529  -0.6861015
           13          14          15          16          17          18
    1  -0.6479427  -0.5682981  -0.5415180  -0.4802451  -0.4740399  -0.4422600
           19          20          21          22          23          24
    1  -0.4223966  -0.3863332  -0.3731161  -0.3638564  -0.3608505  -0.3332308
           25          26          27          28          29          30
    1  -0.3060111  -0.2898088  -0.2297770  -0.2180809  -0.1372796   0.0347820
           31          32          33          34          35
    1   0.0909868   0.1232707   0.1333460   0.1356275   0.1564624
 Final Beta MO Eigenvalues
            1           2           3           4           5           6
    1 -13.8391298 -13.8377072  -9.8061271  -9.8058387  -9.7712775  -9.7709160
            7           8           9          10          11          12
    1  -9.7708054  -9.7706082  -0.8460415  -0.8344275  -0.7575966  -0.6859397
           13          14          15          16          17          18
    1  -0.6473573  -0.5680482  -0.5409054  -0.4796884  -0.4734277  -0.4412499
           19          20          21          22          23          24
    1  -0.4214096  -0.3860406  -0.3728825  -0.3636879  -0.3604810  -0.3329135
           25          26          27          28          29          30
    1  -0.3055957  -0.2895832  -0.2291937  -0.2180018  -0.1368913   0.1117648
           31          32          33          34
    1   0.1187713   0.1194693   0.1335787   0.1380933
 Analysis of SCF Wavefunction
 
 --------------------------------------------------------------
                    Orbital Energies (a.u.)
 --------------------------------------------------------------
 
 Alpha MOs
 -- Occupied --
-13.840 -13.838  -9.806  -9.806  -9.771  -9.771  -9.771  -9.771
 -0.847  -0.835  -0.758  -0.686  -0.648  -0.568  -0.542  -0.480
 -0.474  -0.442  -0.422  -0.386  -0.373  -0.364  -0.361  -0.333
 -0.306  -0.290  -0.230  -0.218  -0.137   0.035
 -- Virtual --
  0.091   0.123   0.133   0.136   0.156   0.169   0.173   0.177
  0.197   0.202   0.221   0.221   0.228   0.231   0.239   0.247
  0.248   0.261   0.266   0.268   0.277   0.289   0.293   0.295
  0.295   0.308   0.311   0.324   0.324   0.326   0.332   0.341
  0.353   0.361   0.364   0.369   0.372   0.388   0.390   0.393
  0.407   0.410   0.425   0.439   0.442   0.448   0.448   0.462
  0.463   0.464   0.486   0.529   0.536   0.554   0.556   0.608
  0.645   0.667   0.692   0.695   0.696   0.707   0.707   0.708
  0.718   0.726   0.764   0.771   0.771   0.785   0.793   0.796
  0.798   0.809   0.814   0.836   0.836   0.850   0.854   0.855
  0.864   0.880   0.892   0.893   0.906   0.920   0.932   0.945
  0.949   0.955   0.957   0.975   0.989   0.990   1.006   1.012
  1.016   1.035   1.036   1.106   1.111   1.114   1.143   1.180
  1.191   1.220   1.232   1.247   1.248   1.256   1.263   1.268
  1.292   1.310   1.317   1.355   1.369   1.369   1.409   1.420
  1.441   1.446   1.458   1.461   1.480   1.490   1.504   1.515
  1.515   1.521   1.583   1.584   1.600   1.625   1.627   1.651
  1.664   1.679   1.713   1.747   1.788   1.827   1.863   1.891
  1.898   1.911   1.940   1.957   1.966   1.986   1.993   2.022
  2.041   2.062   2.073   2.097   2.185   2.309   2.393   2.403
  2.494   2.600   2.679   2.712   2.716   2.753   2.784   2.805
  2.819   2.865   2.886   2.891   2.908   2.937   2.940   2.945
  2.947   2.958   2.984   2.991   3.002   3.027   3.030   3.041
  3.049   3.077   3.085   3.102   3.120   3.149   3.202   3.234
  3.240   3.260   3.281   3.303   3.338   3.338   3.357   3.358
  3.378   3.378   3.383   3.395   3.427   3.428   3.429   3.481
  3.496   3.535   3.539   3.540   3.557   3.561   3.577   3.588
  3.608   3.616   3.647   3.658   3.702   3.706   3.710   3.720
  3.736   3.795   3.815   3.820   3.836   3.843   3.865   3.880
  3.918   3.923   3.948   3.988   4.019   4.044   4.050   4.057
  4.064   4.089   4.111   4.118   4.138   4.151   4.154   4.159
  4.166   4.233   4.258   4.280   4.283   4.327   4.409   4.417
  4.448   4.483   4.492   4.504   4.520   4.535   4.548   4.564
  4.590   4.609   4.622   4.649   4.659   4.663   4.701   4.717
  4.769   4.799   4.845   4.856   4.952   4.971   4.978   5.020
  5.065   5.071   5.137   5.165   5.174   5.228   5.282   5.323
  5.352   5.397   5.399   5.402   5.432   5.453   5.516   5.522
  5.579   5.709   5.709   5.753   5.825   5.840   5.941   5.953
  5.976   6.034   6.110   6.207   6.471   6.543   6.551   6.575
  6.644  23.973  24.510  24.554  24.793  24.797  25.284  27.314
 27.472  27.498  27.566  27.572  27.786  28.017  28.135  28.155
 28.299  28.327  28.328  28.561  28.585  28.656  28.683  28.719
 29.234  36.006  36.035  37.649  37.679  38.355  38.370  38.534
 38.630  40.595  40.610  40.640  40.658  40.759  40.761  40.795
 40.805  40.859  40.863  40.910  40.911  40.944  40.955  40.958
 40.962  40.967  40.981  41.043  41.075  41.177  41.181  41.243
 41.256  41.267  41.282  41.291  41.296  41.305  41.306  41.319
 41.333  41.377  41.411  41.438  41.444  41.506  41.536  41.591
 41.618
 
 Beta MOs
 -- Occupied --
-13.839 -13.838  -9.806  -9.806  -9.771  -9.771  -9.771  -9.771
 -0.846  -0.834  -0.758  -0.686  -0.647  -0.568  -0.541  -0.480
 -0.473  -0.441  -0.421  -0.386  -0.373  -0.364  -0.360  -0.333
 -0.306  -0.290  -0.229  -0.218  -0.137
 -- Virtual --
  0.112   0.119   0.119   0.134   0.138   0.155   0.163   0.170
  0.176   0.193   0.193   0.217   0.219   0.224   0.228   0.235
  0.243   0.243   0.254   0.261   0.264   0.271   0.285   0.287
  0.289   0.291   0.302   0.307   0.316   0.317   0.322   0.327
  0.337   0.348   0.355   0.356   0.365   0.368   0.384   0.387
  0.387   0.401   0.406   0.420   0.435   0.439   0.442   0.444
  0.458   0.459   0.460   0.486   0.527   0.535   0.552   0.554
  0.606   0.645   0.665   0.691   0.693   0.695   0.706   0.706
  0.706   0.716   0.724   0.761   0.768   0.770   0.782   0.792
  0.794   0.797   0.807   0.813   0.834   0.834   0.848   0.853
  0.854   0.864   0.879   0.892   0.892   0.905   0.919   0.931
  0.944   0.948   0.953   0.955   0.974   0.987   0.990   1.005
  1.012   1.015   1.034   1.035   1.106   1.112   1.114   1.143
  1.180   1.191   1.220   1.232   1.247   1.249   1.256   1.263
  1.269   1.292   1.310   1.317   1.354   1.369   1.369   1.409
  1.420   1.440   1.446   1.458   1.462   1.480   1.489   1.504
  1.515   1.515   1.521   1.583   1.584   1.601   1.625   1.626
  1.651   1.663   1.678   1.713   1.747   1.787   1.828   1.863
  1.891   1.898   1.911   1.940   1.957   1.966   1.986   1.993
  2.022   2.041   2.062   2.073   2.097   2.185   2.309   2.393
  2.403   2.494   2.600   2.679   2.712   2.716   2.753   2.784
  2.805   2.819   2.865   2.886   2.891   2.907   2.937   2.940
  2.945   2.947   2.957   2.984   2.991   3.002   3.027   3.030
  3.041   3.049   3.077   3.085   3.102   3.120   3.149   3.202
  3.234   3.240   3.260   3.281   3.303   3.338   3.338   3.358
  3.358   3.378   3.378   3.383   3.395   3.427   3.428   3.429
  3.481   3.496   3.536   3.539   3.540   3.557   3.561   3.578
  3.588   3.608   3.616   3.648   3.658   3.703   3.706   3.710
  3.720   3.736   3.795   3.815   3.821   3.836   3.843   3.865
  3.880   3.919   3.923   3.948   3.989   4.019   4.044   4.050
  4.057   4.065   4.089   4.111   4.118   4.138   4.152   4.154
  4.160   4.166   4.234   4.259   4.280   4.283   4.327   4.409
  4.417   4.448   4.483   4.492   4.504   4.520   4.535   4.548
  4.564   4.591   4.609   4.622   4.649   4.660   4.663   4.702
  4.717   4.770   4.800   4.846   4.856   4.953   4.971   4.978
  5.020   5.066   5.071   5.137   5.166   5.174   5.229   5.282
  5.323   5.353   5.397   5.400   5.403   5.433   5.454   5.516
  5.522   5.579   5.709   5.710   5.753   5.826   5.841   5.942
  5.953   5.976   6.035   6.110   6.208   6.472   6.544   6.552
  6.576   6.644  23.973  24.510  24.554  24.794  24.797  25.284
 27.314  27.472  27.498  27.566  27.572  27.787  28.017  28.135
 28.156  28.299  28.328  28.328  28.561  28.585  28.656  28.683
 28.719  29.234  36.007  36.036  37.649  37.679  38.356  38.370
 38.535  38.631  40.595  40.611  40.641  40.659  40.760  40.762
 40.795  40.806  40.859  40.864  40.911  40.911  40.944  40.955
 40.958  40.962  40.967  40.981  41.043  41.075  41.178  41.181
 41.243  41.256  41.267  41.282  41.291  41.296  41.305  41.306
 41.319  41.333  41.377  41.411  41.438  41.444  41.506  41.536
 41.591  41.618
 --------------------------------------------------------------
 
          Ground-State Mulliken Net Atomic Charges

     Atom                 Charge (a.u.)    Spin (a.u.)
  --------------------------------------------------------
      1 C                     0.294261      -0.305326
      2 C                     0.337544      -0.336337
      3 C                    -0.136026      -0.280582
      4 C                     0.419774      -0.435461
      5 C                     0.470529      -0.476074
      6 C                    -0.113693      -0.306207
      7 H                    -0.085291       0.246519
      8 H                    -0.092213       0.254130
      9 H                    -0.023905       0.182777
     10 H                    -0.074972       0.235470
     11 H                    -0.370464       0.571323
     12 H                    -0.423461       0.629103
     13 H                    -0.420600       0.624629
     14 H                    -0.449230       0.654678
     15 N                    -0.162430      -0.132607
     16 N                    -0.169824      -0.126036
  --------------------------------------------------------
  Sum of atomic charges =    -1.000000
  Sum of spin   charges =     1.000000

 -----------------------------------------------------------------
                    Cartesian Multipole Moments
 -----------------------------------------------------------------
    Charge (ESU x 10^10)
                -4.8032
    Dipole Moment (Debye)
         X    -117.0723      Y    -116.7473      Z    -113.1381
       Tot     200.3399
    Quadrupole Moments (Debye-Ang)
        XX   -2967.5616     XY   -2862.9129     YY   -2914.9918
        XZ   -2780.5630     YZ   -2759.5893     ZZ   -2747.8275
    Octapole Moments (Debye-Ang^2)
       XXX  -77860.9505    XXY  -72974.7127    XYY  -71883.3184
       YYY  -74616.9856    XXZ  -71015.4383    XYZ  -68224.4904
       YYZ  -69129.3556    XZZ  -68038.3530    YZZ  -67242.7322
       ZZZ  -68630.7145
    Hexadecapole Moments (Debye-Ang^3)
      XXXX ************   XXXY ************   XXYY ************
      XYYY ************   YYYY ************   XXXZ ************
      XXYZ ************   XYYZ ************   YYYZ ************
      XXZZ ************   XYZZ ************   YYZZ ************
      XZZZ ************   YZZZ ************   ZZZZ ************
 -----------------------------------------------------------------
 Total job time:  2641.09s(wall), 2638.12s(cpu) 
 Tue Apr 12 00:09:56 2011

        *************************************************************
        *                                                           *
        *  Thank you very much for using Q-Chem.  Have a nice day.  *
        *                                                           *
        *************************************************************


0 sent ACK to 0 
now end server 0 ... 
 
**********************************************************************
Job 2 of 3 
**********************************************************************
 
Process 0 of 1 is on cl051.dal.acenet.ca - thread support 1
initial socket setup ...start
initial socket setup ...done 
now start server 0 ... 

cmd = /usr/bin/ssh glooscap.ace-net.ca /usr/local/qchem/bin/get_hostid 1870293686 > /tmp/179707.1.medium.q/qchem22474/lic.dat
                  Welcome to Q-Chem
     A Quantum Leap Into The Future Of Chemistry

 Y. Shao, L. Fusti-Molnar, Y. Jung, J. Kussmann, C. Ochsenfeld,
 S. T. Brown, A. T. B. Gilbert, L. V. Slipchenko,S. V. Levchenko,
 D. P. O'Neill, R. A. DiStasio Jr., R. C. Lochan, T. Wang,
 G. J. O. Beran, N. A. Besley, J. M. Herbert, C. Y. Lin,
 T. Van Voorhis, S. H. Chien, A. Sodt, R. P. Steele, 
 V. A. Rassolov, P. E. Maslen, P. P. Korambath, R. D. Adamson,
 B. Austin, J. Baker, E. F. C. Byrd, H. Dachsel, R. J. Doerksen,
 A. Dreuw, B. D. Dunietz, A. D. Dutoi, T. R. Furlani,
 S. R. Gwaltney, A. Heyden, S. Hirata, C.-P. Hsu, G. Kedziora,
 R. Z. Khaliullin, P. Klunzinger, A. M. Lee, M. S. Lee, W. Liang,
 I. Lotan, N. Nair, B. Peters, E. I. Proynov, P. A. Pieniazek, 
 Y. M. Rhee, J. Ritchie, E. Rosta, C. D. Sherrill, 
 A. C. Simmonett, J. E. Subotnik, H. L. Woodcock III,
 W. Zhang, A. T. Bell, A. K. Chakraborty, D. M. Chipman,
 F. J. Keil, A. Warshel, W. J. Hehre, H. F. Schaefer III,
 J. Kong, A. I. Krylov, P. M. W. Gill, M. Head-Gordon,
 Q-Chem, Version 3.1, Q-Chem, Inc., Pittsburgh, PA (2007).

 Additional authors for Version 3.1: 
 Z. Gan, Y. Zhao, N. E. Schultz, D. Truhlar, E. Epifanovsky and M. Oana.

 Additional authors for Version 3.2: 
 R. Baer, B. R. Brooks, D. Casanova, J.-D. Chai, C.-L. Cheng, 
 C. Cramer, D. Crittenden, A. Ghysels, G. Hawkins, E. G. Hohenstein, 
 C. Kelley, W. Kurlancheek, D. Liotard, E. Livshits, P. Manohar, 
 A. Marenich, D. Neuhauser, R. Olson, M. A. Rohrdanz, K. S. Thanthiriwatte, 
 A. J. W. Thom, V. Vanovschi, C. F. Williams, Q. Wu and Z.-Q. You. 


 Intel X86 Linux Version

 Q-chem begins on Tue Apr 12 00:10:17 2011  

 Parallel job on  1  processors
Processing $rem in /usr/local/qchem/config/preferences.

theFileMan(): MAXOPENFILES=974 MAX_SUB_FILE_NUM=16
Maximum size of a physical file is 2.0 GB, maximum size of a tmp-file is 32.0 GB


--------------------------------------------------------------
User input:
--------------------------------------------------------------

$molecule
0,1
 C        25.045259       23.435011       24.198259
 C        23.883123       22.987669       23.571693
 C        22.952639       23.894247       23.036823
 C        23.225454       25.266073       23.167511
 C        24.388231       25.712584       23.794245
 C        25.325571       24.806040       24.316170
 H        25.746307       22.708881       24.618103
 H        23.683336       21.915379       23.505596
 H        22.506229       25.992571       22.782879
 H        24.569353       26.785936       23.895315
 H        21.333246       24.090744       21.797949
 H        21.790066       22.505487       22.079519
 H        26.780706       26.185043       24.738384
 H        27.238531       24.598999       25.019846
 N        26.464031       25.257441       25.008450
 N        21.747786       23.445486       22.464247

$end

$comment
neutral
$end

$xc_functional
   X HF 1.0
   X BNL 1.0
   C LYP 1.0
$end

$rem
SYMMETRY_DECOMPOSITION	0
exchange 		general
BASIS                   g3large
omega			240
separate_jk		true
mem_static              760
max_scf_cycles          200
scf_final_print         1
sym_ignore              true
$end

--------------------------------------------------------------
 Writing REM_CC_EA           16
 ----------------------------------------------------
       Standard Nuclear Orientation (Angstroms)
    I     Atom         X            Y            Z
 ----------------------------------------------------
    1      C      25.045259    23.435011    24.198259
    2      C      23.883123    22.987669    23.571693
    3      C      22.952639    23.894247    23.036823
    4      C      23.225454    25.266073    23.167511
    5      C      24.388231    25.712584    23.794245
    6      C      25.325571    24.806040    24.316170
    7      H      25.746307    22.708881    24.618103
    8      H      23.683336    21.915379    23.505596
    9      H      22.506229    25.992571    22.782879
   10      H      24.569353    26.785936    23.895315
   11      H      21.333246    24.090744    21.797949
   12      H      21.790066    22.505487    22.079519
   13      H      26.780706    26.185043    24.738384
   14      H      27.238531    24.598999    25.019846
   15      N      26.464031    25.257441    25.008450
   16      N      21.747786    23.445486    22.464247
 ----------------------------------------------------
 Nuclear Repulsion Energy =   343.4676084748 hartrees
 There are       29 alpha and       29 beta electrons
 Requested basis set is G3large
 There are 128 shells and 416 basis functions

Total QAlloc Memory Limit   2000 MB
Mega-Array Size       743 MB
MEM_STATIC part       760 MB
 A cutoff of  1.0D-08 yielded   6564 shell pairs
 There are  69935 function pairs ( 87064 Cartesian)
Evaluating contribution to one-electron hamiltonian from nuclear
 Smallest overlap matrix eigenvalue = 7.45E-07

 Q-Chem warning in module mkSTV.C, line 194:

 Overlap eigenvalue is smaller than square root of threshold

 Linear dependence detected in AO basis
 Number of orthogonalized atomic orbitals = 415
 Maximum deviation from orthogonality = 8.255E-11
 Multipole matrices computed through 2nd order

  Scale SEOQF with 1.000000e-03/1.000000e-03/1.000000e-03

 Standard Electronic Orientation quadrupole field applied
 Nucleus-field energy     =     0.0000000019 hartrees
 Guess from superposition of atomic densities
 Warning:  Energy on first SCF cycle will be non-variational
 A restricted hybrid HF-DFT SCF calculation will be
 performed using Pulay DIIS extrapolation
 Exchange:     1.0000 Hartree-Fock + 1.0000 BNL
 Correlation:  1.0000 LYP
 Using SG-1 standard quadrature grid
 SCF converges when DIIS error is below 1.0E-05
 ---------------------------------------
  Cycle       Energy         DIIS Error
 ---------------------------------------
    1    -341.2428529944      2.49E-02
    2    -338.6485508401      2.28E-03
    3    -338.7034420135      1.81E-03
    4    -338.7654876293      2.18E-04
    5    -338.7664131784      7.71E-05
    6    -338.7665319373      4.41E-05
    7    -338.7665577479      6.17E-06 Convergence criterion met
 ---------------------------------------
 One-Electron    Energy = -1142.7537306863
 Total Coulomb   Energy =   505.3645329771
 Alpha Exchange  Energy =    -3.7081340271
 Beta  Exchange  Energy =    -3.7081340271
 DFT   Exchange  Energy =   -35.4735294090
 DFT Correlation Energy =    -1.9551710522
 Nuclear Repu.   Energy =   343.4676084767
 Nuclear Attr.   Energy = -1479.8837639377
 Kinetic         Energy =   337.1300332514
 SCF time:  CPU 771.18 s  wall 772.44 s
 Final Alpha MO Eigenvalues
            1           2           3           4           5           6
    1 -13.9581772 -13.9580150  -9.9166207  -9.9165321  -9.8801707  -9.8800601
            7           8           9          10          11          12
    1  -9.8797588  -9.8796871  -0.9611230  -0.9514264  -0.8697500  -0.7944766
           13          14          15          16          17          18
    1  -0.7603417  -0.6787147  -0.6531639  -0.5916782  -0.5893870  -0.5564864
           19          20          21          22          23          24
    1  -0.5396956  -0.4952318  -0.4824983  -0.4739040  -0.4724669  -0.4438155
           25          26          27          28          29          30
    1  -0.4192674  -0.3985989  -0.3438399  -0.3255661  -0.2500453   0.0258471
           31          32          33          34
    1   0.0305300   0.0388305   0.0474221   0.0520398
 Analysis of SCF Wavefunction
 
 --------------------------------------------------------------
                    Orbital Energies (a.u.)
 --------------------------------------------------------------
 
 Alpha MOs
 -- Occupied --
-13.958 -13.958  -9.917  -9.917  -9.880  -9.880  -9.880  -9.880
 -0.961  -0.951  -0.870  -0.794  -0.760  -0.679  -0.653  -0.592
 -0.589  -0.556  -0.540  -0.495  -0.482  -0.474  -0.472  -0.444
 -0.419  -0.399  -0.344  -0.326  -0.250
 -- Virtual --
  0.026   0.031   0.039   0.047   0.052   0.056   0.073   0.083
  0.084   0.099   0.113   0.120   0.127   0.131   0.131   0.141
  0.151   0.155   0.164   0.164   0.171   0.178   0.190   0.191
  0.197   0.198   0.210   0.211   0.218   0.221   0.225   0.227
  0.236   0.248   0.257   0.267   0.268   0.271   0.284   0.289
  0.290   0.302   0.305   0.321   0.336   0.338   0.346   0.348
  0.356   0.360   0.361   0.377   0.425   0.431   0.444   0.448
  0.499   0.536   0.561   0.585   0.590   0.590   0.599   0.601
  0.603   0.610   0.615   0.654   0.657   0.664   0.675   0.684
  0.684   0.688   0.699   0.704   0.728   0.729   0.744   0.744
  0.744   0.758   0.771   0.782   0.785   0.794   0.807   0.824
  0.838   0.838   0.844   0.850   0.867   0.880   0.880   0.895
  0.903   0.906   0.927   0.927   0.995   0.996   1.003   1.034
  1.067   1.082   1.111   1.120   1.135   1.136   1.148   1.155
  1.156   1.182   1.195   1.206   1.248   1.256   1.256   1.297
  1.310   1.330   1.337   1.348   1.350   1.369   1.383   1.390
  1.402   1.407   1.413   1.473   1.473   1.485   1.512   1.518
  1.537   1.558   1.568   1.599   1.636   1.680   1.714   1.747
  1.783   1.787   1.796   1.831   1.844   1.854   1.874   1.878
  1.909   1.929   1.950   1.956   1.988   2.076   2.199   2.280
  2.290   2.384   2.489   2.569   2.600   2.603   2.645   2.675
  2.695   2.710   2.754   2.775   2.781   2.791   2.827   2.830
  2.835   2.836   2.850   2.875   2.881   2.892   2.917   2.922
  2.933   2.940   2.967   2.976   2.992   3.008   3.038   3.091
  3.124   3.130   3.150   3.171   3.192   3.227   3.229   3.248
  3.249   3.268   3.268   3.274   3.284   3.316   3.318   3.318
  3.369   3.386   3.425   3.430   3.431   3.443   3.451   3.462
  3.475   3.496   3.506   3.534   3.544   3.592   3.593   3.600
  3.610   3.622   3.683   3.704   3.708   3.723   3.731   3.754
  3.769   3.803   3.808   3.835   3.871   3.907   3.932   3.939
  3.947   3.950   3.978   3.999   4.006   4.027   4.033   4.042
  4.044   4.056   4.117   4.148   4.162   4.175   4.217   4.299
  4.306   4.337   4.372   4.378   4.391   4.411   4.425   4.437
  4.453   4.478   4.499   4.510   4.540   4.544   4.553   4.587
  4.608   4.657   4.684   4.734   4.740   4.839   4.860   4.863
  4.909   4.952   4.958   5.023   5.054   5.061   5.117   5.169
  5.209   5.234   5.282   5.282   5.286   5.320   5.338   5.404
  5.406   5.464   5.595   5.599   5.639   5.709   5.724   5.833
  5.841   5.861   5.922   5.999   6.094   6.354   6.423   6.432
  6.459   6.533  23.864  24.401  24.444  24.685  24.687  25.174
 27.205  27.363  27.388  27.456  27.463  27.677  27.907  28.026
 28.046  28.190  28.218  28.219  28.451  28.476  28.547  28.573
 28.609  29.125  35.887  35.916  37.530  37.560  38.236  38.251
 38.416  38.511  40.477  40.491  40.521  40.541  40.641  40.643
 40.677  40.686  40.740  40.744  40.800  40.801  40.835  40.845
 40.848  40.853  40.858  40.871  40.934  40.966  41.068  41.072
 41.133  41.146  41.158  41.173  41.182  41.187  41.196  41.197
 41.209  41.223  41.267  41.300  41.329  41.335  41.397  41.426
 41.482  41.509
 --------------------------------------------------------------
 
          Ground-State Mulliken Net Atomic Charges

     Atom                 Charge (a.u.)
  ----------------------------------------
      1 C                    -0.004441
      2 C                    -0.002018
      3 C                    -0.405726
      4 C                    -0.004180
      5 C                     0.000279
      6 C                    -0.405758
      7 H                     0.160536
      8 H                     0.160905
      9 H                     0.161162
     10 H                     0.160763
     11 H                     0.196187
     12 H                     0.196205
     13 H                     0.196467
     14 H                     0.196267
     15 N                    -0.303418
     16 N                    -0.303230
  ----------------------------------------
  Sum of atomic charges =     0.000000

 -----------------------------------------------------------------
                    Cartesian Multipole Moments
 -----------------------------------------------------------------
    Charge (ESU x 10^10)
                 0.0000
    Dipole Moment (Debye)
         X       0.9917      Y      -0.0345      Z      -1.8013
       Tot       2.0565
    Quadrupole Moments (Debye-Ang)
        XX       4.9913     XY      24.3832     YY     -43.7614
        XZ     -13.3260     YZ     -44.3424     ZZ    -136.7508
    Octapole Moments (Debye-Ang^2)
       XXX   -1343.5518    XXY     159.5905    XYY    -414.8279
       YYY   -3135.7030    XXZ    -616.5235    XYZ    -315.5375
       YYZ   -2091.3226    XZZ   -2444.4088    YZZ   -3340.3509
       ZZZ   -6700.1864
    Hexadecapole Moments (Debye-Ang^3)
      XXXX  -92047.7909   XXXY  -30941.9597   XXYY  -19793.7059
      XYYY  -59421.3188   YYYY -152078.0705   XXXZ  -46126.8429
      XXYZ  -14152.7288   XYYZ  -31603.6970   YYYZ  -99938.1746
      XXZZ  -62854.8030   XYZZ  -59428.2038   YYZZ -105457.7863
      XZZZ -138619.0802   YZZZ -163590.8688   ZZZZ -270499.9601
 -----------------------------------------------------------------
 Total job time:  773.93s(wall), 772.64s(cpu) 
 Tue Apr 12 00:23:11 2011

        *************************************************************
        *                                                           *
        *  Thank you very much for using Q-Chem.  Have a nice day.  *
        *                                                           *
        *************************************************************


0 sent ACK to 0 
now end server 0 ... 
 
**********************************************************************
Job 3 of 3 
**********************************************************************
 
Process 0 of 1 is on cl051.dal.acenet.ca - thread support 1
initial socket setup ...start
initial socket setup ...done 
now start server 0 ... 

cmd = /usr/bin/ssh glooscap.ace-net.ca /usr/local/qchem/bin/get_hostid 625138073 > /tmp/179707.1.medium.q/qchem22474/lic.dat
                  Welcome to Q-Chem
     A Quantum Leap Into The Future Of Chemistry

 Y. Shao, L. Fusti-Molnar, Y. Jung, J. Kussmann, C. Ochsenfeld,
 S. T. Brown, A. T. B. Gilbert, L. V. Slipchenko,S. V. Levchenko,
 D. P. O'Neill, R. A. DiStasio Jr., R. C. Lochan, T. Wang,
 G. J. O. Beran, N. A. Besley, J. M. Herbert, C. Y. Lin,
 T. Van Voorhis, S. H. Chien, A. Sodt, R. P. Steele, 
 V. A. Rassolov, P. E. Maslen, P. P. Korambath, R. D. Adamson,
 B. Austin, J. Baker, E. F. C. Byrd, H. Dachsel, R. J. Doerksen,
 A. Dreuw, B. D. Dunietz, A. D. Dutoi, T. R. Furlani,
 S. R. Gwaltney, A. Heyden, S. Hirata, C.-P. Hsu, G. Kedziora,
 R. Z. Khaliullin, P. Klunzinger, A. M. Lee, M. S. Lee, W. Liang,
 I. Lotan, N. Nair, B. Peters, E. I. Proynov, P. A. Pieniazek, 
 Y. M. Rhee, J. Ritchie, E. Rosta, C. D. Sherrill, 
 A. C. Simmonett, J. E. Subotnik, H. L. Woodcock III,
 W. Zhang, A. T. Bell, A. K. Chakraborty, D. M. Chipman,
 F. J. Keil, A. Warshel, W. J. Hehre, H. F. Schaefer III,
 J. Kong, A. I. Krylov, P. M. W. Gill, M. Head-Gordon,
 Q-Chem, Version 3.1, Q-Chem, Inc., Pittsburgh, PA (2007).

 Additional authors for Version 3.1: 
 Z. Gan, Y. Zhao, N. E. Schultz, D. Truhlar, E. Epifanovsky and M. Oana.

 Additional authors for Version 3.2: 
 R. Baer, B. R. Brooks, D. Casanova, J.-D. Chai, C.-L. Cheng, 
 C. Cramer, D. Crittenden, A. Ghysels, G. Hawkins, E. G. Hohenstein, 
 C. Kelley, W. Kurlancheek, D. Liotard, E. Livshits, P. Manohar, 
 A. Marenich, D. Neuhauser, R. Olson, M. A. Rohrdanz, K. S. Thanthiriwatte, 
 A. J. W. Thom, V. Vanovschi, C. F. Williams, Q. Wu and Z.-Q. You. 


 Intel X86 Linux Version

 Q-chem begins on Tue Apr 12 00:23:32 2011  

 Parallel job on  1  processors
Processing $rem in /usr/local/qchem/config/preferences.

theFileMan(): MAXOPENFILES=974 MAX_SUB_FILE_NUM=16
Maximum size of a physical file is 2.0 GB, maximum size of a tmp-file is 32.0 GB


--------------------------------------------------------------
User input:
--------------------------------------------------------------

$molecule
1,2
 C        25.045259       23.435011       24.198259
 C        23.883123       22.987669       23.571693
 C        22.952639       23.894247       23.036823
 C        23.225454       25.266073       23.167511
 C        24.388231       25.712584       23.794245
 C        25.325571       24.806040       24.316170
 H        25.746307       22.708881       24.618103
 H        23.683336       21.915379       23.505596
 H        22.506229       25.992571       22.782879
 H        24.569353       26.785936       23.895315
 H        21.333246       24.090744       21.797949
 H        21.790066       22.505487       22.079519
 H        26.780706       26.185043       24.738384
 H        27.238531       24.598999       25.019846
 N        26.464031       25.257441       25.008450
 N        21.747786       23.445486       22.464247

$end

$comment
positive
$end

$xc_functional
   X HF 1.0
   X BNL 1.0
   C LYP 1.0
$end

$rem
SYMMETRY_DECOMPOSITION	0
exchange 		general
BASIS                   g3large
omega			240
separate_jk		true
mem_static              760
max_scf_cycles          200
scf_final_print         1
sym_ignore              true
$end

--------------------------------------------------------------
 Writing REM_CC_EA           16
 ----------------------------------------------------
       Standard Nuclear Orientation (Angstroms)
    I     Atom         X            Y            Z
 ----------------------------------------------------
    1      C      25.045259    23.435011    24.198259
    2      C      23.883123    22.987669    23.571693
    3      C      22.952639    23.894247    23.036823
    4      C      23.225454    25.266073    23.167511
    5      C      24.388231    25.712584    23.794245
    6      C      25.325571    24.806040    24.316170
    7      H      25.746307    22.708881    24.618103
    8      H      23.683336    21.915379    23.505596
    9      H      22.506229    25.992571    22.782879
   10      H      24.569353    26.785936    23.895315
   11      H      21.333246    24.090744    21.797949
   12      H      21.790066    22.505487    22.079519
   13      H      26.780706    26.185043    24.738384
   14      H      27.238531    24.598999    25.019846
   15      N      26.464031    25.257441    25.008450
   16      N      21.747786    23.445486    22.464247
 ----------------------------------------------------
 Nuclear Repulsion Energy =   343.4676084748 hartrees
 There are       29 alpha and       28 beta electrons
 Requested basis set is G3large
 There are 128 shells and 416 basis functions

Total QAlloc Memory Limit   2000 MB
Mega-Array Size       743 MB
MEM_STATIC part       760 MB
 A cutoff of  1.0D-08 yielded   6564 shell pairs
 There are  69935 function pairs ( 87064 Cartesian)
Evaluating contribution to one-electron hamiltonian from nuclear
 Smallest overlap matrix eigenvalue = 7.45E-07

 Q-Chem warning in module mkSTV.C, line 194:

 Overlap eigenvalue is smaller than square root of threshold

 Linear dependence detected in AO basis
 Number of orthogonalized atomic orbitals = 415
 Maximum deviation from orthogonality = 8.255E-11
 Multipole matrices computed through 2nd order

  Scale SEOQF with 1.000000e-03/1.000000e-03/1.000000e-03

 Standard Electronic Orientation quadrupole field applied
 Nucleus-field energy     =     0.0000000019 hartrees
 Guess from superposition of atomic densities
 Warning:  Energy on first SCF cycle will be non-variational
 An unrestricted hybrid HF-DFT SCF calculation will be
 performed using Pulay DIIS extrapolation
 Exchange:     1.0000 Hartree-Fock + 1.0000 BNL
 Correlation:  1.0000 LYP
 Using SG-1 standard quadrature grid
 SCF converges when DIIS error is below 1.0E-05
 Warning!  Inaccurate integrated density:
   Number of electrons =    57
   Numerical integral  =    58.000465635056
   Relative error      =     1.7552028685 %
 ---------------------------------------
  Cycle       Energy         DIIS Error
 ---------------------------------------
    1    -341.2428529944      2.49E-02
    2    -338.4400728877      1.70E-03
    3    -338.4857260548      1.06E-03
    4    -338.5059690564      3.14E-04
    5    -338.5079865324      1.15E-04
    6    -338.5082501458      4.13E-05
    7    -338.5083032289      1.08E-05
    8    -338.5083055076      4.95E-06 Convergence criterion met
 ---------------------------------------
 One-Electron    Energy = -1131.1890234060
 Total Coulomb   Energy =   493.7415321127
 Alpha Exchange  Energy =    -3.7155811669
 Beta  Exchange  Energy =    -3.5802405000
 DFT   Exchange  Energy =   -35.3096207543
 DFT Correlation Energy =    -1.9229802698
 Nuclear Repu.   Energy =   343.4676084767
 Nuclear Attr.   Energy = -1468.0274198740
 Kinetic         Energy =   336.8383964680
 <S^2> = 0.7625
 SCF time:  CPU 1095.19 s  wall 1096.71 s
 Final Alpha MO Eigenvalues
            1           2           3           4           5           6
    1 -14.1752543 -14.1752218 -10.1356313 -10.1354720 -10.0804237 -10.0803101
            7           8           9          10          11          12
    1 -10.0800313 -10.0799686  -1.1683615  -1.1583566  -1.0747032  -0.9907988
           13          14          15          16          17          18
    1  -0.9688575  -0.8785750  -0.8515422  -0.7879373  -0.7874524  -0.7583911
           19          20          21          22          23          24
    1  -0.7358627  -0.6866722  -0.6817633  -0.6811333  -0.6639446  -0.6419131
           25          26          27          28          29          30
    1  -0.6323437  -0.5920471  -0.5538749  -0.5206520  -0.4642159  -0.1408370
           31          32          33          34
    1  -0.1252649  -0.0971141  -0.0927504  -0.0763080
 Final Beta MO Eigenvalues
            1           2           3           4           5           6
    1 -14.1697199 -14.1696826 -10.1327547 -10.1326063 -10.0795462 -10.0794317
            7           8           9          10          11          12
    1 -10.0791867 -10.0791401  -1.1611815  -1.1505554  -1.0684649  -0.9884432
           13          14          15          16          17          18
    1  -0.9583714  -0.8743832  -0.8472893  -0.7844413  -0.7841409  -0.7531484
           19          20          21          22          23          24
    1  -0.7311098  -0.6839309  -0.6778019  -0.6683761  -0.6626896  -0.6382760
           25          26          27          28          29          30
    1  -0.6080084  -0.5894642  -0.5173926  -0.5116916  -0.2668923  -0.1284087
           31          32          33
    1  -0.1044994  -0.0951855  -0.0920059
 Analysis of SCF Wavefunction
 
 --------------------------------------------------------------
                    Orbital Energies (a.u.)
 --------------------------------------------------------------
 
 Alpha MOs
 -- Occupied --
-14.175 -14.175 -10.136 -10.135 -10.080 -10.080 -10.080 -10.080
 -1.168  -1.158  -1.075  -0.991  -0.969  -0.879  -0.852  -0.788
 -0.787  -0.758  -0.736  -0.687  -0.682  -0.681  -0.664  -0.642
 -0.632  -0.592  -0.554  -0.521  -0.464
 -- Virtual --
 -0.141  -0.125  -0.097  -0.093  -0.076  -0.064  -0.056  -0.042
 -0.030  -0.028  -0.027  -0.012  -0.001   0.001   0.003   0.005
  0.025   0.027   0.033   0.041   0.042   0.047   0.047   0.049
  0.056   0.071   0.071   0.076   0.078   0.085   0.090   0.090
  0.095   0.105   0.122   0.124   0.131   0.133   0.139   0.143
  0.155   0.156   0.168   0.173   0.176   0.187   0.198   0.200
  0.208   0.210   0.213   0.223   0.266   0.270   0.274   0.276
  0.333   0.349   0.389   0.411   0.418   0.419   0.422   0.423
  0.432   0.435   0.439   0.484   0.487   0.488   0.504   0.507
  0.510   0.518   0.525   0.527   0.556   0.560   0.573   0.574
  0.579   0.582   0.596   0.603   0.613   0.614   0.631   0.654
  0.663   0.663   0.667   0.683   0.685   0.692   0.712   0.713
  0.715   0.734   0.745   0.751   0.817   0.822   0.829   0.857
  0.889   0.903   0.928   0.942   0.957   0.958   0.970   0.975
  0.979   1.005   1.018   1.024   1.075   1.079   1.084   1.116
  1.123   1.142   1.155   1.164   1.174   1.183   1.206   1.207
  1.221   1.224   1.229   1.289   1.292   1.307   1.335   1.344
  1.356   1.390   1.394   1.418   1.454   1.494   1.524   1.556
  1.601   1.603   1.607   1.647   1.657   1.663   1.684   1.689
  1.717   1.740   1.754   1.768   1.805   1.887   2.006   2.088
  2.097   2.197   2.287   2.366   2.407   2.409   2.455   2.481
  2.502   2.509   2.566   2.574   2.583   2.602   2.630   2.632
  2.635   2.639   2.659   2.676   2.681   2.693   2.720   2.724
  2.735   2.737   2.761   2.771   2.790   2.808   2.832   2.895
  2.923   2.932   2.951   2.970   2.989   3.024   3.032   3.044
  3.052   3.069   3.071   3.081   3.083   3.114   3.120   3.121
  3.165   3.187   3.222   3.229   3.236   3.247   3.256   3.266
  3.273   3.299   3.312   3.338   3.347   3.392   3.395   3.397
  3.416   3.423   3.487   3.505   3.505   3.525   3.530   3.554
  3.573   3.600   3.608   3.635   3.675   3.711   3.726   3.741
  3.745   3.758   3.784   3.799   3.810   3.834   3.838   3.846
  3.847   3.856   3.923   3.955   3.964   3.993   4.034   4.106
  4.109   4.140   4.176   4.177   4.195   4.222   4.233   4.244
  4.250   4.279   4.296   4.310   4.343   4.344   4.356   4.381
  4.415   4.458   4.484   4.534   4.543   4.635   4.654   4.665
  4.709   4.756   4.757   4.825   4.852   4.857   4.912   4.968
  5.003   5.022   5.071   5.073   5.074   5.122   5.135   5.199
  5.204   5.256   5.392   5.402   5.436   5.503   5.518   5.642
  5.645   5.656   5.721   5.795   5.900   6.151   6.225   6.234
  6.257   6.334  23.659  24.201  24.234  24.473  24.484  24.967
 26.997  27.162  27.173  27.241  27.262  27.469  27.700  27.818
 27.836  27.987  28.011  28.016  28.247  28.273  28.344  28.369
 28.402  28.920  35.670  35.699  37.309  37.339  38.022  38.037
 38.201  38.296  40.256  40.269  40.304  40.322  40.420  40.422
 40.458  40.467  40.525  40.529  40.584  40.586  40.630  40.636
 40.643  40.647  40.655  40.663  40.733  40.765  40.858  40.863
 40.917  40.930  40.956  40.970  40.981  40.984  40.988  40.992
 41.003  41.015  41.055  41.085  41.123  41.134  41.193  41.223
 41.276  41.303
 
 Beta MOs
 -- Occupied --
-14.170 -14.170 -10.133 -10.133 -10.080 -10.079 -10.079 -10.079
 -1.161  -1.151  -1.068  -0.988  -0.958  -0.874  -0.847  -0.784
 -0.784  -0.753  -0.731  -0.684  -0.678  -0.668  -0.663  -0.638
 -0.608  -0.589  -0.517  -0.512
 -- Virtual --
 -0.267  -0.128  -0.104  -0.095  -0.092  -0.076  -0.063  -0.056
 -0.041  -0.030  -0.027  -0.026  -0.010  -0.001   0.002   0.004
  0.006   0.027   0.028   0.033   0.042   0.043   0.048   0.049
  0.053   0.057   0.071   0.073   0.078   0.080   0.086   0.091
  0.092   0.096   0.106   0.124   0.124   0.132   0.136   0.141
  0.144   0.156   0.157   0.170   0.176   0.176   0.188   0.200
  0.202   0.210   0.212   0.215   0.223   0.268   0.271   0.277
  0.278   0.334   0.354   0.392   0.413   0.421   0.423   0.425
  0.426   0.437   0.437   0.441   0.487   0.490   0.491   0.508
  0.510   0.514   0.521   0.528   0.531   0.558   0.561   0.577
  0.577   0.581   0.584   0.598   0.607   0.616   0.619   0.635
  0.657   0.666   0.667   0.672   0.684   0.690   0.696   0.714
  0.717   0.718   0.736   0.750   0.753   0.821   0.823   0.831
  0.860   0.894   0.905   0.932   0.945   0.961   0.961   0.973
  0.976   0.981   1.007   1.022   1.026   1.079   1.079   1.086
  1.118   1.127   1.145   1.157   1.168   1.176   1.187   1.209
  1.210   1.225   1.226   1.231   1.293   1.296   1.310   1.339
  1.345   1.360   1.391   1.396   1.421   1.456   1.497   1.530
  1.562   1.604   1.604   1.613   1.650   1.661   1.670   1.688
  1.695   1.724   1.746   1.760   1.773   1.807   1.891   2.009
  2.093   2.100   2.199   2.293   2.373   2.411   2.414   2.458
  2.485   2.505   2.515   2.569   2.584   2.586   2.606   2.634
  2.639   2.640   2.644   2.663   2.680   2.686   2.698   2.722
  2.728   2.740   2.743   2.770   2.779   2.796   2.813   2.840
  2.898   2.928   2.936   2.955   2.974   2.994   3.030   3.036
  3.051   3.056   3.074   3.074   3.085   3.089   3.119   3.124
  3.124   3.172   3.191   3.229   3.236   3.240   3.252   3.259
  3.271   3.280   3.303   3.316   3.343   3.352   3.399   3.402
  3.404   3.419   3.429   3.492   3.510   3.512   3.532   3.538
  3.559   3.577   3.612   3.613   3.641   3.680   3.716   3.735
  3.746   3.755   3.760   3.788   3.804   3.815   3.837   3.844
  3.850   3.852   3.861   3.928   3.957   3.971   3.994   4.036
  4.110   4.112   4.144   4.181   4.183   4.199   4.225   4.236
  4.248   4.257   4.284   4.302   4.315   4.348   4.350   4.360
  4.390   4.417   4.463   4.491   4.539   4.548   4.641   4.662
  4.669   4.714   4.760   4.763   4.829   4.857   4.864   4.920
  4.973   5.013   5.037   5.084   5.085   5.089   5.130   5.142
  5.209   5.210   5.268   5.400   5.405   5.442   5.511   5.526
  5.645   5.647   5.662   5.726   5.799   5.903   6.157   6.231
  6.239   6.262   6.337  23.662  24.202  24.237  24.477  24.486
 24.969  27.000  27.163  27.178  27.246  27.263  27.473  27.701
 27.819  27.838  27.988  28.012  28.017  28.247  28.274  28.345
 28.370  28.403  28.921  35.678  35.706  37.319  37.349  38.026
 38.040  38.205  38.300  40.267  40.282  40.311  40.331  40.432
 40.434  40.467  40.477  40.530  40.535  40.589  40.590  40.632
 40.638  40.645  40.649  40.657  40.665  40.734  40.766  40.861
 40.865  40.921  40.935  40.958  40.972  40.982  40.986  40.990
 40.994  41.006  41.016  41.058  41.088  41.125  41.135  41.194
 41.224  41.277  41.304
 --------------------------------------------------------------
 
          Ground-State Mulliken Net Atomic Charges

     Atom                 Charge (a.u.)    Spin (a.u.)
  --------------------------------------------------------
      1 C                     0.057639       0.053140
      2 C                     0.060009       0.048689
      3 C                    -0.363033       0.175314
      4 C                     0.055561       0.053256
      5 C                     0.060763       0.048750
      6 C                    -0.365708       0.175048
      7 H                     0.208560      -0.002905
      8 H                     0.208630      -0.002630
      9 H                     0.209163      -0.002875
     10 H                     0.208515      -0.002659
     11 H                     0.239236      -0.001002
     12 H                     0.239412      -0.001045
     13 H                     0.239576      -0.001016
     14 H                     0.239410      -0.001039
     15 N                    -0.148814       0.230525
     16 N                    -0.148918       0.230450
  --------------------------------------------------------
  Sum of atomic charges =     1.000000
  Sum of spin   charges =     1.000000

 -----------------------------------------------------------------
                    Cartesian Multipole Moments
 -----------------------------------------------------------------
    Charge (ESU x 10^10)
                 4.8032
    Dipole Moment (Debye)
         X     116.8734      Y     116.9278      Z     112.0413
       Tot     199.7117
    Quadrupole Moments (Debye-Ang)
        XX    2823.0287     XY    2851.5009     YY    2816.0237
        XZ    2742.5700     YZ    2730.5917     ZZ    2571.5466
    Octapole Moments (Debye-Ang^2)
       XXX   67718.2248    XXY   69036.4183    XYY   68838.2275
       YYY   67070.0001    XXZ   66625.8445    XYZ   66985.5913
       YYZ   65824.0610    XZZ   63339.3534    YZZ   62740.7528
       ZZZ   57968.1533
    Hexadecapole Moments (Debye-Ang^3)
      XXXX 1613152.7619   XXXY 1660036.6494   XXYY 1670462.0540
      XYYY 1643807.6250   YYYY 1578286.3279   XXXZ 1607137.7527
      XXYZ 1630950.8429   XYYZ 1618606.1501   YYYZ 1568947.8130
      XXZZ 1547525.7364   XYZZ 1548646.1060   YYZZ 1513435.0917
      XZZZ 1437406.1821   YZZZ 1415852.0642   ZZZZ 1279290.0919
 -----------------------------------------------------------------
 Total job time:  1098.20s(wall), 1096.67s(cpu) 
 Tue Apr 12 00:41:51 2011

        *************************************************************
        *                                                           *
        *  Thank you very much for using Q-Chem.  Have a nice day.  *
        *                                                           *
        *************************************************************


0 sent ACK to 0 
now end server 0 ... 
