Process 0 of 1 is on cl030.stfx.acenet.ca - thread support 1
initial socket setup ...start
initial socket setup ...done 
now start server 0 ... 

cmd = /usr/bin/ssh clhead /usr/local/qchem/bin/get_hostid 636748731 > /scratch/tmp/5955454.1.short.q/qchem19102/lic.dat
                  Welcome to Q-Chem
     A Quantum Leap Into The Future Of Chemistry

 Y. Shao, L. Fusti-Molnar, Y. Jung, J. Kussmann, C. Ochsenfeld,
 S. T. Brown, A. T. B. Gilbert, L. V. Slipchenko,S. V. Levchenko,
 D. P. O'Neill, R. A. DiStasio Jr., R. C. Lochan, T. Wang,
 G. J. O. Beran, N. A. Besley, J. M. Herbert, C. Y. Lin,
 T. Van Voorhis, S. H. Chien, A. Sodt, R. P. Steele, 
 V. A. Rassolov, P. E. Maslen, P. P. Korambath, R. D. Adamson,
 B. Austin, J. Baker, E. F. C. Byrd, H. Dachsel, R. J. Doerksen,
 A. Dreuw, B. D. Dunietz, A. D. Dutoi, T. R. Furlani,
 S. R. Gwaltney, A. Heyden, S. Hirata, C.-P. Hsu, G. Kedziora,
 R. Z. Khaliullin, P. Klunzinger, A. M. Lee, M. S. Lee, W. Liang,
 I. Lotan, N. Nair, B. Peters, E. I. Proynov, P. A. Pieniazek, 
 Y. M. Rhee, J. Ritchie, E. Rosta, C. D. Sherrill, 
 A. C. Simmonett, J. E. Subotnik, H. L. Woodcock III,
 W. Zhang, A. T. Bell, A. K. Chakraborty, D. M. Chipman,
 F. J. Keil, A. Warshel, W. J. Hehre, H. F. Schaefer III,
 J. Kong, A. I. Krylov, P. M. W. Gill, M. Head-Gordon,
 Q-Chem, Version 3.1, Q-Chem, Inc., Pittsburgh, PA (2007).

 Additional authors for Version 3.1: 
 Z. Gan, Y. Zhao, N. E. Schultz, D. Truhlar, E. Epifanovsky and M. Oana.

 Additional authors for Version 3.2: 
 R. Baer, B. R. Brooks, D. Casanova, J.-D. Chai, C.-L. Cheng, 
 C. Cramer, D. Crittenden, A. Ghysels, G. Hawkins, E. G. Hohenstein, 
 C. Kelley, W. Kurlancheek, D. Liotard, E. Livshits, P. Manohar, 
 A. Marenich, D. Neuhauser, R. Olson, M. A. Rohrdanz, K. S. Thanthiriwatte, 
 A. J. W. Thom, V. Vanovschi, C. F. Williams, Q. Wu and Z.-Q. You. 


 Intel X86 Linux Version

 Q-chem begins on Tue Apr 30 20:52:19 2013  

 Parallel job on  1  processors
Processing $rem in /usr/local/qchem/config/preferences.

theFileMan(): MAXOPENFILES=974 MAX_SUB_FILE_NUM=16
Maximum size of a physical file is 2.0 GB, maximum size of a tmp-file is 32.0 GB


--------------------------------------------------------------
User input:
--------------------------------------------------------------

$molecule
-1,2
C
H,1,CH
H,1,CH,2,HCH

CH=1.11942218
HCH=100.2755497

$end

$comment
negative
$end

$xc_functional
C PBE   1.00
X wPBE  1.00
$end

$rem
SYMMETRY_DECOMPOSITION	0
exchange 		general
LRC_DFT                 true
BASIS                   g3large
omega			390
mem_static              760
max_scf_cycles          200
scf_final_print         1
sym_ignore              true
$end

--------------------------------------------------------------
 Writing REM_CC_EA            3
 ----------------------------------------------------
       Standard Nuclear Orientation (Angstroms)
    I     Atom         X            Y            Z
 ----------------------------------------------------
    1      C       0.000000     0.000000     0.000000
    2      H       0.000000     0.000000     1.119422
    3      H       1.101468     0.000000    -0.199685
 ----------------------------------------------------
 Nuclear Repulsion Energy =     5.9806103808 hartrees
 There are        5 alpha and        4 beta electrons
 Requested basis set is G3large
 There are 22 shells and 62 basis functions

Total QAlloc Memory Limit   2000 MB
Mega-Array Size       743 MB
MEM_STATIC part       760 MB

                       Distance Matrix (Angstroms)
             C (  1)   H (  2)
   H (  2)  1.119422
   H (  3)  1.119422  1.718510
 
 A cutoff of  1.0D-08 yielded    253 shell pairs
 There are   2043 function pairs (  2475 Cartesian)
Evaluating contribution to one-electron hamiltonian from nuclear
 Smallest overlap matrix eigenvalue = 3.40E-03
 Multipole matrices computed through 2nd order

  Scale SEOQF with 1.000000e-01/1.000000e-01/1.000000e-01

 Standard Electronic Orientation quadrupole field applied
 Guess from superposition of atomic densities
 Warning:  Energy on first SCF cycle will be non-variational
 Long-range K will be added via erf
 Coulomb attenuation parameter = 0.39 bohr**(-1)
 An unrestricted Kohn-Sham SCF calculation will be
 performed using Pulay DIIS extrapolation
 Exchange:  wPBE + LR-HF      Correlation:  PBE
 Using SG-1 standard quadrature grid
 SCF converges when DIIS error is below 1.0E-05
 Requested basis set is G3large
 There are 22 shells and 62 basis functions
 A cutoff of  1.0D-08 yielded    253 shell pairs
 There are   2043 function pairs (  2475 Cartesian)
 Warning!  Inaccurate integrated density:
   Number of electrons =     9
   Numerical integral  =     7.999994824901
   Relative error      =   -11.1111686122 %
 ---------------------------------------
  Cycle       Energy         DIIS Error
 ---------------------------------------
    1     -38.9747327808      3.20E-02
    2     -39.0553348625      1.05E-02
    3     -39.1182823925      7.09E-03
    4     -39.1473057624      7.95E-04
    5     -39.1497106027      3.79E-04
    6     -39.1511413504      2.37E-04
    7     -39.1519393645      1.57E-04
    8     -39.1525593263      8.26E-05
    9     -39.1527381373      2.96E-05
   10     -39.1527539549      8.02E-06 Convergence criterion met
 ---------------------------------------
 One-Electron    Energy =   -66.1306256562
 Total Coulomb   Energy =    27.2166295916
 Alpha Exchange  Energy =    -0.9186602107
 Beta  Exchange  Energy =    -0.7448184123
 DFT   Exchange  Energy =    -4.3062559774
 DFT Correlation Energy =    -0.2496336706
 Nuclear Repu.   Energy =     5.9806103807
 Nuclear Attr.   Energy =  -105.1150865850
 Kinetic         Energy =    38.9844609288
 <S^2> = 0.7552
 SCF time:  CPU 8.33 s  wall 9.94 s
 Final Alpha MO Eigenvalues
            1           2           3           4           5           6
    1  -9.8242043  -0.5116273  -0.2235883  -0.0803675  -0.0571940   0.1853594
            7           8           9          10
    1   0.2092838   0.3011443   0.3038185   0.3227774
 Final Beta MO Eigenvalues
            1           2           3           4           5           6
    1  -9.8131217  -0.4709731  -0.2149187  -0.0588950   0.1864565   0.2097671
            7           8           9
    1   0.2488766   0.3050959   0.3230343
 Analysis of SCF Wavefunction
 
 --------------------------------------------------------------
                    Orbital Energies (a.u.)
 --------------------------------------------------------------
 
 Alpha MOs
 -- Occupied --
 -9.824  -0.512  -0.224  -0.080  -0.057
 -- Virtual --
  0.185   0.209   0.301   0.304   0.323   0.360   0.454   0.477
  0.741   0.822   0.870   0.893   0.916   0.923   0.924   0.966
  1.063   1.281   1.286   1.390   1.421   1.437   1.586   1.793
  1.799   2.734   2.735   3.035   3.210   3.236   3.249   3.293
  3.336   3.346   3.487   3.516   3.561   3.710   3.747   3.780
  4.072   4.142   4.435   4.502   4.514   4.604   5.372   5.863
 24.015  27.470  27.839  28.218  41.166  41.251  41.401  41.401
 41.434
 
 Beta MOs
 -- Occupied --
 -9.813  -0.471  -0.215  -0.059
 -- Virtual --
  0.186   0.210   0.249   0.305   0.323   0.373   0.382   0.463
  0.481   0.745   0.839   0.880   0.925   0.939   0.953   0.961
  1.005   1.094   1.282   1.315   1.415   1.445   1.447   1.594
  1.799   1.812   2.742   2.749   3.104   3.248   3.275   3.280
  3.347   3.363   3.364   3.491   3.537   3.621   3.772   3.803
  3.810   4.080   4.153   4.448   4.503   4.529   4.605   5.383
  5.870  24.028  27.503  27.846  28.225  41.197  41.255  41.424
 41.424  41.439
 --------------------------------------------------------------
 
          Ground-State Mulliken Net Atomic Charges

     Atom                 Charge (a.u.)    Spin (a.u.)
  --------------------------------------------------------
      1 C                    -0.974368       1.133587
      2 H                    -0.012800      -0.066784
      3 H                    -0.012831      -0.066803
  --------------------------------------------------------
  Sum of atomic charges =    -1.000000
  Sum of spin   charges =     1.000000

 -----------------------------------------------------------------
                    Cartesian Multipole Moments
 -----------------------------------------------------------------
    Charge (ESU x 10^10)
                -4.8032
    Dipole Moment (Debye)
         X       1.2818      Y      -0.0002      Z       1.0702
       Tot       1.6698
    Quadrupole Moments (Debye-Ang)
        XX     -13.7197     XY       0.0013     YY     -13.5337
        XZ      -1.3943     YZ      -0.0011     ZZ     -13.2141
    Octapole Moments (Debye-Ang^2)
       XXX      -0.5815    XXY       0.0005    XYY       0.1167
       YYY      -0.0016    XXZ      -0.0041    XYZ      -0.0002
       YYZ       0.0973    XZZ      -0.0908    YZZ      -0.0018
       ZZZ      -0.5577
    Hexadecapole Moments (Debye-Ang^3)
      XXXX     -40.6166   XXXY       0.0057   XXYY     -12.2542
      XYYY       0.0051   YYYY     -33.2585   XXXZ      -3.5043
      XXYZ      -0.0013   XYYZ      -1.1204   YYYZ      -0.0036
      XXZZ     -12.9653   XYZZ       0.0017   YYZZ     -11.8479
      XZZZ      -3.5859   YZZZ      -0.0043   ZZZZ     -38.0454
 -----------------------------------------------------------------
 Total job time:  10.03s(wall), 8.40s(cpu) 
 Tue Apr 30 20:52:29 2013

        *************************************************************
        *                                                           *
        *  Thank you very much for using Q-Chem.  Have a nice day.  *
        *                                                           *
        *************************************************************


0 sent ACK to 0 
now end server 0 ... 
 
**********************************************************************
Job 2 of 3 
**********************************************************************
 
Process 0 of 1 is on cl030.stfx.acenet.ca - thread support 1
initial socket setup ...start
initial socket setup ...done 
now start server 0 ... 

cmd = /usr/bin/ssh clhead /usr/local/qchem/bin/get_hostid 202586493 > /scratch/tmp/5955454.1.short.q/qchem19102/lic.dat
                  Welcome to Q-Chem
     A Quantum Leap Into The Future Of Chemistry

 Y. Shao, L. Fusti-Molnar, Y. Jung, J. Kussmann, C. Ochsenfeld,
 S. T. Brown, A. T. B. Gilbert, L. V. Slipchenko,S. V. Levchenko,
 D. P. O'Neill, R. A. DiStasio Jr., R. C. Lochan, T. Wang,
 G. J. O. Beran, N. A. Besley, J. M. Herbert, C. Y. Lin,
 T. Van Voorhis, S. H. Chien, A. Sodt, R. P. Steele, 
 V. A. Rassolov, P. E. Maslen, P. P. Korambath, R. D. Adamson,
 B. Austin, J. Baker, E. F. C. Byrd, H. Dachsel, R. J. Doerksen,
 A. Dreuw, B. D. Dunietz, A. D. Dutoi, T. R. Furlani,
 S. R. Gwaltney, A. Heyden, S. Hirata, C.-P. Hsu, G. Kedziora,
 R. Z. Khaliullin, P. Klunzinger, A. M. Lee, M. S. Lee, W. Liang,
 I. Lotan, N. Nair, B. Peters, E. I. Proynov, P. A. Pieniazek, 
 Y. M. Rhee, J. Ritchie, E. Rosta, C. D. Sherrill, 
 A. C. Simmonett, J. E. Subotnik, H. L. Woodcock III,
 W. Zhang, A. T. Bell, A. K. Chakraborty, D. M. Chipman,
 F. J. Keil, A. Warshel, W. J. Hehre, H. F. Schaefer III,
 J. Kong, A. I. Krylov, P. M. W. Gill, M. Head-Gordon,
 Q-Chem, Version 3.1, Q-Chem, Inc., Pittsburgh, PA (2007).

 Additional authors for Version 3.1: 
 Z. Gan, Y. Zhao, N. E. Schultz, D. Truhlar, E. Epifanovsky and M. Oana.

 Additional authors for Version 3.2: 
 R. Baer, B. R. Brooks, D. Casanova, J.-D. Chai, C.-L. Cheng, 
 C. Cramer, D. Crittenden, A. Ghysels, G. Hawkins, E. G. Hohenstein, 
 C. Kelley, W. Kurlancheek, D. Liotard, E. Livshits, P. Manohar, 
 A. Marenich, D. Neuhauser, R. Olson, M. A. Rohrdanz, K. S. Thanthiriwatte, 
 A. J. W. Thom, V. Vanovschi, C. F. Williams, Q. Wu and Z.-Q. You. 


 Intel X86 Linux Version

 Q-chem begins on Tue Apr 30 20:52:32 2013  

 Parallel job on  1  processors
Processing $rem in /usr/local/qchem/config/preferences.

theFileMan(): MAXOPENFILES=974 MAX_SUB_FILE_NUM=16
Maximum size of a physical file is 2.0 GB, maximum size of a tmp-file is 32.0 GB


--------------------------------------------------------------
User input:
--------------------------------------------------------------

$molecule
0,1
C
H,1,CH
H,1,CH,2,HCH

CH=1.11942218
HCH=100.2755497

$end

$comment
neutral
$end

$xc_functional
C PBE   1.00
X wPBE  1.00
$end


$rem
SYMMETRY_DECOMPOSITION	0
LRC_DFT                 true
exchange 		general
BASIS                   g3large
omega			390
mem_static              760
max_scf_cycles          200
scf_final_print         1
sym_ignore              true
$end

--------------------------------------------------------------
 Writing REM_CC_EA            3
 ----------------------------------------------------
       Standard Nuclear Orientation (Angstroms)
    I     Atom         X            Y            Z
 ----------------------------------------------------
    1      C       0.000000     0.000000     0.000000
    2      H       0.000000     0.000000     1.119422
    3      H       1.101468     0.000000    -0.199685
 ----------------------------------------------------
 Nuclear Repulsion Energy =     5.9806103808 hartrees
 There are        4 alpha and        4 beta electrons
 Requested basis set is G3large
 There are 22 shells and 62 basis functions

Total QAlloc Memory Limit   2000 MB
Mega-Array Size       743 MB
MEM_STATIC part       760 MB

                       Distance Matrix (Angstroms)
             C (  1)   H (  2)
   H (  2)  1.119422
   H (  3)  1.119422  1.718510
 
 A cutoff of  1.0D-08 yielded    253 shell pairs
 There are   2043 function pairs (  2475 Cartesian)
Evaluating contribution to one-electron hamiltonian from nuclear
 Smallest overlap matrix eigenvalue = 3.40E-03
 Multipole matrices computed through 2nd order

  Scale SEOQF with 1.000000e-01/1.000000e-01/1.000000e-01

 Standard Electronic Orientation quadrupole field applied
 Guess from superposition of atomic densities
 Warning:  Energy on first SCF cycle will be non-variational
 Long-range K will be added via erf
 Coulomb attenuation parameter = 0.39 bohr**(-1)
 A restricted Kohn-Sham SCF calculation will be
 performed using Pulay DIIS extrapolation
 Exchange:  wPBE + LR-HF      Correlation:  PBE
 Using SG-1 standard quadrature grid
 SCF converges when DIIS error is below 1.0E-05
 Requested basis set is G3large
 There are 22 shells and 62 basis functions
 A cutoff of  1.0D-08 yielded    253 shell pairs
 There are   2043 function pairs (  2475 Cartesian)
 ---------------------------------------
  Cycle       Energy         DIIS Error
 ---------------------------------------
    1     -38.9747327808      3.20E-02
    2     -39.0711148012      4.01E-03
    3     -39.0909288331      1.80E-03
    4     -39.0967043542      1.04E-03
    5     -39.1018345620      6.68E-04
    6     -39.1047139050      3.39E-04
    7     -39.1054593447      1.37E-04
    8     -39.1055804954      5.09E-05
    9     -39.1055959037      1.05E-05
   10     -39.1055962632      2.23E-06 Convergence criterion met
 ---------------------------------------
 One-Electron    Energy =   -63.5479600839
 Total Coulomb   Energy =    24.4572714338
 Alpha Exchange  Energy =    -0.7642626323
 Beta  Exchange  Energy =    -0.7642626323
 DFT   Exchange  Energy =    -4.2428713016
 DFT Correlation Energy =    -0.2241214276
 Nuclear Repu.   Energy =     5.9806103807
 Nuclear Attr.   Energy =  -102.4729815596
 Kinetic         Energy =    38.9250214757
 SCF time:  CPU 7.41 s  wall 9.13 s
 Final Alpha MO Eigenvalues
            1           2           3           4           5           6
    1 -10.1733918  -0.8101480  -0.5279128  -0.3777245  -0.0378776   0.0394968
            7           8           9
    1   0.0706839   0.1283475   0.1298829
 Analysis of SCF Wavefunction
 
 --------------------------------------------------------------
                    Orbital Energies (a.u.)
 --------------------------------------------------------------
 
 Alpha MOs
 -- Occupied --
-10.173  -0.810  -0.528  -0.378
 -- Virtual --
 -0.038   0.039   0.071   0.128   0.130   0.154   0.178   0.238
  0.252   0.497   0.568   0.619   0.642   0.656   0.658   0.666
  0.699   0.809   1.019   1.020   1.126   1.159   1.170   1.321
  1.526   1.527   2.442   2.443   2.726   2.898   2.925   2.937
  2.984   3.030   3.037   3.182   3.209   3.260   3.402   3.438
  3.473   3.767   3.835   4.133   4.200   4.210   4.305   5.070
  5.554  23.669  27.126  27.493  27.870  40.820  40.903  41.052
 41.053  41.087
 --------------------------------------------------------------
 
          Ground-State Mulliken Net Atomic Charges

     Atom                 Charge (a.u.)
  ----------------------------------------
      1 C                    -0.133964
      2 H                     0.066984
      3 H                     0.066980
  ----------------------------------------
  Sum of atomic charges =     0.000000

 -----------------------------------------------------------------
                    Cartesian Multipole Moments
 -----------------------------------------------------------------
    Charge (ESU x 10^10)
                 0.0000
    Dipole Moment (Debye)
         X       1.5054      Y       0.0000      Z       1.2570
       Tot       1.9612
    Quadrupole Moments (Debye-Ang)
        XX      -8.1918     XY       0.0001     YY      -6.4857
        XZ      -0.8274     YZ       0.0000     ZZ      -7.8918
    Octapole Moments (Debye-Ang^2)
       XXX      -0.2358    XXY       0.0000    XYY      -0.2680
       YYY      -0.0001    XXZ      -0.6212    XYZ       0.0000
       YYZ      -0.2238    XZZ      -0.4418    YZZ       0.0000
       ZZZ       0.0555
    Hexadecapole Moments (Debye-Ang^3)
      XXXX     -16.2228   XXXY       0.0001   XXYY      -4.0465
      XYYY       0.0001   YYYY      -6.4232   XXXZ      -0.9391
      XXYZ       0.0000   XYYZ      -0.1748   YYYZ       0.0001
      XXZZ      -5.8436   XYZZ       0.0000   YYZZ      -3.9831
      XZZZ      -0.6402   YZZZ       0.0001   ZZZZ     -15.6499
 -----------------------------------------------------------------
 Total job time:  9.23s(wall), 7.48s(cpu) 
 Tue Apr 30 20:52:41 2013

        *************************************************************
        *                                                           *
        *  Thank you very much for using Q-Chem.  Have a nice day.  *
        *                                                           *
        *************************************************************


0 sent ACK to 0 
now end server 0 ... 
 
**********************************************************************
Job 3 of 3 
**********************************************************************
 
Process 0 of 1 is on cl030.stfx.acenet.ca - thread support 1
initial socket setup ...start
initial socket setup ...done 
now start server 0 ... 

cmd = /usr/bin/ssh clhead /usr/local/qchem/bin/get_hostid 1932245110 > /scratch/tmp/5955454.1.short.q/qchem19102/lic.dat
                  Welcome to Q-Chem
     A Quantum Leap Into The Future Of Chemistry

 Y. Shao, L. Fusti-Molnar, Y. Jung, J. Kussmann, C. Ochsenfeld,
 S. T. Brown, A. T. B. Gilbert, L. V. Slipchenko,S. V. Levchenko,
 D. P. O'Neill, R. A. DiStasio Jr., R. C. Lochan, T. Wang,
 G. J. O. Beran, N. A. Besley, J. M. Herbert, C. Y. Lin,
 T. Van Voorhis, S. H. Chien, A. Sodt, R. P. Steele, 
 V. A. Rassolov, P. E. Maslen, P. P. Korambath, R. D. Adamson,
 B. Austin, J. Baker, E. F. C. Byrd, H. Dachsel, R. J. Doerksen,
 A. Dreuw, B. D. Dunietz, A. D. Dutoi, T. R. Furlani,
 S. R. Gwaltney, A. Heyden, S. Hirata, C.-P. Hsu, G. Kedziora,
 R. Z. Khaliullin, P. Klunzinger, A. M. Lee, M. S. Lee, W. Liang,
 I. Lotan, N. Nair, B. Peters, E. I. Proynov, P. A. Pieniazek, 
 Y. M. Rhee, J. Ritchie, E. Rosta, C. D. Sherrill, 
 A. C. Simmonett, J. E. Subotnik, H. L. Woodcock III,
 W. Zhang, A. T. Bell, A. K. Chakraborty, D. M. Chipman,
 F. J. Keil, A. Warshel, W. J. Hehre, H. F. Schaefer III,
 J. Kong, A. I. Krylov, P. M. W. Gill, M. Head-Gordon,
 Q-Chem, Version 3.1, Q-Chem, Inc., Pittsburgh, PA (2007).

 Additional authors for Version 3.1: 
 Z. Gan, Y. Zhao, N. E. Schultz, D. Truhlar, E. Epifanovsky and M. Oana.

 Additional authors for Version 3.2: 
 R. Baer, B. R. Brooks, D. Casanova, J.-D. Chai, C.-L. Cheng, 
 C. Cramer, D. Crittenden, A. Ghysels, G. Hawkins, E. G. Hohenstein, 
 C. Kelley, W. Kurlancheek, D. Liotard, E. Livshits, P. Manohar, 
 A. Marenich, D. Neuhauser, R. Olson, M. A. Rohrdanz, K. S. Thanthiriwatte, 
 A. J. W. Thom, V. Vanovschi, C. F. Williams, Q. Wu and Z.-Q. You. 


 Intel X86 Linux Version

 Q-chem begins on Tue Apr 30 20:52:44 2013  

 Parallel job on  1  processors
Processing $rem in /usr/local/qchem/config/preferences.

theFileMan(): MAXOPENFILES=974 MAX_SUB_FILE_NUM=16
Maximum size of a physical file is 2.0 GB, maximum size of a tmp-file is 32.0 GB


--------------------------------------------------------------
User input:
--------------------------------------------------------------

$molecule
1,2
C
H,1,CH
H,1,CH,2,HCH

CH=1.11942218
HCH=100.2755497

$end

$comment
positive
$end

$xc_functional
C PBE   1.00
X wPBE  1.00
$end

$rem
SYMMETRY_DECOMPOSITION	0
LRC_DFT                 true
exchange 		general
BASIS                   g3large
omega			390
mem_static              760
max_scf_cycles          200
scf_final_print         1
sym_ignore              true
$end

--------------------------------------------------------------
 Writing REM_CC_EA            3
 ----------------------------------------------------
       Standard Nuclear Orientation (Angstroms)
    I     Atom         X            Y            Z
 ----------------------------------------------------
    1      C       0.000000     0.000000     0.000000
    2      H       0.000000     0.000000     1.119422
    3      H       1.101468     0.000000    -0.199685
 ----------------------------------------------------
 Nuclear Repulsion Energy =     5.9806103808 hartrees
 There are        4 alpha and        3 beta electrons
 Requested basis set is G3large
 There are 22 shells and 62 basis functions

Total QAlloc Memory Limit   2000 MB
Mega-Array Size       743 MB
MEM_STATIC part       760 MB

                       Distance Matrix (Angstroms)
             C (  1)   H (  2)
   H (  2)  1.119422
   H (  3)  1.119422  1.718510
 
 A cutoff of  1.0D-08 yielded    253 shell pairs
 There are   2043 function pairs (  2475 Cartesian)
Evaluating contribution to one-electron hamiltonian from nuclear
 Smallest overlap matrix eigenvalue = 3.40E-03
 Multipole matrices computed through 2nd order

  Scale SEOQF with 1.000000e-01/1.000000e-01/1.000000e-01

 Standard Electronic Orientation quadrupole field applied
 Guess from superposition of atomic densities
 Warning:  Energy on first SCF cycle will be non-variational
 Long-range K will be added via erf
 Coulomb attenuation parameter = 0.39 bohr**(-1)
 An unrestricted Kohn-Sham SCF calculation will be
 performed using Pulay DIIS extrapolation
 Exchange:  wPBE + LR-HF      Correlation:  PBE
 Using SG-1 standard quadrature grid
 SCF converges when DIIS error is below 1.0E-05
 Requested basis set is G3large
 There are 22 shells and 62 basis functions
 A cutoff of  1.0D-08 yielded    253 shell pairs
 There are   2043 function pairs (  2475 Cartesian)
 Warning!  Inaccurate integrated density:
   Number of electrons =     7
   Numerical integral  =     7.999994824901
   Relative error      =    14.2856403557 %
 ---------------------------------------
  Cycle       Energy         DIIS Error
 ---------------------------------------
    1     -38.9747327808      3.20E-02
    2     -38.6443583309      7.86E-03
    3     -38.7033439580      3.31E-03
    4     -38.7115591255      8.54E-04
    5     -38.7148632941      5.11E-04
    6     -38.7170326822      2.84E-04
    7     -38.7180774831      1.56E-04
    8     -38.7184394785      7.39E-05
    9     -38.7185264810      1.63E-05
   10     -38.7185291426      4.38E-06 Convergence criterion met
 ---------------------------------------
 One-Electron    Energy =   -60.3605326686
 Total Coulomb   Energy =    21.3641077038
 Alpha Exchange  Energy =    -0.7807337007
 Beta  Exchange  Energy =    -0.5893596822
 DFT   Exchange  Energy =    -4.1453233244
 DFT Correlation Energy =    -0.1872978512
 Nuclear Repu.   Energy =     5.9806103807
 Nuclear Attr.   Energy =   -98.9299871695
 Kinetic         Energy =    38.5694545009
 <S^2> = 0.7518
 SCF time:  CPU 8.32 s  wall 10.05 s
 Final Alpha MO Eigenvalues
            1           2           3           4           5           6
    1 -10.6359533  -1.2012221  -0.9052616  -0.8459980  -0.4123929  -0.1440335
            7           8           9
    1  -0.1024480  -0.0731170  -0.0688229
 Final Beta MO Eigenvalues
            1           2           3           4           5           6
    1 -10.6187478  -1.1586159  -0.8878966  -0.3892721  -0.3782867  -0.1401841
            7           8
    1  -0.0933706  -0.0654707
 Analysis of SCF Wavefunction
 
 --------------------------------------------------------------
                    Orbital Energies (a.u.)
 --------------------------------------------------------------
 
 Alpha MOs
 -- Occupied --
-10.636  -1.201  -0.905  -0.846
 -- Virtual --
 -0.412  -0.144  -0.102  -0.073  -0.069  -0.061  -0.008  -0.006
  0.011   0.227   0.265   0.314   0.326   0.334   0.336   0.361
  0.381   0.487   0.691   0.712   0.809   0.845   0.850   0.985
  1.206   1.214   2.092   2.093   2.320   2.474   2.518   2.559
  2.597   2.603   2.632   2.770   2.830   2.858   2.950   2.998
  3.017   3.342   3.429   3.774   3.833   3.851   3.926   4.693
  5.168  23.212  26.670  27.017  27.417  40.360  40.436  40.584
 40.599  40.622
 
 Beta MOs
 -- Occupied --
-10.619  -1.159  -0.888
 -- Virtual --
 -0.389  -0.378  -0.140  -0.093  -0.065  -0.060  -0.048  -0.006
  0.001   0.021   0.241   0.288   0.343   0.345   0.347   0.367
  0.390   0.399   0.518   0.713   0.727   0.826   0.865   0.871
  1.023   1.222   1.227   2.107   2.114   2.343   2.544   2.575
  2.578   2.630   2.670   2.677   2.828   2.849   2.887   3.043
  3.055   3.121   3.408   3.466   3.791   3.857   3.866   3.959
  4.717   5.198  23.233  26.682  27.058  27.430  40.376  40.466
 40.606  40.614  40.649
 --------------------------------------------------------------
 
          Ground-State Mulliken Net Atomic Charges

     Atom                 Charge (a.u.)    Spin (a.u.)
  --------------------------------------------------------
      1 C                     0.562717       0.928231
      2 H                     0.218569       0.035686
      3 H                     0.218714       0.036083
  --------------------------------------------------------
  Sum of atomic charges =     1.000000
  Sum of spin   charges =     1.000000

 -----------------------------------------------------------------
                    Cartesian Multipole Moments
 -----------------------------------------------------------------
    Charge (ESU x 10^10)
                 4.8032
    Dipole Moment (Debye)
         X       1.2550      Y       0.0001      Z       1.0478
       Tot       1.6349
    Quadrupole Moments (Debye-Ang)
        XX      -3.8508     XY      -0.0001     YY      -4.3960
        XZ      -0.0139     YZ      -0.0001     ZZ      -3.8478
    Octapole Moments (Debye-Ang^2)
       XXX       0.7856    XXY       0.0000    XYY      -0.6049
       YYY       0.0001    XXZ      -0.9074    XYZ       0.0000
       YYZ      -0.5051    XZZ      -0.4745    YZZ       0.0000
       ZZZ       1.1662
    Hexadecapole Moments (Debye-Ang^3)
      XXXX      -5.3547   XXXY      -0.0001   XXYY      -2.0136
      XYYY      -0.0001   YYYY      -3.1201   XXXZ      -0.0314
      XXYZ       0.0000   XYYZ       0.1956   YYYZ      -0.0001
      XXZZ      -2.9637   XYZZ       0.0000   YYZZ      -2.0850
      XZZZ       0.6114   YZZZ      -0.0001   ZZZZ      -5.5690
 -----------------------------------------------------------------
 Total job time:  10.14s(wall), 8.39s(cpu) 
 Tue Apr 30 20:52:54 2013

        *************************************************************
        *                                                           *
        *  Thank you very much for using Q-Chem.  Have a nice day.  *
        *                                                           *
        *************************************************************


0 sent ACK to 0 
now end server 0 ... 
