Process 0 of 1 is on cl161.stfx.acenet.ca - thread support 1
initial socket setup ...start
initial socket setup ...done 
now start server 0 ... 

cmd = /usr/bin/ssh clhead /usr/local/qchem/bin/get_hostid 1099410884 > /scratch/tmp/5998612.1.medium.q/qchem9501/lic.dat
                  Welcome to Q-Chem
     A Quantum Leap Into The Future Of Chemistry

 Y. Shao, L. Fusti-Molnar, Y. Jung, J. Kussmann, C. Ochsenfeld,
 S. T. Brown, A. T. B. Gilbert, L. V. Slipchenko,S. V. Levchenko,
 D. P. O'Neill, R. A. DiStasio Jr., R. C. Lochan, T. Wang,
 G. J. O. Beran, N. A. Besley, J. M. Herbert, C. Y. Lin,
 T. Van Voorhis, S. H. Chien, A. Sodt, R. P. Steele, 
 V. A. Rassolov, P. E. Maslen, P. P. Korambath, R. D. Adamson,
 B. Austin, J. Baker, E. F. C. Byrd, H. Dachsel, R. J. Doerksen,
 A. Dreuw, B. D. Dunietz, A. D. Dutoi, T. R. Furlani,
 S. R. Gwaltney, A. Heyden, S. Hirata, C.-P. Hsu, G. Kedziora,
 R. Z. Khaliullin, P. Klunzinger, A. M. Lee, M. S. Lee, W. Liang,
 I. Lotan, N. Nair, B. Peters, E. I. Proynov, P. A. Pieniazek, 
 Y. M. Rhee, J. Ritchie, E. Rosta, C. D. Sherrill, 
 A. C. Simmonett, J. E. Subotnik, H. L. Woodcock III,
 W. Zhang, A. T. Bell, A. K. Chakraborty, D. M. Chipman,
 F. J. Keil, A. Warshel, W. J. Hehre, H. F. Schaefer III,
 J. Kong, A. I. Krylov, P. M. W. Gill, M. Head-Gordon,
 Q-Chem, Version 3.1, Q-Chem, Inc., Pittsburgh, PA (2007).

 Additional authors for Version 3.1: 
 Z. Gan, Y. Zhao, N. E. Schultz, D. Truhlar, E. Epifanovsky and M. Oana.

 Additional authors for Version 3.2: 
 R. Baer, B. R. Brooks, D. Casanova, J.-D. Chai, C.-L. Cheng, 
 C. Cramer, D. Crittenden, A. Ghysels, G. Hawkins, E. G. Hohenstein, 
 C. Kelley, W. Kurlancheek, D. Liotard, E. Livshits, P. Manohar, 
 A. Marenich, D. Neuhauser, R. Olson, M. A. Rohrdanz, K. S. Thanthiriwatte, 
 A. J. W. Thom, V. Vanovschi, C. F. Williams, Q. Wu and Z.-Q. You. 


 Intel X86 Linux Version

 Q-chem begins on Wed May 22 11:41:37 2013  

 Parallel job on  1  processors
Processing $rem in /usr/local/qchem/config/preferences.

theFileMan(): MAXOPENFILES=974 MAX_SUB_FILE_NUM=16
Maximum size of a physical file is 2.0 GB, maximum size of a tmp-file is 32.0 GB


--------------------------------------------------------------
User input:
--------------------------------------------------------------

$molecule
-1,2
H          0.00000        0.00000        0.00378
H          0.00000        0.00000        0.73886
$end

$comment
negative
$end

$xc_functional
C PBE   1.00
X wPBE  1.00
$end

$rem
SYMMETRY_DECOMPOSITION	0
exchange 		general
LRC_DFT                 true
BASIS                   g3large
omega			600
mem_static              760
max_scf_cycles          200
scf_final_print         1
sym_ignore              true
$end

--------------------------------------------------------------
 Writing REM_CC_EA            2
 ----------------------------------------------------
       Standard Nuclear Orientation (Angstroms)
    I     Atom         X            Y            Z
 ----------------------------------------------------
    1      H       0.000000     0.000000     0.003780
    2      H       0.000000     0.000000     0.738860
 ----------------------------------------------------
 Nuclear Repulsion Energy =     0.7198906388 hartrees
 There are        2 alpha and        1 beta electrons
 Requested basis set is G3large
 There are 12 shells and 20 basis functions

Total QAlloc Memory Limit   2000 MB
Mega-Array Size       743 MB
MEM_STATIC part       760 MB

                       Distance Matrix (Angstroms)
             H (  1)
   H (  2)  0.735080
 
 A cutoff of  1.0D-08 yielded     78 shell pairs
 There are    222 function pairs
Evaluating contribution to one-electron hamiltonian from nuclear
 Smallest overlap matrix eigenvalue = 2.84E-03
 Multipole matrices computed through 2nd order

  Scale SEOQF with 1.000000e+00/1.000000e+00/1.000000e+00

 Standard Electronic Orientation quadrupole field applied
 Nucleus-field energy     =    -0.0000000006 hartrees
 Guess from superposition of atomic densities
 Warning:  Energy on first SCF cycle will be non-variational
 Long-range K will be added via erf
 Coulomb attenuation parameter = 0.6 bohr**(-1)
 An unrestricted Kohn-Sham SCF calculation will be
 performed using Pulay DIIS extrapolation
 Exchange:  wPBE + LR-HF      Correlation:  PBE
 Using SG-1 standard quadrature grid
 SCF converges when DIIS error is below 1.0E-05
 Requested basis set is G3large
 There are 12 shells and 20 basis functions
 A cutoff of  1.0D-08 yielded     78 shell pairs
 There are    222 function pairs
 Warning!  Inaccurate integrated density:
   Number of electrons =     3
   Numerical integral  =     2.000001007372
   Relative error      =   -33.3332997543 %
 ---------------------------------------
  Cycle       Energy         DIIS Error
 ---------------------------------------
    1      -0.9086667402      2.38E-02
    2      -1.1107124559      3.44E-03
    3      -1.1167529407      1.50E-03
    4      -1.1180664556      5.46E-04
    5      -1.1182933485      1.01E-04
    6      -1.1183029304      6.41E-06 Convergence criterion met
 ---------------------------------------
 One-Electron    Energy =    -2.8228251160
 Total Coulomb   Energy =     1.7879505742
 Alpha Exchange  Energy =    -0.3147141364
 Beta  Exchange  Energy =    -0.2309905095
 DFT   Exchange  Energy =    -0.2064620068
 DFT Correlation Energy =    -0.0511523743
 Nuclear Repu.   Energy =     0.7198906383
 Nuclear Attr.   Energy =    -4.0340164077
 Kinetic         Energy =     1.2111912918
 <S^2> = 0.7504
 SCF time:  CPU 0.32 s  wall 0.35 s
 Final Alpha MO Eigenvalues
            1           2           3           4           5           6
    1  -0.4069287   0.0601911   0.1854796   0.3808055   0.6069446   0.8188544
            7
    1   0.8188547
 Final Beta MO Eigenvalues
            1           2           3           4           5           6
    1  -0.4035347   0.2107352   0.2133792   0.4040443   0.6084437   0.8208423
 Analysis of SCF Wavefunction
 
 --------------------------------------------------------------
                    Orbital Energies (a.u.)
 --------------------------------------------------------------
 
 Alpha MOs
 -- Occupied --
 -0.407   0.060
 -- Virtual --
  0.185   0.381   0.607   0.819   0.819   0.872   1.250   1.258
  1.258   1.753   2.620   2.812   3.746   3.746   4.106   4.570
  4.570   6.003
 
 Beta MOs
 -- Occupied --
 -0.404
 -- Virtual --
  0.211   0.213   0.404   0.608   0.821   0.821   0.872   1.259
  1.265   1.265   1.758   2.620   2.812   3.745   3.745   4.107
  4.571   4.571   6.005
 --------------------------------------------------------------
 
          Ground-State Mulliken Net Atomic Charges

     Atom                 Charge (a.u.)    Spin (a.u.)
  --------------------------------------------------------
      1 H                    -0.500038       0.500038
      2 H                    -0.499962       0.499962
  --------------------------------------------------------
  Sum of atomic charges =    -1.000000
  Sum of spin   charges =     1.000000

 -----------------------------------------------------------------
                    Cartesian Multipole Moments
 -----------------------------------------------------------------
    Charge (ESU x 10^10)
                -4.8032
    Dipole Moment (Debye)
         X       0.0000      Y       0.0000      Z      -1.7833
       Tot       1.7833
    Quadrupole Moments (Debye-Ang)
        XX     -12.2271     XY       0.0000     YY     -12.2271
        XZ       0.0000     YZ       0.0000     ZZ     -32.7275
    Octapole Moments (Debye-Ang^2)
       XXX       0.0000    XXY       0.0000    XYY       0.0000
       YYY       0.0000    XXZ      -4.5397    XYZ       0.0000
       YYZ      -4.5397    XZZ       0.0000    YZZ       0.0000
       ZZZ     -35.9638
    Hexadecapole Moments (Debye-Ang^3)
      XXXX     -64.5058   XXXY       0.0000   XXYY     -21.5019
      XYYY       0.0000   YYYY     -64.5058   XXXZ       0.0000
      XXYZ       0.0000   XYYZ       0.0000   YYYZ       0.0000
      XXZZ     -65.4157   XYZZ       0.0000   YYZZ     -65.4157
      XZZZ       0.0000   YZZZ       0.0000   ZZZZ    -347.1154
 -----------------------------------------------------------------
 Total job time:  0.39s(wall), 0.35s(cpu) 
 Wed May 22 11:41:37 2013

        *************************************************************
        *                                                           *
        *  Thank you very much for using Q-Chem.  Have a nice day.  *
        *                                                           *
        *************************************************************


0 sent ACK to 0 
now end server 0 ... 
 
**********************************************************************
Job 2 of 3 
**********************************************************************
 
Process 0 of 1 is on cl161.stfx.acenet.ca - thread support 1
initial socket setup ...start
initial socket setup ...done 
now start server 0 ... 

cmd = /usr/bin/ssh clhead /usr/local/qchem/bin/get_hostid 1269324545 > /scratch/tmp/5998612.1.medium.q/qchem9501/lic.dat
                  Welcome to Q-Chem
     A Quantum Leap Into The Future Of Chemistry

 Y. Shao, L. Fusti-Molnar, Y. Jung, J. Kussmann, C. Ochsenfeld,
 S. T. Brown, A. T. B. Gilbert, L. V. Slipchenko,S. V. Levchenko,
 D. P. O'Neill, R. A. DiStasio Jr., R. C. Lochan, T. Wang,
 G. J. O. Beran, N. A. Besley, J. M. Herbert, C. Y. Lin,
 T. Van Voorhis, S. H. Chien, A. Sodt, R. P. Steele, 
 V. A. Rassolov, P. E. Maslen, P. P. Korambath, R. D. Adamson,
 B. Austin, J. Baker, E. F. C. Byrd, H. Dachsel, R. J. Doerksen,
 A. Dreuw, B. D. Dunietz, A. D. Dutoi, T. R. Furlani,
 S. R. Gwaltney, A. Heyden, S. Hirata, C.-P. Hsu, G. Kedziora,
 R. Z. Khaliullin, P. Klunzinger, A. M. Lee, M. S. Lee, W. Liang,
 I. Lotan, N. Nair, B. Peters, E. I. Proynov, P. A. Pieniazek, 
 Y. M. Rhee, J. Ritchie, E. Rosta, C. D. Sherrill, 
 A. C. Simmonett, J. E. Subotnik, H. L. Woodcock III,
 W. Zhang, A. T. Bell, A. K. Chakraborty, D. M. Chipman,
 F. J. Keil, A. Warshel, W. J. Hehre, H. F. Schaefer III,
 J. Kong, A. I. Krylov, P. M. W. Gill, M. Head-Gordon,
 Q-Chem, Version 3.1, Q-Chem, Inc., Pittsburgh, PA (2007).

 Additional authors for Version 3.1: 
 Z. Gan, Y. Zhao, N. E. Schultz, D. Truhlar, E. Epifanovsky and M. Oana.

 Additional authors for Version 3.2: 
 R. Baer, B. R. Brooks, D. Casanova, J.-D. Chai, C.-L. Cheng, 
 C. Cramer, D. Crittenden, A. Ghysels, G. Hawkins, E. G. Hohenstein, 
 C. Kelley, W. Kurlancheek, D. Liotard, E. Livshits, P. Manohar, 
 A. Marenich, D. Neuhauser, R. Olson, M. A. Rohrdanz, K. S. Thanthiriwatte, 
 A. J. W. Thom, V. Vanovschi, C. F. Williams, Q. Wu and Z.-Q. You. 


 Intel X86 Linux Version

 Q-chem begins on Wed May 22 11:41:40 2013  

 Parallel job on  1  processors
Processing $rem in /usr/local/qchem/config/preferences.

theFileMan(): MAXOPENFILES=974 MAX_SUB_FILE_NUM=16
Maximum size of a physical file is 2.0 GB, maximum size of a tmp-file is 32.0 GB


--------------------------------------------------------------
User input:
--------------------------------------------------------------

$molecule
0,1
H          0.00000        0.00000        0.00378
H          0.00000        0.00000        0.73886
$end

$comment
neutral
$end

$xc_functional
C PBE   1.00
X wPBE  1.00
$end


$rem
SYMMETRY_DECOMPOSITION	0
LRC_DFT                 true
exchange 		general
BASIS                   g3large
omega			600
mem_static              760
max_scf_cycles          200
scf_final_print         1
sym_ignore              true
$end

--------------------------------------------------------------
 Writing REM_CC_EA            2
 ----------------------------------------------------
       Standard Nuclear Orientation (Angstroms)
    I     Atom         X            Y            Z
 ----------------------------------------------------
    1      H       0.000000     0.000000     0.003780
    2      H       0.000000     0.000000     0.738860
 ----------------------------------------------------
 Nuclear Repulsion Energy =     0.7198906388 hartrees
 There are        1 alpha and        1 beta electrons
 Requested basis set is G3large
 There are 12 shells and 20 basis functions

Total QAlloc Memory Limit   2000 MB
Mega-Array Size       743 MB
MEM_STATIC part       760 MB

                       Distance Matrix (Angstroms)
             H (  1)
   H (  2)  0.735080
 
 A cutoff of  1.0D-08 yielded     78 shell pairs
 There are    222 function pairs
Evaluating contribution to one-electron hamiltonian from nuclear
 Smallest overlap matrix eigenvalue = 2.84E-03
 Multipole matrices computed through 2nd order

  Scale SEOQF with 1.000000e+00/1.000000e+00/1.000000e+00

 Standard Electronic Orientation quadrupole field applied
 Nucleus-field energy     =    -0.0000000006 hartrees
 Guess from superposition of atomic densities
 Warning:  Energy on first SCF cycle will be non-variational
 Long-range K will be added via erf
 Coulomb attenuation parameter = 0.6 bohr**(-1)
 A restricted Kohn-Sham SCF calculation will be
 performed using Pulay DIIS extrapolation
 Exchange:  wPBE + LR-HF      Correlation:  PBE
 Using SG-1 standard quadrature grid
 SCF converges when DIIS error is below 1.0E-05
 Requested basis set is G3large
 There are 12 shells and 20 basis functions
 A cutoff of  1.0D-08 yielded     78 shell pairs
 There are    222 function pairs
 ---------------------------------------
  Cycle       Energy         DIIS Error
 ---------------------------------------
    1      -0.9086667402      2.38E-02
    2      -1.1808006612      2.64E-03
    3      -1.1814717511      3.33E-04
    4      -1.1814817416      3.45E-05
    5      -1.1814818909      2.74E-06 Convergence criterion met
 ---------------------------------------
 One-Electron    Energy =    -2.5159605953
 Total Coulomb   Energy =     1.3263389706
 Alpha Exchange  Energy =    -0.2320451135
 Beta  Exchange  Energy =    -0.2320451135
 DFT   Exchange  Energy =    -0.2040252761
 DFT Correlation Energy =    -0.0436354013
 Nuclear Repu.   Energy =     0.7198906383
 Nuclear Attr.   Energy =    -3.6593609113
 Kinetic         Energy =     1.1434003160
 SCF time:  CPU 0.22 s  wall 0.24 s
 Final Alpha MO Eigenvalues
            1           2           3           4           5           6
    1  -0.5932184   0.0698073   0.0722652   0.2303540   0.4418822   0.6345466
 Analysis of SCF Wavefunction
 
 --------------------------------------------------------------
                    Orbital Energies (a.u.)
 --------------------------------------------------------------
 
 Alpha MOs
 -- Occupied --
 -0.593
 -- Virtual --
  0.070   0.072   0.230   0.442   0.635   0.635   0.697   1.064
  1.075   1.075   1.565   2.437   2.625   3.557   3.557   3.914
  4.380   4.380   5.811
 --------------------------------------------------------------
 
          Ground-State Mulliken Net Atomic Charges

     Atom                 Charge (a.u.)
  ----------------------------------------
      1 H                    -0.000002
      2 H                     0.000002
  ----------------------------------------
  Sum of atomic charges =     0.000000

 -----------------------------------------------------------------
                    Cartesian Multipole Moments
 -----------------------------------------------------------------
    Charge (ESU x 10^10)
                 0.0000
    Dipole Moment (Debye)
         X       0.0000      Y       0.0000      Z       0.0000
       Tot       0.0000
    Quadrupole Moments (Debye-Ang)
        XX      -2.0575     XY       0.0000     YY      -2.0575
        XZ       0.0000     YZ       0.0000     ZZ      -1.4448
    Octapole Moments (Debye-Ang^2)
       XXX       0.0000    XXY       0.0000    XYY       0.0000
       YYY       0.0000    XXZ      -0.7640    XYZ       0.0000
       YYZ      -0.7640    XZZ       0.0000    YZZ       0.0000
       ZZZ      -1.6094
    Hexadecapole Moments (Debye-Ang^3)
      XXXX      -2.0226   XXXY       0.0000   XXYY      -0.6742
      XYYY       0.0000   YYYY      -2.0226   XXXZ       0.0000
      XXYZ       0.0000   XYYZ       0.0000   YYYZ       0.0000
      XXZZ      -1.0957   XYZZ       0.0000   YYZZ      -1.0957
      XZZZ       0.0000   YZZZ       0.0000   ZZZZ      -3.9362
 -----------------------------------------------------------------
 Total job time:  0.27s(wall), 0.25s(cpu) 
 Wed May 22 11:41:40 2013

        *************************************************************
        *                                                           *
        *  Thank you very much for using Q-Chem.  Have a nice day.  *
        *                                                           *
        *************************************************************


0 sent ACK to 0 
now end server 0 ... 
 
**********************************************************************
Job 3 of 3 
**********************************************************************
 
Process 0 of 1 is on cl161.stfx.acenet.ca - thread support 1
initial socket setup ...start
initial socket setup ...done 
now start server 0 ... 

cmd = /usr/bin/ssh clhead /usr/local/qchem/bin/get_hostid 56478453 > /scratch/tmp/5998612.1.medium.q/qchem9501/lic.dat
                  Welcome to Q-Chem
     A Quantum Leap Into The Future Of Chemistry

 Y. Shao, L. Fusti-Molnar, Y. Jung, J. Kussmann, C. Ochsenfeld,
 S. T. Brown, A. T. B. Gilbert, L. V. Slipchenko,S. V. Levchenko,
 D. P. O'Neill, R. A. DiStasio Jr., R. C. Lochan, T. Wang,
 G. J. O. Beran, N. A. Besley, J. M. Herbert, C. Y. Lin,
 T. Van Voorhis, S. H. Chien, A. Sodt, R. P. Steele, 
 V. A. Rassolov, P. E. Maslen, P. P. Korambath, R. D. Adamson,
 B. Austin, J. Baker, E. F. C. Byrd, H. Dachsel, R. J. Doerksen,
 A. Dreuw, B. D. Dunietz, A. D. Dutoi, T. R. Furlani,
 S. R. Gwaltney, A. Heyden, S. Hirata, C.-P. Hsu, G. Kedziora,
 R. Z. Khaliullin, P. Klunzinger, A. M. Lee, M. S. Lee, W. Liang,
 I. Lotan, N. Nair, B. Peters, E. I. Proynov, P. A. Pieniazek, 
 Y. M. Rhee, J. Ritchie, E. Rosta, C. D. Sherrill, 
 A. C. Simmonett, J. E. Subotnik, H. L. Woodcock III,
 W. Zhang, A. T. Bell, A. K. Chakraborty, D. M. Chipman,
 F. J. Keil, A. Warshel, W. J. Hehre, H. F. Schaefer III,
 J. Kong, A. I. Krylov, P. M. W. Gill, M. Head-Gordon,
 Q-Chem, Version 3.1, Q-Chem, Inc., Pittsburgh, PA (2007).

 Additional authors for Version 3.1: 
 Z. Gan, Y. Zhao, N. E. Schultz, D. Truhlar, E. Epifanovsky and M. Oana.

 Additional authors for Version 3.2: 
 R. Baer, B. R. Brooks, D. Casanova, J.-D. Chai, C.-L. Cheng, 
 C. Cramer, D. Crittenden, A. Ghysels, G. Hawkins, E. G. Hohenstein, 
 C. Kelley, W. Kurlancheek, D. Liotard, E. Livshits, P. Manohar, 
 A. Marenich, D. Neuhauser, R. Olson, M. A. Rohrdanz, K. S. Thanthiriwatte, 
 A. J. W. Thom, V. Vanovschi, C. F. Williams, Q. Wu and Z.-Q. You. 


 Intel X86 Linux Version

 Q-chem begins on Wed May 22 11:41:43 2013  

 Parallel job on  1  processors
Processing $rem in /usr/local/qchem/config/preferences.

theFileMan(): MAXOPENFILES=974 MAX_SUB_FILE_NUM=16
Maximum size of a physical file is 2.0 GB, maximum size of a tmp-file is 32.0 GB


--------------------------------------------------------------
User input:
--------------------------------------------------------------

$molecule
1,2
H          0.00000        0.00000        0.00378
H          0.00000        0.00000        0.73886
$end

$comment
positive
$end

$xc_functional
C PBE   1.00
X wPBE  1.00
$end

$rem
SYMMETRY_DECOMPOSITION	0
LRC_DFT                 true
exchange 		general
BASIS                   g3large
omega			600
mem_static              760
max_scf_cycles          200
scf_final_print         1
sym_ignore              true
$end

--------------------------------------------------------------
 Writing REM_CC_EA            2
 ----------------------------------------------------
       Standard Nuclear Orientation (Angstroms)
    I     Atom         X            Y            Z
 ----------------------------------------------------
    1      H       0.000000     0.000000     0.003780
    2      H       0.000000     0.000000     0.738860
 ----------------------------------------------------
 Nuclear Repulsion Energy =     0.7198906388 hartrees
 There are        1 alpha and        0 beta electrons
 Requested basis set is G3large
 There are 12 shells and 20 basis functions

Total QAlloc Memory Limit   2000 MB
Mega-Array Size       743 MB
MEM_STATIC part       760 MB

                       Distance Matrix (Angstroms)
             H (  1)
   H (  2)  0.735080
 
 A cutoff of  1.0D-08 yielded     78 shell pairs
 There are    222 function pairs
Evaluating contribution to one-electron hamiltonian from nuclear
 Smallest overlap matrix eigenvalue = 2.84E-03
 Multipole matrices computed through 2nd order

  Scale SEOQF with 1.000000e+00/1.000000e+00/1.000000e+00

 Standard Electronic Orientation quadrupole field applied
 Nucleus-field energy     =    -0.0000000006 hartrees
 Guess from superposition of atomic densities
 Warning:  Energy on first SCF cycle will be non-variational
 Long-range K will be added via erf
 Coulomb attenuation parameter = 0.6 bohr**(-1)
 An unrestricted Kohn-Sham SCF calculation will be
 performed using Pulay DIIS extrapolation
 Exchange:  wPBE + LR-HF      Correlation:  PBE
 Using SG-1 standard quadrature grid
 SCF converges when DIIS error is below 1.0E-05
 Requested basis set is G3large
 There are 12 shells and 20 basis functions
 A cutoff of  1.0D-08 yielded     78 shell pairs
 There are    222 function pairs
 Warning!  Inaccurate integrated density:
   Number of electrons =     1
   Numerical integral  =     2.000001007372
   Relative error      =   100.0001007372 %
 ---------------------------------------
  Cycle       Energy         DIIS Error
 ---------------------------------------
    1      -0.9086667402      2.38E-02
    2      -0.5407008057      1.38E-02
    3      -0.5763488463      1.98E-03
    4      -0.5766457824      5.86E-04
    5      -0.5767123534      1.03E-05
    6      -0.5767123750      3.19E-07 Convergence criterion met
 ---------------------------------------
 One-Electron    Energy =    -1.2873645430
 Total Coulomb   Energy =     0.3904739892
 Alpha Exchange  Energy =    -0.2521920214
 Beta  Exchange  Energy =     0.0000000000
 DFT   Exchange  Energy =    -0.1401041868
 DFT Correlation Energy =    -0.0074162513
 Nuclear Repu.   Energy =     0.7198906383
 Nuclear Attr.   Energy =    -2.0707619896
 Kinetic         Energy =     0.7833974467
 <S^2> = 0.7500
 SCF time:  CPU 0.26 s  wall 0.29 s
 Final Alpha MO Eigenvalues
            1           2           3           4           5           6
    1  -1.2451760  -0.2145069  -0.1402941  -0.0482218   0.1127446   0.1598000
 Final Beta MO Eigenvalues
            1           2           3           4           5
    1  -0.5433405  -0.1520846  -0.1208247  -0.0139640   0.1668264
 Analysis of SCF Wavefunction
 
 --------------------------------------------------------------
                    Orbital Energies (a.u.)
 --------------------------------------------------------------
 
 Alpha MOs
 -- Occupied --
 -1.245
 -- Virtual --
 -0.215  -0.140  -0.048   0.113   0.160   0.160   0.288   0.633
  0.652   0.652   1.162   1.836   2.024   2.913   2.913   3.259
  3.742   3.742   5.153
 --------------------------------------------------------------
 
          Ground-State Mulliken Net Atomic Charges

     Atom                 Charge (a.u.)    Spin (a.u.)
  --------------------------------------------------------
      1 H                     0.499996       0.500004
      2 H                     0.500004       0.499996
  --------------------------------------------------------
  Sum of atomic charges =     1.000000
  Sum of spin   charges =     1.000000

 -----------------------------------------------------------------
                    Cartesian Multipole Moments
 -----------------------------------------------------------------
    Charge (ESU x 10^10)
                 4.8032
    Dipole Moment (Debye)
         X       0.0000      Y       0.0000      Z       1.7835
       Tot       1.7835
    Quadrupole Moments (Debye-Ang)
        XX      -0.6917     XY       0.0000     YY      -0.6917
        XZ       0.0000     YZ       0.0000     ZZ       0.9931
    Octapole Moments (Debye-Ang^2)
       XXX       0.0000    XXY       0.0000    XYY       0.0000
       YYY       0.0000    XXZ      -0.2568    XYZ       0.0000
       YYZ      -0.2568    XZZ       0.0000    YZZ       0.0000
       ZZZ       0.6144
    Hexadecapole Moments (Debye-Ang^3)
      XXXX      -0.4141   XXXY       0.0000   XXYY      -0.1380
      XYYY       0.0000   YYYY      -0.4141   XXXZ       0.0000
      XXYZ       0.0000   XYYZ       0.0000   YYYZ       0.0000
      XXZZ      -0.2674   XYZZ       0.0000   YYZZ      -0.2674
      XZZZ       0.0000   YZZZ       0.0000   ZZZZ      -0.0971
 -----------------------------------------------------------------
 Total job time:  0.33s(wall), 0.29s(cpu) 
 Wed May 22 11:41:44 2013

        *************************************************************
        *                                                           *
        *  Thank you very much for using Q-Chem.  Have a nice day.  *
        *                                                           *
        *************************************************************


0 sent ACK to 0 
now end server 0 ... 
