Process 0 of 1 is on cl120.stfx.acenet.ca - thread support 1
initial socket setup ...start
initial socket setup ...done 
now start server 0 ... 

cmd = /usr/bin/ssh clhead /usr/local/qchem/bin/get_hostid 355712784 > /scratch/tmp/6067123.1.short.q/qchem28710/lic.dat
                  Welcome to Q-Chem
     A Quantum Leap Into The Future Of Chemistry

 Y. Shao, L. Fusti-Molnar, Y. Jung, J. Kussmann, C. Ochsenfeld,
 S. T. Brown, A. T. B. Gilbert, L. V. Slipchenko,S. V. Levchenko,
 D. P. O'Neill, R. A. DiStasio Jr., R. C. Lochan, T. Wang,
 G. J. O. Beran, N. A. Besley, J. M. Herbert, C. Y. Lin,
 T. Van Voorhis, S. H. Chien, A. Sodt, R. P. Steele, 
 V. A. Rassolov, P. E. Maslen, P. P. Korambath, R. D. Adamson,
 B. Austin, J. Baker, E. F. C. Byrd, H. Dachsel, R. J. Doerksen,
 A. Dreuw, B. D. Dunietz, A. D. Dutoi, T. R. Furlani,
 S. R. Gwaltney, A. Heyden, S. Hirata, C.-P. Hsu, G. Kedziora,
 R. Z. Khaliullin, P. Klunzinger, A. M. Lee, M. S. Lee, W. Liang,
 I. Lotan, N. Nair, B. Peters, E. I. Proynov, P. A. Pieniazek, 
 Y. M. Rhee, J. Ritchie, E. Rosta, C. D. Sherrill, 
 A. C. Simmonett, J. E. Subotnik, H. L. Woodcock III,
 W. Zhang, A. T. Bell, A. K. Chakraborty, D. M. Chipman,
 F. J. Keil, A. Warshel, W. J. Hehre, H. F. Schaefer III,
 J. Kong, A. I. Krylov, P. M. W. Gill, M. Head-Gordon,
 Q-Chem, Version 3.1, Q-Chem, Inc., Pittsburgh, PA (2007).

 Additional authors for Version 3.1: 
 Z. Gan, Y. Zhao, N. E. Schultz, D. Truhlar, E. Epifanovsky and M. Oana.

 Additional authors for Version 3.2: 
 R. Baer, B. R. Brooks, D. Casanova, J.-D. Chai, C.-L. Cheng, 
 C. Cramer, D. Crittenden, A. Ghysels, G. Hawkins, E. G. Hohenstein, 
 C. Kelley, W. Kurlancheek, D. Liotard, E. Livshits, P. Manohar, 
 A. Marenich, D. Neuhauser, R. Olson, M. A. Rohrdanz, K. S. Thanthiriwatte, 
 A. J. W. Thom, V. Vanovschi, C. F. Williams, Q. Wu and Z.-Q. You. 


 Intel X86 Linux Version

 Q-chem begins on Wed Jul 24 16:01:22 2013  

 Parallel job on  1  processors
Processing $rem in /usr/local/qchem/config/preferences.

theFileMan(): MAXOPENFILES=974 MAX_SUB_FILE_NUM=16
Maximum size of a physical file is 2.0 GB, maximum size of a tmp-file is 32.0 GB


--------------------------------------------------------------
User input:
--------------------------------------------------------------

$molecule
0,1
C
X,1,1.
Cl,1,CCl,2,HClX
Cl,1,CCl,2,HClX,3,180.,0
H,1,CH,2,HCX,3,90.,0
H,1,CH,2,HCX,3,-90.,0

CCl=1.79088554
CH=1.08757434
HClX=56.65320917
HCX=124.25124469

$end


$comment
b3lyp opt
$end

$rem
   EXCHANGE B3LYP
   UNRESTRICTED TRUE
   SYMMETRY_DECOMPOSITION	0
   BASIS                   g3large
   JOBTYPE                 opt
   mem_static              760
   max_scf_cycles          200
   scf_final_print         1
   sym_ignore              true
$end


--------------------------------------------------------------
 Writing REM_CC_EA            5
 ----------------------------------------------------
       Standard Nuclear Orientation (Angstroms)
    I     Atom         X            Y            Z
 ----------------------------------------------------
    1      C       0.000000     0.000000     0.000000
    2      Cl      1.496032     0.000000     0.984459
    3      Cl     -1.496032     0.000000     0.984459
    4      H       0.000000    -0.898965    -0.612112
    5      H       0.000000     0.898965    -0.612112
 ----------------------------------------------------
 Nuclear Repulsion Energy =   132.7368262598 hartrees
 There are       21 alpha and       21 beta electrons
 Requested basis set is G3large
 There are 60 shells and 194 basis functions

Total QAlloc Memory Limit   2000 MB
Mega-Array Size       743 MB
MEM_STATIC part       760 MB
 A cutoff of  1.0D-11 yielded   1695 shell pairs
 There are  17822 function pairs ( 24116 Cartesian)
Evaluating contribution to one-electron hamiltonian from nuclear
 Smallest overlap matrix eigenvalue = 1.89E-04
 Multipole matrices computed through 2nd order

  Scale SEOQF with 1.000000e-01/1.000000e-01/1.000000e-01

 Standard Electronic Orientation quadrupole field applied
 Nucleus-field energy     =    -0.0000000008 hartrees
 Guess from superposition of atomic densities
 Warning:  Energy on first SCF cycle will be non-variational
 An unrestricted hybrid HF-DFT SCF calculation will be
 performed using Pulay DIIS extrapolation
 Exchange:     0.2000 Hartree-Fock + 0.0800 Slater + 0.7200 Becke88
 Correlation:  0.8100 LYP + 0.1900 VWN1RPA
 Using SG-1 standard quadrature grid
 SCF converges when DIIS error is below 1.0E-08
 ---------------------------------------
  Cycle       Energy         DIIS Error
 ---------------------------------------
    1    -960.0287349362      2.39E-02
    2    -959.7695339958      1.64E-03
    3    -959.7770138393      1.07E-03
    4    -959.7809276113      1.67E-04
    5    -959.7809986849      5.70E-05
    6    -959.7810097459      2.50E-05
    7    -959.7810121836      9.34E-06
    8    -959.7810125519      1.19E-06
    9    -959.7810125494      3.84E-07
   10    -959.7810125474      1.03E-07
   11    -959.7810125503      2.26E-08
   12    -959.7810125514      5.49E-09 Convergence criterion met
 ---------------------------------------
 One-Electron    Energy = -1587.4424849843
 Total Coulomb   Energy =   557.6136248526
 Alpha Exchange  Energy =    -6.0943738734
 Beta  Exchange  Energy =    -6.0943738734
 DFT   Exchange  Energy =   -48.3825908991
 DFT Correlation Energy =    -2.1176400328
 Nuclear Repu.   Energy =   132.7368262590
 Nuclear Attr.   Energy = -2545.7059648085
 Kinetic         Energy =   958.2634798242
 <S^2> = 0.0000
 SCF time:  CPU 142.14 s  wall 143.14 s
 Final Alpha MO Eigenvalues
            1           2           3           4           5           6
    1-101.5350968-101.5350963 -10.2983744  -9.4734773  -9.4734716  -7.2355606
            7           8           9          10          11          12
    1  -7.2355578  -7.2268409  -7.2268389  -7.2266423  -7.2266410  -0.9058459
           13          14          15          16          17          18
    1  -0.8334003  -0.6744677  -0.5026057  -0.4667346  -0.4516037  -0.3378857
           19          20          21          22          23          24
    1  -0.3353822  -0.3192760  -0.3141600  -0.0351915  -0.0061344   0.0020359
           25          26
    1   0.0190291   0.0461148
 Final Beta MO Eigenvalues
            1           2           3           4           5           6
    1-101.5350968-101.5350963 -10.2983744  -9.4734773  -9.4734716  -7.2355606
            7           8           9          10          11          12
    1  -7.2355578  -7.2268409  -7.2268389  -7.2266423  -7.2266410  -0.9058459
           13          14          15          16          17          18
    1  -0.8334003  -0.6744677  -0.5026057  -0.4667346  -0.4516037  -0.3378857
           19          20          21          22          23          24
    1  -0.3353822  -0.3192760  -0.3141600  -0.0351915  -0.0061344   0.0020359
           25          26
    1   0.0190291   0.0461148
 Analysis of SCF Wavefunction
 
 --------------------------------------------------------------
                    Orbital Energies (a.u.)
 --------------------------------------------------------------
 
 Alpha MOs
 -- Occupied --
*******-101.535 -10.298  -9.473  -9.473  -7.236  -7.236  -7.227
 -7.227  -7.227  -7.227  -0.906  -0.833  -0.674  -0.503  -0.467
 -0.452  -0.338  -0.335  -0.319  -0.314
 -- Virtual --
 -0.035  -0.006   0.002   0.019   0.046   0.056   0.070   0.085
  0.090   0.093   0.095   0.119   0.125   0.136   0.140   0.141
  0.174   0.240   0.241   0.261   0.271   0.294   0.297   0.334
  0.343   0.363   0.414   0.419   0.422   0.443   0.467   0.477
  0.492   0.532   0.541   0.562   0.589   0.648   0.668   0.697
  0.710   0.866   0.913   0.918   0.919   0.921   1.014   1.020
  1.031   1.054   1.070   1.076   1.080   1.080   1.110   1.112
  1.115   1.121   1.134   1.146   1.220   1.281   1.307   1.339
  1.365   1.369   1.369   1.418   1.436   1.438   1.498   1.545
  1.609   1.618   1.629   1.697   1.713   2.149   2.166   2.208
  2.220   2.243   2.362   2.526   2.589   2.936   2.967   2.974
  3.107   3.187   3.233   3.329   3.358   3.393   3.482   3.515
  3.567   3.692   3.834   3.837   4.102   4.103   4.260   4.296
  4.329   4.341   4.360   4.365   4.376   4.388   4.388   4.415
  4.451   4.511   4.524   4.534   4.591   4.630   5.005   5.012
  5.031   5.034   5.133   5.138   5.186   5.229   5.231   5.621
  5.670   5.689   9.723   9.776  20.609  20.613  20.632  20.641
 20.832  20.876  23.956  27.145  27.148  27.173  27.187  27.204
 27.217  27.231  27.261  27.263  27.284  27.932  27.963  28.059
 36.896  36.898  36.900  36.902  36.903  36.903  36.906  36.907
 36.910  36.910  36.918  36.920  36.922  36.926  40.842  40.900
 41.090  41.096  41.161 216.270 216.350
 
 Beta MOs
 -- Occupied --
*******-101.535 -10.298  -9.473  -9.473  -7.236  -7.236  -7.227
 -7.227  -7.227  -7.227  -0.906  -0.833  -0.674  -0.503  -0.467
 -0.452  -0.338  -0.335  -0.319  -0.314
 -- Virtual --
 -0.035  -0.006   0.002   0.019   0.046   0.056   0.070   0.085
  0.090   0.093   0.095   0.119   0.125   0.136   0.140   0.141
  0.174   0.240   0.241   0.261   0.271   0.294   0.297   0.334
  0.343   0.363   0.414   0.419   0.422   0.443   0.467   0.477
  0.492   0.532   0.541   0.562   0.589   0.648   0.668   0.697
  0.710   0.866   0.913   0.918   0.919   0.921   1.014   1.020
  1.031   1.054   1.070   1.076   1.080   1.080   1.110   1.112
  1.115   1.121   1.134   1.146   1.220   1.281   1.307   1.339
  1.365   1.369   1.369   1.418   1.436   1.438   1.498   1.545
  1.609   1.618   1.629   1.697   1.713   2.149   2.166   2.208
  2.220   2.243   2.362   2.526   2.589   2.936   2.967   2.974
  3.107   3.187   3.233   3.329   3.358   3.393   3.482   3.515
  3.567   3.692   3.834   3.837   4.102   4.103   4.260   4.296
  4.329   4.341   4.360   4.365   4.376   4.388   4.388   4.415
  4.451   4.511   4.524   4.534   4.591   4.630   5.005   5.012
  5.031   5.034   5.133   5.138   5.186   5.229   5.231   5.621
  5.670   5.689   9.723   9.776  20.609  20.613  20.632  20.641
 20.832  20.876  23.956  27.145  27.148  27.173  27.187  27.204
 27.217  27.231  27.261  27.263  27.284  27.932  27.963  28.059
 36.896  36.898  36.900  36.902  36.903  36.903  36.906  36.907
 36.910  36.910  36.918  36.920  36.922  36.926  40.842  40.900
 41.090  41.096  41.161 216.270 216.350
 --------------------------------------------------------------
 
          Ground-State Mulliken Net Atomic Charges

     Atom                 Charge (a.u.)    Spin (a.u.)
  --------------------------------------------------------
      1 C                     0.230715       0.000000
      2 Cl                   -0.231803       0.000000
      3 Cl                   -0.231803       0.000000
      4 H                     0.116445       0.000000
      5 H                     0.116445       0.000000
  --------------------------------------------------------
  Sum of atomic charges =     0.000000
  Sum of spin   charges =     0.000000

 -----------------------------------------------------------------
                    Cartesian Multipole Moments
 -----------------------------------------------------------------
    Charge (ESU x 10^10)
                 0.0000
    Dipole Moment (Debye)
         X       0.0000      Y       0.0000      Z      -1.6745
       Tot       1.6745
    Quadrupole Moments (Debye-Ang)
        XX     -34.1647     XY       0.0000     YY     -31.6522
        XZ       0.0000     YZ       0.0000     ZZ     -32.5432
    Octapole Moments (Debye-Ang^2)
       XXX       0.0000    XXY       0.0000    XYY       0.0000
       YYY       0.0000    XXZ     -21.5716    XYZ       0.0000
       YYZ     -26.2239    XZZ       0.0000    YZZ       0.0000
       ZZZ     -73.6184
    Hexadecapole Moments (Debye-Ang^3)
      XXXX    -367.0646   XXXY       0.0000   XXYY     -73.3532
      XYYY       0.0000   YYYY     -42.8673   XXXZ       0.0000
      XXYZ       0.0000   XYYZ       0.0000   YYYZ       0.0000
      XXZZ     -86.5643   XYZZ       0.0000   YYZZ     -39.3020
      XZZZ       0.0000   YZZZ       0.0000   ZZZZ    -187.9869
 -----------------------------------------------------------------
 Calculating analytic gradient of the SCF energy
 Gradient of XC Energy
            1           2           3           4           5
    1   0.0000000   0.1370420  -0.1370420  -0.0000000  -0.0000000
    2  -0.0000000   0.0000000  -0.0000000  -0.1618807   0.1618807
    3   0.0957263   0.0800302   0.0800302  -0.1278934  -0.1278934
 Gradient of SCF Energy
            1           2           3           4           5
    1  -0.0000000   0.0041172  -0.0041172  -0.0000000   0.0000000
    2  -0.0000000   0.0000000  -0.0000000  -0.0026285   0.0026284
    3   0.0017246   0.0019176   0.0019176  -0.0027799  -0.0027799
 Max gradient component =       4.117E-03
 RMS gradient           =       2.214E-03
 Gradient time:  CPU 57.45 s  wall 57.52 s
 Geometry Optimization Parameters
   NAtoms,    NIC,     NZ,  NCons,   NDum,   NFix, NCnnct, MaxDiis
        5      20       6       0       0       0       0       0


** GEOMETRY OPTIMIZATION IN DELOCALIZED INTERNAL COORDINATES **
   Searching for a Minimum

   Optimization Cycle:   1

                       Coordinates (Angstroms)
     ATOM              X           Y           Z
    1  C           0.000000    0.000000    0.000000
    2  Cl          1.496032    0.000000    0.984459
    3  Cl         -1.496032    0.000000    0.984459
    4  H           0.000000   -0.898965   -0.612112
    5  H           0.000000    0.898965   -0.612112
   Point Group: c1    Number of degrees of freedom:   9


   Energy is   -959.781012551


 Attempting to Generate Delocalized Internal Coordinates

  8 Hessian modes will be used to form the next step
  Hessian Eigenvalues:
     0.160000    0.160000    0.160000    0.160000    0.235062    0.268480
     0.350945    0.350945

 Minimum Search - Taking Simple RFO Step
 Searching for Lamda that Minimizes Along All modes
 Value Taken    Lamda =  -0.00026769
 Step Taken.  Stepsize is  0.031210

                             Maximum     Tolerance    Cnvgd?
         Gradient           0.008239      0.000300      NO
         Displacement       0.027431      0.001200      NO
         Energy change     *********      0.000001      NO


 New Cartesian Coordinates Obtained by Inverse Iteration

 Displacement from previous Coordinates is:  0.034810
 Writing REM_CC_EA            5
 ----------------------------------------------------
       Standard Nuclear Orientation (Angstroms)
    I     Atom         X            Y            Z
 ----------------------------------------------------
    1      C       0.000000     0.000000    -0.003867
    2      Cl      1.484171     0.000000     0.982488
    3      Cl     -1.484171     0.000000     0.982488
    4      H       0.000000    -0.897427    -0.608207
    5      H       0.000000     0.897427    -0.608207
 ----------------------------------------------------
 Nuclear Repulsion Energy =   133.5533478669 hartrees
 There are       21 alpha and       21 beta electrons
 Applying Cartesian multipole field
    Component          Value
    ---------          -----
     (2,0,0)        1.00000E-11
     (0,2,0)        2.00000E-11
     (0,0,2)       -3.00000E-11
 Nucleus-field energy     =    -0.0000000008 hartrees
 Requested basis set is G3large
 There are 60 shells and 194 basis functions
 A cutoff of  1.0D-11 yielded   1695 shell pairs
 There are  17822 function pairs ( 24116 Cartesian)
Evaluating contribution to one-electron hamiltonian from nuclear
 Smallest overlap matrix eigenvalue = 1.83E-04
 Multipole matrices computed through 2nd order
 Guess MOs from SCF MO coefficient file
Reading MOs from coefficient file
Reading MOs from coefficient file
 An unrestricted hybrid HF-DFT SCF calculation will be
 performed using Pulay DIIS extrapolation
 Exchange:     0.2000 Hartree-Fock + 0.0800 Slater + 0.7200 Becke88
 Correlation:  0.8100 LYP + 0.1900 VWN1RPA
 Using SG-1 standard quadrature grid
 SCF converges when DIIS error is below 1.0E-08
 ---------------------------------------
  Cycle       Energy         DIIS Error
 ---------------------------------------
    1    -959.7929099212      2.49E-04
    2    -959.7810967875      9.96E-05
    3    -959.7810703995      1.30E-04
    4    -959.7811440693      9.08E-06
    5    -959.7811443601      2.64E-06
    6    -959.7811443897      3.42E-07
    7    -959.7811443924      1.83E-07
    8    -959.7811443914      2.11E-08
    9    -959.7811443925      6.11E-09 Convergence criterion met
 ---------------------------------------
 One-Electron    Energy = -1589.0678694245
 Total Coulomb   Energy =   558.4336539669
 Alpha Exchange  Energy =    -6.0955669869
 Beta  Exchange  Energy =    -6.0955669869
 DFT   Exchange  Energy =   -48.3907877546
 DFT Correlation Energy =    -2.1183550727
 Nuclear Repu.   Energy =   133.5533478661
 Nuclear Attr.   Energy = -2547.3756109239
 Kinetic         Energy =   958.3077414994
 <S^2> = 0.0000
 SCF time:  CPU 107.40 s  wall 107.79 s
 Final Alpha MO Eigenvalues
            1           2           3           4           5           6
    1-101.5344731-101.5344726 -10.2962140  -9.4730448  -9.4730396  -7.2350919
            7           8           9          10          11          12
    1  -7.2350891  -7.2263952  -7.2263933  -7.2262089  -7.2262076  -0.9088609
           13          14          15          16          17          18
    1  -0.8338836  -0.6745301  -0.5054361  -0.4682180  -0.4525542  -0.3381954
           19          20          21          22          23          24
    1  -0.3352581  -0.3183464  -0.3139931  -0.0324757  -0.0053400   0.0035441
           25          26
    1   0.0191034   0.0462035
 Final Beta MO Eigenvalues
            1           2           3           4           5           6
    1-101.5344731-101.5344726 -10.2962140  -9.4730448  -9.4730396  -7.2350919
            7           8           9          10          11          12
    1  -7.2350891  -7.2263952  -7.2263933  -7.2262089  -7.2262076  -0.9088609
           13          14          15          16          17          18
    1  -0.8338836  -0.6745301  -0.5054361  -0.4682180  -0.4525542  -0.3381954
           19          20          21          22          23          24
    1  -0.3352581  -0.3183464  -0.3139931  -0.0324757  -0.0053400   0.0035441
           25          26
    1   0.0191034   0.0462035
 Analysis of SCF Wavefunction
 
 --------------------------------------------------------------
                    Orbital Energies (a.u.)
 --------------------------------------------------------------
 
 Alpha MOs
 -- Occupied --
*******-101.534 -10.296  -9.473  -9.473  -7.235  -7.235  -7.226
 -7.226  -7.226  -7.226  -0.909  -0.834  -0.675  -0.505  -0.468
 -0.453  -0.338  -0.335  -0.318  -0.314
 -- Virtual --
 -0.032  -0.005   0.004   0.019   0.046   0.057   0.070   0.085
  0.090   0.093   0.096   0.119   0.126   0.137   0.142   0.142
  0.174   0.241   0.241   0.261   0.271   0.295   0.297   0.336
  0.343   0.364   0.414   0.419   0.421   0.445   0.468   0.478
  0.492   0.533   0.544   0.565   0.591   0.651   0.669   0.698
  0.713   0.867   0.912   0.919   0.922   0.924   1.013   1.018
  1.032   1.053   1.072   1.076   1.081   1.081   1.112   1.114
  1.117   1.121   1.136   1.148   1.225   1.286   1.313   1.339
  1.368   1.372   1.375   1.421   1.437   1.442   1.502   1.545
  1.612   1.623   1.635   1.707   1.717   2.149   2.170   2.210
  2.220   2.245   2.369   2.529   2.584   2.942   2.970   2.975
  3.111   3.194   3.236   3.332   3.363   3.394   3.489   3.513
  3.565   3.696   3.845   3.847   4.107   4.109   4.266   4.299
  4.330   4.341   4.365   4.365   4.377   4.388   4.393   4.419
  4.451   4.518   4.529   4.539   4.598   4.637   5.006   5.012
  5.033   5.035   5.144   5.146   5.195   5.234   5.244   5.642
  5.684   5.704   9.732   9.780  20.609  20.616  20.633  20.642
 20.833  20.879  23.981  27.146  27.148  27.177  27.189  27.205
 27.218  27.232  27.263  27.267  27.286  27.946  27.978  28.070
 36.896  36.898  36.901  36.902  36.903  36.904  36.906  36.908
 36.910  36.911  36.919  36.921  36.924  36.927  40.845  40.906
 41.092  41.099  41.167 216.278 216.354
 
 Beta MOs
 -- Occupied --
*******-101.534 -10.296  -9.473  -9.473  -7.235  -7.235  -7.226
 -7.226  -7.226  -7.226  -0.909  -0.834  -0.675  -0.505  -0.468
 -0.453  -0.338  -0.335  -0.318  -0.314
 -- Virtual --
 -0.032  -0.005   0.004   0.019   0.046   0.057   0.070   0.085
  0.090   0.093   0.096   0.119   0.126   0.137   0.142   0.142
  0.174   0.241   0.241   0.261   0.271   0.295   0.297   0.336
  0.343   0.364   0.414   0.419   0.421   0.445   0.468   0.478
  0.492   0.533   0.544   0.565   0.591   0.651   0.669   0.698
  0.713   0.867   0.912   0.919   0.922   0.924   1.013   1.018
  1.032   1.053   1.072   1.076   1.081   1.081   1.112   1.114
  1.117   1.121   1.136   1.148   1.225   1.286   1.313   1.339
  1.368   1.372   1.375   1.421   1.437   1.442   1.502   1.545
  1.612   1.623   1.635   1.707   1.717   2.149   2.170   2.210
  2.220   2.245   2.369   2.529   2.584   2.942   2.970   2.975
  3.111   3.194   3.236   3.332   3.363   3.394   3.489   3.513
  3.565   3.696   3.845   3.847   4.107   4.109   4.266   4.299
  4.330   4.341   4.365   4.365   4.377   4.388   4.393   4.419
  4.451   4.518   4.529   4.539   4.598   4.637   5.006   5.012
  5.033   5.035   5.144   5.146   5.195   5.234   5.244   5.642
  5.684   5.704   9.732   9.780  20.609  20.616  20.633  20.642
 20.833  20.879  23.981  27.146  27.148  27.177  27.189  27.205
 27.218  27.232  27.263  27.267  27.286  27.946  27.978  28.070
 36.896  36.898  36.901  36.902  36.903  36.904  36.906  36.908
 36.910  36.911  36.919  36.921  36.924  36.927  40.845  40.906
 41.092  41.099  41.167 216.278 216.354
 --------------------------------------------------------------
 
          Ground-State Mulliken Net Atomic Charges

     Atom                 Charge (a.u.)    Spin (a.u.)
  --------------------------------------------------------
      1 C                     0.226799       0.000000
      2 Cl                   -0.230305       0.000000
      3 Cl                   -0.230305       0.000000
      4 H                     0.116906       0.000000
      5 H                     0.116906       0.000000
  --------------------------------------------------------
  Sum of atomic charges =     0.000000
  Sum of spin   charges =     0.000000

 -----------------------------------------------------------------
                    Cartesian Multipole Moments
 -----------------------------------------------------------------
    Charge (ESU x 10^10)
                 0.0000
    Dipole Moment (Debye)
         X       0.0000      Y       0.0000      Z      -1.6674
       Tot       1.6674
    Quadrupole Moments (Debye-Ang)
        XX     -34.1602     XY       0.0000     YY     -31.6178
        XZ       0.0000     YZ       0.0000     ZZ     -32.5190
    Octapole Moments (Debye-Ang^2)
       XXX       0.0000    XXY       0.0000    XYY       0.0000
       YYY       0.0000    XXZ     -21.5385    XYZ       0.0000
       YYZ     -26.1422    XZZ       0.0000    YZZ       0.0000
       ZZZ     -73.3497
    Hexadecapole Moments (Debye-Ang^3)
      XXXX    -362.2942   XXXY       0.0000   XXYY     -72.4011
      XYYY       0.0000   YYYY     -42.7443   XXXZ       0.0000
      XXYZ       0.0000   XYYZ       0.0000   YYYZ       0.0000
      XXZZ     -85.5476   XYZZ       0.0000   YYZZ     -39.1832
      XZZZ       0.0000   YZZZ       0.0000   ZZZZ    -187.1597
 -----------------------------------------------------------------
 Calculating analytic gradient of the SCF energy
 Gradient of XC Energy
            1           2           3           4           5
    1   0.0000000   0.1365634  -0.1365634  -0.0000000  -0.0000000
    2   0.0000000  -0.0000000  -0.0000000  -0.1634014   0.1634014
    3   0.0918296   0.0811005   0.0811005  -0.1270153  -0.1270153
 Gradient of SCF Energy
            1           2           3           4           5
    1  -0.0000000   0.0000090  -0.0000090   0.0000000   0.0000000
    2  -0.0000000  -0.0000000  -0.0000000  -0.0000901   0.0000901
    3  -0.0007746   0.0002135   0.0002135   0.0001738   0.0001738
 Max gradient component =       7.746E-04
 RMS gradient           =       2.263E-04
 Gradient time:  CPU 53.96 s  wall 54.02 s
 Geometry Optimization Parameters
   NAtoms,    NIC,     NZ,  NCons,   NDum,   NFix, NCnnct, MaxDiis
        5      20       6       0       0       0       0       0

 Cartesian Hessian Update
 Hessian Updated using BFGS Update


** GEOMETRY OPTIMIZATION IN DELOCALIZED INTERNAL COORDINATES **
   Searching for a Minimum

   Optimization Cycle:   2

                       Coordinates (Angstroms)
     ATOM              X           Y           Z
    1  C           0.000000    0.000000   -0.003867
    2  Cl          1.484171    0.000000    0.982488
    3  Cl         -1.484171    0.000000    0.982488
    4  H           0.000000   -0.897427   -0.608207
    5  H           0.000000    0.897427   -0.608207
   Point Group: c1    Number of degrees of freedom:   9


   Energy is   -959.781144393

 Hessian Updated using BFGS Update

  4 Hessian modes will be used to form the next step
  Hessian Eigenvalues:
     0.163194    0.238235    0.264922    0.351672

 Minimum Search - Taking Simple RFO Step
 Searching for Lamda that Minimizes Along All modes
 Value Taken    Lamda =  -0.00000237
 Step Taken.  Stepsize is  0.003328

                             Maximum     Tolerance    Cnvgd?
         Gradient           0.000471      0.000300      NO
         Displacement       0.002165      0.001200      NO
         Energy change     -0.000132      0.000001      NO


 New Cartesian Coordinates Obtained by Inverse Iteration

 Displacement from previous Coordinates is:  0.004078
 Writing REM_CC_EA            5
 ----------------------------------------------------
       Standard Nuclear Orientation (Angstroms)
    I     Atom         X            Y            Z
 ----------------------------------------------------
    1      C       0.000000     0.000000    -0.002723
    2      Cl      1.485000     0.000000     0.981809
    3      Cl     -1.485000     0.000000     0.981809
    4      H       0.000000    -0.896710    -0.608100
    5      H       0.000000     0.896710    -0.608100
 ----------------------------------------------------
 Nuclear Repulsion Energy =   133.5375086134 hartrees
 There are       21 alpha and       21 beta electrons
 Applying Cartesian multipole field
    Component          Value
    ---------          -----
     (2,0,0)        1.00000E-11
     (0,2,0)        2.00000E-11
     (0,0,2)       -3.00000E-11
 Nucleus-field energy     =    -0.0000000008 hartrees
 Requested basis set is G3large
 There are 60 shells and 194 basis functions
 A cutoff of  1.0D-11 yielded   1695 shell pairs
 There are  17822 function pairs ( 24116 Cartesian)
Evaluating contribution to one-electron hamiltonian from nuclear
 Smallest overlap matrix eigenvalue = 1.83E-04
 Multipole matrices computed through 2nd order
 Guess MOs from SCF MO coefficient file
Reading MOs from coefficient file
Reading MOs from coefficient file
 An unrestricted hybrid HF-DFT SCF calculation will be
 performed using Pulay DIIS extrapolation
 Exchange:     0.2000 Hartree-Fock + 0.0800 Slater + 0.7200 Becke88
 Correlation:  0.8100 LYP + 0.1900 VWN1RPA
 Using SG-1 standard quadrature grid
 SCF converges when DIIS error is below 1.0E-08
 ---------------------------------------
  Cycle       Energy         DIIS Error
 ---------------------------------------
    1    -959.7812871396      2.41E-05
    2    -959.7811456390      5.19E-06
    3    -959.7811455409      7.18E-06
    4    -959.7811457671      8.92E-07
    5    -959.7811457819      3.34E-07
    6    -959.7811457776      6.09E-08
    7    -959.7811457793      1.08E-08
    8    -959.7811457800      3.28E-09 Convergence criterion met
 ---------------------------------------
 One-Electron    Energy = -1589.0347320290
 Total Coulomb   Energy =   558.4165279922
 Alpha Exchange  Energy =    -6.0955848576
 Beta  Exchange  Energy =    -6.0955848576
 DFT   Exchange  Energy =   -48.3909164156
 DFT Correlation Energy =    -2.1183642251
 Nuclear Repu.   Energy =   133.5375086126
 Nuclear Attr.   Energy = -2547.3429161191
 Kinetic         Energy =   958.3081840901
 <S^2> = 0.0000
 SCF time:  CPU 88.34 s  wall 88.85 s
 Final Alpha MO Eigenvalues
            1           2           3           4           5           6
    1-101.5345223-101.5345218 -10.2961253  -9.4730941  -9.4730890  -7.2351406
            7           8           9          10          11          12
    1  -7.2351378  -7.2264462  -7.2264443  -7.2262574  -7.2262561  -0.9089017
           13          14          15          16          17          18
    1  -0.8340144  -0.6745163  -0.5052563  -0.4682869  -0.4526804  -0.3381445
           19          20          21          22          23          24
    1  -0.3353262  -0.3185059  -0.3139193  -0.0324709  -0.0053728   0.0037120
           25          26
    1   0.0191251   0.0461984
 Final Beta MO Eigenvalues
            1           2           3           4           5           6
    1-101.5345223-101.5345218 -10.2961253  -9.4730941  -9.4730890  -7.2351406
            7           8           9          10          11          12
    1  -7.2351378  -7.2264462  -7.2264443  -7.2262574  -7.2262561  -0.9089017
           13          14          15          16          17          18
    1  -0.8340144  -0.6745163  -0.5052563  -0.4682869  -0.4526804  -0.3381445
           19          20          21          22          23          24
    1  -0.3353262  -0.3185059  -0.3139193  -0.0324709  -0.0053728   0.0037120
           25          26
    1   0.0191251   0.0461984
 Analysis of SCF Wavefunction
 
 --------------------------------------------------------------
                    Orbital Energies (a.u.)
 --------------------------------------------------------------
 
 Alpha MOs
 -- Occupied --
*******-101.535 -10.296  -9.473  -9.473  -7.235  -7.235  -7.226
 -7.226  -7.226  -7.226  -0.909  -0.834  -0.675  -0.505  -0.468
 -0.453  -0.338  -0.335  -0.319  -0.314
 -- Virtual --
 -0.032  -0.005   0.004   0.019   0.046   0.057   0.070   0.085
  0.090   0.093   0.096   0.119   0.126   0.137   0.141   0.142
  0.174   0.241   0.241   0.261   0.271   0.295   0.297   0.336
  0.343   0.364   0.415   0.419   0.421   0.445   0.468   0.478
  0.492   0.533   0.544   0.565   0.591   0.651   0.669   0.698
  0.713   0.867   0.911   0.919   0.922   0.923   1.014   1.019
  1.031   1.053   1.072   1.076   1.081   1.081   1.112   1.114
  1.117   1.121   1.135   1.148   1.225   1.286   1.313   1.339
  1.368   1.372   1.374   1.421   1.438   1.443   1.502   1.545
  1.612   1.622   1.635   1.706   1.717   2.149   2.170   2.210
  2.221   2.245   2.369   2.529   2.583   2.942   2.970   2.975
  3.111   3.194   3.236   3.332   3.363   3.394   3.489   3.513
  3.565   3.696   3.846   3.847   4.108   4.110   4.266   4.298
  4.330   4.341   4.365   4.365   4.377   4.388   4.392   4.419
  4.451   4.518   4.529   4.538   4.598   4.636   5.006   5.012
  5.033   5.035   5.144   5.146   5.195   5.235   5.243   5.643
  5.684   5.704   9.732   9.780  20.609  20.615  20.634  20.642
 20.833  20.879  23.981  27.146  27.148  27.177  27.189  27.205
 27.218  27.233  27.263  27.267  27.287  27.946  27.979  28.069
 36.896  36.898  36.901  36.902  36.903  36.904  36.906  36.908
 36.910  36.911  36.919  36.921  36.924  36.927  40.845  40.906
 41.092  41.099  41.167 216.278 216.354
 
 Beta MOs
 -- Occupied --
*******-101.535 -10.296  -9.473  -9.473  -7.235  -7.235  -7.226
 -7.226  -7.226  -7.226  -0.909  -0.834  -0.675  -0.505  -0.468
 -0.453  -0.338  -0.335  -0.319  -0.314
 -- Virtual --
 -0.032  -0.005   0.004   0.019   0.046   0.057   0.070   0.085
  0.090   0.093   0.096   0.119   0.126   0.137   0.141   0.142
  0.174   0.241   0.241   0.261   0.271   0.295   0.297   0.336
  0.343   0.364   0.415   0.419   0.421   0.445   0.468   0.478
  0.492   0.533   0.544   0.565   0.591   0.651   0.669   0.698
  0.713   0.867   0.911   0.919   0.922   0.923   1.014   1.019
  1.031   1.053   1.072   1.076   1.081   1.081   1.112   1.114
  1.117   1.121   1.135   1.148   1.225   1.286   1.313   1.339
  1.368   1.372   1.374   1.421   1.438   1.443   1.502   1.545
  1.612   1.622   1.635   1.706   1.717   2.149   2.170   2.210
  2.221   2.245   2.369   2.529   2.583   2.942   2.970   2.975
  3.111   3.194   3.236   3.332   3.363   3.394   3.489   3.513
  3.565   3.696   3.846   3.847   4.108   4.110   4.266   4.298
  4.330   4.341   4.365   4.365   4.377   4.388   4.392   4.419
  4.451   4.518   4.529   4.538   4.598   4.636   5.006   5.012
  5.033   5.035   5.144   5.146   5.195   5.235   5.243   5.643
  5.684   5.704   9.732   9.780  20.609  20.615  20.634  20.642
 20.833  20.879  23.981  27.146  27.148  27.177  27.189  27.205
 27.218  27.233  27.263  27.267  27.287  27.946  27.979  28.069
 36.896  36.898  36.901  36.902  36.903  36.904  36.906  36.908
 36.910  36.911  36.919  36.921  36.924  36.927  40.845  40.906
 41.092  41.099  41.167 216.278 216.354
 --------------------------------------------------------------
 
          Ground-State Mulliken Net Atomic Charges

     Atom                 Charge (a.u.)    Spin (a.u.)
  --------------------------------------------------------
      1 C                     0.226313       0.000000
      2 Cl                   -0.230103       0.000000
      3 Cl                   -0.230103       0.000000
      4 H                     0.116946       0.000000
      5 H                     0.116946       0.000000
  --------------------------------------------------------
  Sum of atomic charges =     0.000000
  Sum of spin   charges =     0.000000

 -----------------------------------------------------------------
                    Cartesian Multipole Moments
 -----------------------------------------------------------------
    Charge (ESU x 10^10)
                 0.0000
    Dipole Moment (Debye)
         X       0.0000      Y       0.0000      Z      -1.6653
       Tot       1.6653
    Quadrupole Moments (Debye-Ang)
        XX     -34.1522     XY       0.0000     YY     -31.6214
        XZ       0.0000     YZ       0.0000     ZZ     -32.5202
    Octapole Moments (Debye-Ang^2)
       XXX       0.0000    XXY       0.0000    XYY       0.0000
       YYY       0.0000    XXZ     -21.5255    XYZ       0.0000
       YYZ     -26.1271    XZZ       0.0000    YZZ       0.0000
       ZZZ     -73.3276
    Hexadecapole Moments (Debye-Ang^3)
      XXXX    -362.5421   XXXY       0.0000   XXYY     -72.4597
      XYYY       0.0000   YYYY     -42.7433   XXXZ       0.0000
      XXYZ       0.0000   XYYZ       0.0000   YYYZ       0.0000
      XXZZ     -85.5932   XYZZ       0.0000   YYZZ     -39.1478
      XZZZ       0.0000   YZZZ       0.0000   ZZZZ    -186.9867
 -----------------------------------------------------------------
 Calculating analytic gradient of the SCF energy
 Gradient of XC Energy
            1           2           3           4           5
    1  -0.0000000   0.1368547  -0.1368547   0.0000000   0.0000000
    2  -0.0000000   0.0000000   0.0000000  -0.1631215   0.1631215
    3   0.0928191   0.0808786   0.0808786  -0.1272881  -0.1272881
 Gradient of SCF Energy
            1           2           3           4           5
    1  -0.0000000   0.0000669  -0.0000669  -0.0000000  -0.0000000
    2  -0.0000000   0.0000000   0.0000000   0.0000261  -0.0000261
    3  -0.0002766   0.0000577   0.0000577   0.0000806   0.0000806
 Max gradient component =       2.766E-04
 RMS gradient           =       8.424E-05
 Gradient time:  CPU 53.97 s  wall 54.05 s
 Geometry Optimization Parameters
   NAtoms,    NIC,     NZ,  NCons,   NDum,   NFix, NCnnct, MaxDiis
        5      20       6       0       0       0       0       0

 Cartesian Hessian Update
 Hessian Updated using BFGS Update


** GEOMETRY OPTIMIZATION IN DELOCALIZED INTERNAL COORDINATES **
   Searching for a Minimum

   Optimization Cycle:   3

                       Coordinates (Angstroms)
     ATOM              X           Y           Z
    1  C           0.000000    0.000000   -0.002723
    2  Cl          1.485000    0.000000    0.981809
    3  Cl         -1.485000    0.000000    0.981809
    4  H           0.000000   -0.896710   -0.608100
    5  H           0.000000    0.896710   -0.608100
   Point Group: c1    Number of degrees of freedom:   9


   Energy is   -959.781145780

 Hessian Updated using BFGS Update

  4 Hessian modes will be used to form the next step
  Hessian Eigenvalues:
     0.135190    0.215130    0.287062    0.354498

 Minimum Search - Taking Simple RFO Step
 Searching for Lamda that Minimizes Along All modes
 Value Taken    Lamda =   0.00000000
 Step Taken.  Stepsize is  0.001147

                             Maximum     Tolerance    Cnvgd?
         Gradient           0.000189      0.000300     YES
         Displacement       0.001050      0.001200     YES
         Energy change     -0.000001      0.000001      NO


                       Distance Matrix (Angstroms)
             C (  1)   Cl(  2)   Cl(  3)   H (  4)
   Cl(  2)  1.781720
   Cl(  3)  1.781720  2.970000
   H (  4)  1.081929  2.353109  2.353109
   H (  5)  1.081929  2.353109  2.353109  1.793420
 


 ******************************
 **  OPTIMIZATION CONVERGED  **
 ******************************
 Analysis of SCF Wavefunction
 
 --------------------------------------------------------------
                    Orbital Energies (a.u.)
 --------------------------------------------------------------
 
 Alpha MOs
 -- Occupied --
*******-101.535 -10.296  -9.473  -9.473  -7.235  -7.235  -7.226
 -7.226  -7.226  -7.226  -0.909  -0.834  -0.675  -0.505  -0.468
 -0.453  -0.338  -0.335  -0.319  -0.314
 -- Virtual --
 -0.032  -0.005   0.004   0.019   0.046   0.057   0.070   0.085
  0.090   0.093   0.096   0.119   0.126   0.137   0.141   0.142
  0.174   0.241   0.241   0.261   0.271   0.295   0.297   0.336
  0.343   0.364   0.415   0.419   0.421   0.445   0.468   0.478
  0.492   0.533   0.544   0.565   0.591   0.651   0.669   0.698
  0.713   0.867   0.911   0.919   0.922   0.923   1.014   1.019
  1.031   1.053   1.072   1.076   1.081   1.081   1.112   1.114
  1.117   1.121   1.135   1.148   1.225   1.286   1.313   1.339
  1.368   1.372   1.374   1.421   1.438   1.443   1.502   1.545
  1.612   1.622   1.635   1.706   1.717   2.149   2.170   2.210
  2.221   2.245   2.369   2.529   2.583   2.942   2.970   2.975
  3.111   3.194   3.236   3.332   3.363   3.394   3.489   3.513
  3.565   3.696   3.846   3.847   4.108   4.110   4.266   4.298
  4.330   4.341   4.365   4.365   4.377   4.388   4.392   4.419
  4.451   4.518   4.529   4.538   4.598   4.636   5.006   5.012
  5.033   5.035   5.144   5.146   5.195   5.235   5.243   5.643
  5.684   5.704   9.732   9.780  20.609  20.615  20.634  20.642
 20.833  20.879  23.981  27.146  27.148  27.177  27.189  27.205
 27.218  27.233  27.263  27.267  27.287  27.946  27.979  28.069
 36.896  36.898  36.901  36.902  36.903  36.904  36.906  36.908
 36.910  36.911  36.919  36.921  36.924  36.927  40.845  40.906
 41.092  41.099  41.167 216.278 216.354
 
 Beta MOs
 -- Occupied --
*******-101.535 -10.296  -9.473  -9.473  -7.235  -7.235  -7.226
 -7.226  -7.226  -7.226  -0.909  -0.834  -0.675  -0.505  -0.468
 -0.453  -0.338  -0.335  -0.319  -0.314
 -- Virtual --
 -0.032  -0.005   0.004   0.019   0.046   0.057   0.070   0.085
  0.090   0.093   0.096   0.119   0.126   0.137   0.141   0.142
  0.174   0.241   0.241   0.261   0.271   0.295   0.297   0.336
  0.343   0.364   0.415   0.419   0.421   0.445   0.468   0.478
  0.492   0.533   0.544   0.565   0.591   0.651   0.669   0.698
  0.713   0.867   0.911   0.919   0.922   0.923   1.014   1.019
  1.031   1.053   1.072   1.076   1.081   1.081   1.112   1.114
  1.117   1.121   1.135   1.148   1.225   1.286   1.313   1.339
  1.368   1.372   1.374   1.421   1.438   1.443   1.502   1.545
  1.612   1.622   1.635   1.706   1.717   2.149   2.170   2.210
  2.221   2.245   2.369   2.529   2.583   2.942   2.970   2.975
  3.111   3.194   3.236   3.332   3.363   3.394   3.489   3.513
  3.565   3.696   3.846   3.847   4.108   4.110   4.266   4.298
  4.330   4.341   4.365   4.365   4.377   4.388   4.392   4.419
  4.451   4.518   4.529   4.538   4.598   4.636   5.006   5.012
  5.033   5.035   5.144   5.146   5.195   5.235   5.243   5.643
  5.684   5.704   9.732   9.780  20.609  20.615  20.634  20.642
 20.833  20.879  23.981  27.146  27.148  27.177  27.189  27.205
 27.218  27.233  27.263  27.267  27.287  27.946  27.979  28.069
 36.896  36.898  36.901  36.902  36.903  36.904  36.906  36.908
 36.910  36.911  36.919  36.921  36.924  36.927  40.845  40.906
 41.092  41.099  41.167 216.278 216.354
 --------------------------------------------------------------
 
          Ground-State Mulliken Net Atomic Charges

     Atom                 Charge (a.u.)    Spin (a.u.)
  --------------------------------------------------------
      1 C                     0.226313       0.000000
      2 Cl                   -0.230103       0.000000
      3 Cl                   -0.230103       0.000000
      4 H                     0.116946       0.000000
      5 H                     0.116946       0.000000
  --------------------------------------------------------
  Sum of atomic charges =     0.000000
  Sum of spin   charges =     0.000000

 -----------------------------------------------------------------
                    Cartesian Multipole Moments
 -----------------------------------------------------------------
    Charge (ESU x 10^10)
                 0.0000
    Dipole Moment (Debye)
         X       0.0000      Y       0.0000      Z      -1.6653
       Tot       1.6653
    Quadrupole Moments (Debye-Ang)
        XX     -34.1522     XY       0.0000     YY     -31.6214
        XZ       0.0000     YZ       0.0000     ZZ     -32.5202
    Octapole Moments (Debye-Ang^2)
       XXX       0.0000    XXY       0.0000    XYY       0.0000
       YYY       0.0000    XXZ     -21.5255    XYZ       0.0000
       YYZ     -26.1271    XZZ       0.0000    YZZ       0.0000
       ZZZ     -73.3276
    Hexadecapole Moments (Debye-Ang^3)
      XXXX    -362.5421   XXXY       0.0000   XXYY     -72.4597
      XYYY       0.0000   YYYY     -42.7433   XXXZ       0.0000
      XXYZ       0.0000   XYYZ       0.0000   YYYZ       0.0000
      XXZZ     -85.5932   XYZZ       0.0000   YYZZ     -39.1478
      XZZZ       0.0000   YZZZ       0.0000   ZZZZ    -186.9867
 -----------------------------------------------------------------
 Total job time:  506.08s(wall), 503.93s(cpu) 
 Wed Jul 24 16:09:48 2013

        *************************************************************
        *                                                           *
        *  Thank you very much for using Q-Chem.  Have a nice day.  *
        *                                                           *
        *************************************************************


0 sent ACK to 0 
now end server 0 ... 
 
**********************************************************************
Job 2 of 2 
**********************************************************************
 
Process 0 of 1 is on cl120.stfx.acenet.ca - thread support 1
initial socket setup ...start
initial socket setup ...done 
now start server 0 ... 

cmd = /usr/bin/ssh clhead /usr/local/qchem/bin/get_hostid 1246232384 > /scratch/tmp/6067123.1.short.q/qchem28710/lic.dat
                  Welcome to Q-Chem
     A Quantum Leap Into The Future Of Chemistry

 Y. Shao, L. Fusti-Molnar, Y. Jung, J. Kussmann, C. Ochsenfeld,
 S. T. Brown, A. T. B. Gilbert, L. V. Slipchenko,S. V. Levchenko,
 D. P. O'Neill, R. A. DiStasio Jr., R. C. Lochan, T. Wang,
 G. J. O. Beran, N. A. Besley, J. M. Herbert, C. Y. Lin,
 T. Van Voorhis, S. H. Chien, A. Sodt, R. P. Steele, 
 V. A. Rassolov, P. E. Maslen, P. P. Korambath, R. D. Adamson,
 B. Austin, J. Baker, E. F. C. Byrd, H. Dachsel, R. J. Doerksen,
 A. Dreuw, B. D. Dunietz, A. D. Dutoi, T. R. Furlani,
 S. R. Gwaltney, A. Heyden, S. Hirata, C.-P. Hsu, G. Kedziora,
 R. Z. Khaliullin, P. Klunzinger, A. M. Lee, M. S. Lee, W. Liang,
 I. Lotan, N. Nair, B. Peters, E. I. Proynov, P. A. Pieniazek, 
 Y. M. Rhee, J. Ritchie, E. Rosta, C. D. Sherrill, 
 A. C. Simmonett, J. E. Subotnik, H. L. Woodcock III,
 W. Zhang, A. T. Bell, A. K. Chakraborty, D. M. Chipman,
 F. J. Keil, A. Warshel, W. J. Hehre, H. F. Schaefer III,
 J. Kong, A. I. Krylov, P. M. W. Gill, M. Head-Gordon,
 Q-Chem, Version 3.1, Q-Chem, Inc., Pittsburgh, PA (2007).

 Additional authors for Version 3.1: 
 Z. Gan, Y. Zhao, N. E. Schultz, D. Truhlar, E. Epifanovsky and M. Oana.

 Additional authors for Version 3.2: 
 R. Baer, B. R. Brooks, D. Casanova, J.-D. Chai, C.-L. Cheng, 
 C. Cramer, D. Crittenden, A. Ghysels, G. Hawkins, E. G. Hohenstein, 
 C. Kelley, W. Kurlancheek, D. Liotard, E. Livshits, P. Manohar, 
 A. Marenich, D. Neuhauser, R. Olson, M. A. Rohrdanz, K. S. Thanthiriwatte, 
 A. J. W. Thom, V. Vanovschi, C. F. Williams, Q. Wu and Z.-Q. You. 


 Intel X86 Linux Version

 Q-chem begins on Wed Jul 24 16:09:51 2013  

 Parallel job on  1  processors
Processing $rem in /usr/local/qchem/config/preferences.

theFileMan(): MAXOPENFILES=974 MAX_SUB_FILE_NUM=16
Maximum size of a physical file is 2.0 GB, maximum size of a tmp-file is 32.0 GB


--------------------------------------------------------------
User input:
--------------------------------------------------------------

$molecule 
READ 
$end 

$rem
   EXCHANGE B3LYP
   UNRESTRICTED TRUE
   SYMMETRY_DECOMPOSITION       0
   BASIS                   g3large
   JOBTYPE                 freq
   mem_static              760
   max_scf_cycles          200
   scf_final_print         1
   sym_ignore              true
   JOBTYPE                 freq
   IDERIV 1
   SCF_GUESS READ
$end
--------------------------------------------------------------
 Writing REM_CC_EA            5
 ----------------------------------------------------
       Standard Nuclear Orientation (Angstroms)
    I     Atom         X            Y            Z
 ----------------------------------------------------
    1      C       0.000000     0.000000    -0.002723
    2      Cl      1.485000     0.000000     0.981809
    3      Cl     -1.485000     0.000000     0.981809
    4      H       0.000000    -0.896710    -0.608100
    5      H       0.000000     0.896710    -0.608100
 ----------------------------------------------------
 Nuclear Repulsion Energy =   133.5375086134 hartrees
 There are       21 alpha and       21 beta electrons
 Requested basis set is G3large
 There are 60 shells and 194 basis functions

Total QAlloc Memory Limit   2000 MB
Mega-Array Size       759 MB
MEM_STATIC part       760 MB

                       Distance Matrix (Angstroms)
             C (  1)   Cl(  2)   Cl(  3)   H (  4)
   Cl(  2)  1.781720
   Cl(  3)  1.781720  2.970000
   H (  4)  1.081929  2.353109  2.353109
   H (  5)  1.081929  2.353109  2.353109  1.793420
 
 A cutoff of  1.0D-11 yielded   1695 shell pairs
 There are  17822 function pairs ( 24116 Cartesian)
Evaluating contribution to one-electron hamiltonian from nuclear
 Smallest overlap matrix eigenvalue = 1.83E-04
 Multipole matrices computed through 2nd order
 Guess MOs from SCF MO coefficient file
Reading MOs from coefficient file
Reading MOs from coefficient file
 An unrestricted hybrid HF-DFT SCF calculation will be
 performed using Pulay DIIS extrapolation
 Exchange:     0.2000 Hartree-Fock + 0.0800 Slater + 0.7200 Becke88
 Correlation:  0.8100 LYP + 0.1900 VWN1RPA
 Using SG-1 standard quadrature grid
 SCF converges when DIIS error is below 1.0E-08
 ---------------------------------------
  Cycle       Energy         DIIS Error
 ---------------------------------------
    1    -959.7811457754      3.09E-10
    2    -959.7811457770      3.50E-10 Convergence criterion met
 ---------------------------------------
 One-Electron    Energy = -1589.0347332635
 Total Coulomb   Energy =   558.4165293317
 Alpha Exchange  Energy =    -6.0955848677
 Beta  Exchange  Energy =    -6.0955848677
 DFT   Exchange  Energy =   -48.3909164955
 DFT Correlation Energy =    -2.1183642277
 Nuclear Repu.   Energy =   133.5375086134
 Nuclear Attr.   Energy = -2547.3429187412
 Kinetic         Energy =   958.3081854777
 <S^2> = 0.0000
 SCF time:  CPU 26.03 s  wall 26.10 s
 Final Alpha MO Eigenvalues
            1           2           3           4           5           6
    1-101.5345223-101.5345218 -10.2961253  -9.4730941  -9.4730890  -7.2351406
            7           8           9          10          11          12
    1  -7.2351378  -7.2264462  -7.2264443  -7.2262574  -7.2262561  -0.9089017
           13          14          15          16          17          18
    1  -0.8340144  -0.6745163  -0.5052563  -0.4682869  -0.4526804  -0.3381445
           19          20          21          22          23          24
    1  -0.3353262  -0.3185059  -0.3139193  -0.0324709  -0.0053728   0.0037120
           25          26
    1   0.0191251   0.0461984
 Final Beta MO Eigenvalues
            1           2           3           4           5           6
    1-101.5345223-101.5345218 -10.2961253  -9.4730941  -9.4730890  -7.2351406
            7           8           9          10          11          12
    1  -7.2351378  -7.2264462  -7.2264443  -7.2262574  -7.2262561  -0.9089017
           13          14          15          16          17          18
    1  -0.8340144  -0.6745163  -0.5052563  -0.4682869  -0.4526804  -0.3381445
           19          20          21          22          23          24
    1  -0.3353262  -0.3185059  -0.3139193  -0.0324709  -0.0053728   0.0037120
           25          26
    1   0.0191251   0.0461984
 Analysis of SCF Wavefunction
 
 --------------------------------------------------------------
                    Orbital Energies (a.u.)
 --------------------------------------------------------------
 
 Alpha MOs
 -- Occupied --
*******-101.535 -10.296  -9.473  -9.473  -7.235  -7.235  -7.226
 -7.226  -7.226  -7.226  -0.909  -0.834  -0.675  -0.505  -0.468
 -0.453  -0.338  -0.335  -0.319  -0.314
 -- Virtual --
 -0.032  -0.005   0.004   0.019   0.046   0.057   0.070   0.085
  0.090   0.093   0.096   0.119   0.126   0.137   0.141   0.142
  0.174   0.241   0.241   0.261   0.271   0.295   0.297   0.336
  0.343   0.364   0.415   0.419   0.421   0.445   0.468   0.478
  0.492   0.533   0.544   0.565   0.591   0.651   0.669   0.698
  0.713   0.867   0.911   0.919   0.922   0.923   1.014   1.019
  1.031   1.053   1.072   1.076   1.081   1.081   1.112   1.114
  1.117   1.121   1.135   1.148   1.225   1.286   1.313   1.339
  1.368   1.372   1.374   1.421   1.438   1.443   1.502   1.545
  1.612   1.622   1.635   1.706   1.717   2.149   2.170   2.210
  2.221   2.245   2.369   2.529   2.583   2.942   2.970   2.975
  3.111   3.194   3.236   3.332   3.363   3.394   3.489   3.513
  3.565   3.696   3.846   3.847   4.108   4.110   4.266   4.298
  4.330   4.341   4.365   4.365   4.377   4.388   4.392   4.419
  4.451   4.518   4.529   4.538   4.598   4.636   5.006   5.012
  5.033   5.035   5.144   5.146   5.195   5.235   5.243   5.643
  5.684   5.704   9.732   9.780  20.609  20.615  20.634  20.642
 20.833  20.879  23.981  27.146  27.148  27.177  27.189  27.205
 27.218  27.233  27.263  27.267  27.287  27.946  27.979  28.069
 36.896  36.898  36.901  36.902  36.903  36.904  36.906  36.908
 36.910  36.911  36.919  36.921  36.924  36.927  40.845  40.906
 41.092  41.099  41.167 216.278 216.354
 
 Beta MOs
 -- Occupied --
*******-101.535 -10.296  -9.473  -9.473  -7.235  -7.235  -7.226
 -7.226  -7.226  -7.226  -0.909  -0.834  -0.675  -0.505  -0.468
 -0.453  -0.338  -0.335  -0.319  -0.314
 -- Virtual --
 -0.032  -0.005   0.004   0.019   0.046   0.057   0.070   0.085
  0.090   0.093   0.096   0.119   0.126   0.137   0.141   0.142
  0.174   0.241   0.241   0.261   0.271   0.295   0.297   0.336
  0.343   0.364   0.415   0.419   0.421   0.445   0.468   0.478
  0.492   0.533   0.544   0.565   0.591   0.651   0.669   0.698
  0.713   0.867   0.911   0.919   0.922   0.923   1.014   1.019
  1.031   1.053   1.072   1.076   1.081   1.081   1.112   1.114
  1.117   1.121   1.135   1.148   1.225   1.286   1.313   1.339
  1.368   1.372   1.374   1.421   1.438   1.443   1.502   1.545
  1.612   1.622   1.635   1.706   1.717   2.149   2.170   2.210
  2.221   2.245   2.369   2.529   2.583   2.942   2.970   2.975
  3.111   3.194   3.236   3.332   3.363   3.394   3.489   3.513
  3.565   3.696   3.846   3.847   4.108   4.110   4.266   4.298
  4.330   4.341   4.365   4.365   4.377   4.388   4.392   4.419
  4.451   4.518   4.529   4.538   4.598   4.636   5.006   5.012
  5.033   5.035   5.144   5.146   5.195   5.235   5.243   5.643
  5.684   5.704   9.732   9.780  20.609  20.615  20.634  20.642
 20.833  20.879  23.981  27.146  27.148  27.177  27.189  27.205
 27.218  27.233  27.263  27.267  27.287  27.946  27.979  28.069
 36.896  36.898  36.901  36.902  36.903  36.904  36.906  36.908
 36.910  36.911  36.919  36.921  36.924  36.927  40.845  40.906
 41.092  41.099  41.167 216.278 216.354
 --------------------------------------------------------------
 
          Ground-State Mulliken Net Atomic Charges

     Atom                 Charge (a.u.)    Spin (a.u.)
  --------------------------------------------------------
      1 C                     0.226313       0.000000
      2 Cl                   -0.230103       0.000000
      3 Cl                   -0.230103       0.000000
      4 H                     0.116946       0.000000
      5 H                     0.116946       0.000000
  --------------------------------------------------------
  Sum of atomic charges =     0.000000
  Sum of spin   charges =     0.000000

 -----------------------------------------------------------------
                    Cartesian Multipole Moments
 -----------------------------------------------------------------
    Charge (ESU x 10^10)
                 0.0000
    Dipole Moment (Debye)
         X       0.0000      Y       0.0000      Z      -1.6653
       Tot       1.6653
    Quadrupole Moments (Debye-Ang)
        XX     -34.1522     XY       0.0000     YY     -31.6214
        XZ       0.0000     YZ       0.0000     ZZ     -32.5202
    Octapole Moments (Debye-Ang^2)
       XXX       0.0000    XXY       0.0000    XYY       0.0000
       YYY       0.0000    XXZ     -21.5255    XYZ       0.0000
       YYZ     -26.1271    XZZ       0.0000    YZZ       0.0000
       ZZZ     -73.3276
    Hexadecapole Moments (Debye-Ang^3)
      XXXX    -362.5421   XXXY       0.0000   XXYY     -72.4597
      XYYY       0.0000   YYYY     -42.7433   XXXZ       0.0000
      XXYZ       0.0000   XYYZ       0.0000   YYYZ       0.0000
      XXZZ     -85.5932   XYZZ       0.0000   YYZZ     -39.1478
      XZZZ       0.0000   YZZZ       0.0000   ZZZZ    -186.9867
 -----------------------------------------------------------------
 Calculating analytic gradient of the SCF energy
 Gradient of XC Energy
            1           2           3           4           5
    1   0.0000000   0.1368547  -0.1368547  -0.0000000  -0.0000000
    2  -0.0000000   0.0000000   0.0000000  -0.1631215   0.1631215
    3   0.0928191   0.0808786   0.0808786  -0.1272881  -0.1272881
 Gradient of SCF Energy
            1           2           3           4           5
    1   0.0000000   0.0000669  -0.0000669   0.0000000  -0.0000000
    2  -0.0000000   0.0000000   0.0000000   0.0000261  -0.0000261
    3  -0.0002766   0.0000577   0.0000577   0.0000806   0.0000806
 Max gradient component =       2.766E-04
 RMS gradient           =       8.424E-05
 Gradient time:  CPU 55.30 s  wall 55.68 s
 ######################################################
 ######################################################
 # Starting finite difference calculation for IDERIV  #
 Finite diff step size: 1.89e-03 a.u.
 Writing REM_CC_EA            5
 ----------------------------------------------------
       Standard Nuclear Orientation (Angstroms)
    I     Atom         X            Y            Z
 ----------------------------------------------------
    1      C       0.001000     0.000000    -0.002723
    2      Cl      1.485000     0.000000     0.981809
    3      Cl     -1.485000     0.000000     0.981809
    4      H       0.000000    -0.896710    -0.608100
    5      H       0.000000     0.896710    -0.608100
 ----------------------------------------------------
 Nuclear Repulsion Energy =   133.5375164508 hartrees
 There are       21 alpha and       21 beta electrons

                       Distance Matrix (Angstroms)
             C (  1)   Cl(  2)   Cl(  3)   H (  4)
   Cl(  2)  1.780887
   Cl(  3)  1.782554  2.970000
   H (  4)  1.081929  2.353109  2.353109
   H (  5)  1.081929  2.353109  2.353109  1.793420
 
 Requested basis set is G3large
 There are 60 shells and 194 basis functions
 A cutoff of  1.0D-11 yielded   1695 shell pairs
 There are  17822 function pairs ( 24116 Cartesian)
Evaluating contribution to one-electron hamiltonian from nuclear
 Smallest overlap matrix eigenvalue = 1.83E-04
 Multipole matrices computed through 2nd order
 Guess MOs from SCF MO coefficient file
Reading MOs from coefficient file
Reading MOs from coefficient file
 An unrestricted hybrid HF-DFT SCF calculation will be
 performed using Pulay DIIS extrapolation
 Exchange:     0.2000 Hartree-Fock + 0.0800 Slater + 0.7200 Becke88
 Correlation:  0.8100 LYP + 0.1900 VWN1RPA
 Using SG-1 standard quadrature grid
 SCF converges when DIIS error is below 1.0E-08
 ---------------------------------------
  Cycle       Energy         DIIS Error
 ---------------------------------------
    1    -959.7811451479      2.68E-05
    2    -959.7811452028      5.70E-06
    3    -959.7811452068      5.97E-06
    4    -959.7811453562      5.70E-07
    5    -959.7811453580      1.17E-07
    6    -959.7811453587      3.17E-08
    7    -959.7811453583      4.48E-09 Convergence criterion met
 ---------------------------------------
 One-Electron    Energy = -1589.0347473813
 Total Coulomb   Energy =   558.4165360700
 Alpha Exchange  Energy =    -6.0955848595
 Beta  Exchange  Energy =    -6.0955848595
 DFT   Exchange  Energy =   -48.3909165466
 DFT Correlation Energy =    -2.1183642322
 Nuclear Repu.   Energy =   133.5375164508
 Nuclear Attr.   Energy = -2547.3429344718
 Kinetic         Energy =   958.3081870905
 <S^2> = 0.0000
 SCF time:  CPU 81.71 s  wall 82.10 s
 Final Alpha MO Eigenvalues
            1           2           3           4           5           6
    1-101.5346298-101.5344143 -10.2961254  -9.4732062  -9.4729769  -7.2352532
            7           8           9          10          11          12
    1  -7.2350251  -7.2265600  -7.2263699  -7.2263305  -7.2261435  -0.9089027
           13          14          15          16          17          18
    1  -0.8340138  -0.6745162  -0.5052563  -0.4682886  -0.4526792  -0.3381445
           19          20          21          22          23          24
    1  -0.3353265  -0.3185056  -0.3139190  -0.0324715  -0.0053734   0.0037128
           25          26
    1   0.0191250   0.0461984
 Final Beta MO Eigenvalues
            1           2           3           4           5           6
    1-101.5346298-101.5344143 -10.2961254  -9.4732062  -9.4729769  -7.2352532
            7           8           9          10          11          12
    1  -7.2350251  -7.2265600  -7.2263699  -7.2263305  -7.2261435  -0.9089027
           13          14          15          16          17          18
    1  -0.8340138  -0.6745162  -0.5052563  -0.4682886  -0.4526792  -0.3381445
           19          20          21          22          23          24
    1  -0.3353265  -0.3185056  -0.3139190  -0.0324715  -0.0053734   0.0037128
           25          26
    1   0.0191250   0.0461984
 Analysis of SCF Wavefunction
 
 --------------------------------------------------------------
                    Orbital Energies (a.u.)
 --------------------------------------------------------------
 
 Alpha MOs
 -- Occupied --
*******-101.534 -10.296  -9.473  -9.473  -7.235  -7.235  -7.227
 -7.226  -7.226  -7.226  -0.909  -0.834  -0.675  -0.505  -0.468
 -0.453  -0.338  -0.335  -0.319  -0.314
 -- Virtual --
 -0.032  -0.005   0.004   0.019   0.046   0.057   0.070   0.085
  0.090   0.093   0.096   0.119   0.126   0.137   0.141   0.142
  0.174   0.241   0.241   0.261   0.271   0.295   0.297   0.336
  0.343   0.364   0.415   0.419   0.421   0.445   0.468   0.478
  0.492   0.533   0.544   0.565   0.591   0.651   0.669   0.698
  0.713   0.867   0.911   0.919   0.922   0.923   1.014   1.019
  1.031   1.053   1.072   1.076   1.081   1.081   1.112   1.114
  1.117   1.121   1.135   1.148   1.225   1.286   1.313   1.339
  1.368   1.372   1.374   1.421   1.438   1.443   1.502   1.545
  1.612   1.622   1.635   1.706   1.717   2.149   2.170   2.210
  2.221   2.245   2.369   2.529   2.583   2.942   2.970   2.975
  3.111   3.194   3.236   3.332   3.363   3.394   3.489   3.513
  3.565   3.696   3.846   3.847   4.108   4.110   4.266   4.298
  4.330   4.341   4.365   4.365   4.377   4.388   4.392   4.419
  4.451   4.518   4.529   4.538   4.598   4.636   5.006   5.012
  5.033   5.035   5.144   5.146   5.195   5.235   5.243   5.643
  5.684   5.704   9.732   9.780  20.609  20.615  20.634  20.642
 20.833  20.879  23.981  27.146  27.148  27.177  27.189  27.205
 27.218  27.233  27.263  27.267  27.287  27.946  27.979  28.069
 36.896  36.898  36.901  36.902  36.903  36.904  36.906  36.908
 36.910  36.911  36.919  36.921  36.924  36.927  40.845  40.906
 41.092  41.099  41.167 216.278 216.354
 
 Beta MOs
 -- Occupied --
*******-101.534 -10.296  -9.473  -9.473  -7.235  -7.235  -7.227
 -7.226  -7.226  -7.226  -0.909  -0.834  -0.675  -0.505  -0.468
 -0.453  -0.338  -0.335  -0.319  -0.314
 -- Virtual --
 -0.032  -0.005   0.004   0.019   0.046   0.057   0.070   0.085
  0.090   0.093   0.096   0.119   0.126   0.137   0.141   0.142
  0.174   0.241   0.241   0.261   0.271   0.295   0.297   0.336
  0.343   0.364   0.415   0.419   0.421   0.445   0.468   0.478
  0.492   0.533   0.544   0.565   0.591   0.651   0.669   0.698
  0.713   0.867   0.911   0.919   0.922   0.923   1.014   1.019
  1.031   1.053   1.072   1.076   1.081   1.081   1.112   1.114
  1.117   1.121   1.135   1.148   1.225   1.286   1.313   1.339
  1.368   1.372   1.374   1.421   1.438   1.443   1.502   1.545
  1.612   1.622   1.635   1.706   1.717   2.149   2.170   2.210
  2.221   2.245   2.369   2.529   2.583   2.942   2.970   2.975
  3.111   3.194   3.236   3.332   3.363   3.394   3.489   3.513
  3.565   3.696   3.846   3.847   4.108   4.110   4.266   4.298
  4.330   4.341   4.365   4.365   4.377   4.388   4.392   4.419
  4.451   4.518   4.529   4.538   4.598   4.636   5.006   5.012
  5.033   5.035   5.144   5.146   5.195   5.235   5.243   5.643
  5.684   5.704   9.732   9.780  20.609  20.615  20.634  20.642
 20.833  20.879  23.981  27.146  27.148  27.177  27.189  27.205
 27.218  27.233  27.263  27.267  27.287  27.946  27.979  28.069
 36.896  36.898  36.901  36.902  36.903  36.904  36.906  36.908
 36.910  36.911  36.919  36.921  36.924  36.927  40.845  40.906
 41.092  41.099  41.167 216.278 216.354
 --------------------------------------------------------------
 
          Ground-State Mulliken Net Atomic Charges

     Atom                 Charge (a.u.)    Spin (a.u.)
  --------------------------------------------------------
      1 C                     0.226312       0.000000
      2 Cl                   -0.229593       0.000000
      3 Cl                   -0.230611       0.000000
      4 H                     0.116946       0.000000
      5 H                     0.116946       0.000000
  --------------------------------------------------------
  Sum of atomic charges =     0.000000
  Sum of spin   charges =     0.000000

 -----------------------------------------------------------------
                    Cartesian Multipole Moments
 -----------------------------------------------------------------
    Charge (ESU x 10^10)
                 0.0000
    Dipole Moment (Debye)
         X       0.0066      Y       0.0000      Z      -1.6653
       Tot       1.6653
    Quadrupole Moments (Debye-Ang)
        XX     -34.1522     XY       0.0000     YY     -31.6214
        XZ       0.0070     YZ       0.0000     ZZ     -32.5202
    Octapole Moments (Debye-Ang^2)
       XXX       0.0099    XXY       0.0000    XYY       0.0004
       YYY       0.0000    XXZ     -21.5255    XYZ       0.0000
       YYZ     -26.1271    XZZ       0.0088    YZZ       0.0000
       ZZZ     -73.3276
    Hexadecapole Moments (Debye-Ang^3)
      XXXX    -362.5421   XXXY       0.0000   XXYY     -72.4597
      XYYY       0.0000   YYYY     -42.7433   XXXZ       0.0257
      XXYZ       0.0000   XYYZ       0.0061   YYYZ       0.0000
      XXZZ     -85.5933   XYZZ       0.0000   YYZZ     -39.1478
      XZZZ       0.0307   YZZZ       0.0000   ZZZZ    -186.9867
 -----------------------------------------------------------------
 Calculating analytic gradient of the SCF energy
 Gradient of XC Energy
            1           2           3           4           5
    1   0.0001397   0.1370315  -0.1366780  -0.0002466  -0.0002466
    2  -0.0000000   0.0000000   0.0000000  -0.1631213   0.1631213
    3   0.0928184   0.0810754   0.0806822  -0.1272880  -0.1272880
 Gradient of SCF Energy
            1           2           3           4           5
    1   0.0004420  -0.0000913  -0.0002242  -0.0000632  -0.0000632
    2  -0.0000000   0.0000000   0.0000000   0.0000260  -0.0000260
    3  -0.0002756  -0.0000213   0.0001360   0.0000804   0.0000804
 Max gradient component =       4.420E-04
 RMS gradient           =       1.573E-04
 Gradient time:  CPU 60.51 s  wall 60.84 s
 Writing REM_CC_EA            5
 ----------------------------------------------------
       Standard Nuclear Orientation (Angstroms)
    I     Atom         X            Y            Z
 ----------------------------------------------------
    1      C      -0.001000     0.000000    -0.002723
    2      Cl      1.485000     0.000000     0.981809
    3      Cl     -1.485000     0.000000     0.981809
    4      H       0.000000    -0.896710    -0.608100
    5      H       0.000000     0.896710    -0.608100
 ----------------------------------------------------
 Nuclear Repulsion Energy =   133.5375164508 hartrees
 There are       21 alpha and       21 beta electrons

                       Distance Matrix (Angstroms)
             C (  1)   Cl(  2)   Cl(  3)   H (  4)
   Cl(  2)  1.782554
   Cl(  3)  1.780887  2.970000
   H (  4)  1.081929  2.353109  2.353109
   H (  5)  1.081929  2.353109  2.353109  1.793420
 
 Requested basis set is G3large
 There are 60 shells and 194 basis functions
 A cutoff of  1.0D-11 yielded   1695 shell pairs
 There are  17822 function pairs ( 24116 Cartesian)
Evaluating contribution to one-electron hamiltonian from nuclear
 Smallest overlap matrix eigenvalue = 1.83E-04
 Multipole matrices computed through 2nd order
 Guess MOs from SCF MO coefficient file
Reading MOs from coefficient file
Reading MOs from coefficient file
 An unrestricted hybrid HF-DFT SCF calculation will be
 performed using Pulay DIIS extrapolation
 Exchange:     0.2000 Hartree-Fock + 0.0800 Slater + 0.7200 Becke88
 Correlation:  0.8100 LYP + 0.1900 VWN1RPA
 Using SG-1 standard quadrature grid
 SCF converges when DIIS error is below 1.0E-08
 ---------------------------------------
  Cycle       Energy         DIIS Error
 ---------------------------------------
    1    -959.7811449129      5.35E-05
    2    -959.7811447345      1.14E-05
    3    -959.7811447532      1.19E-05
    4    -959.7811453557      1.14E-06
    5    -959.7811453586      2.34E-07
    6    -959.7811453593      6.34E-08
    7    -959.7811453590      9.03E-09 Convergence criterion met
 ---------------------------------------
 One-Electron    Energy = -1589.0347472563
 Total Coulomb   Energy =   558.4165359432
 Alpha Exchange  Energy =    -6.0955848597
 Beta  Exchange  Energy =    -6.0955848597
 DFT   Exchange  Energy =   -48.3909165458
 DFT Correlation Energy =    -2.1183642314
 Nuclear Repu.   Energy =   133.5375164508
 Nuclear Attr.   Energy = -2547.3429344798
 Kinetic         Energy =   958.3081872235
 <S^2> = 0.0000
 SCF time:  CPU 84.13 s  wall 84.74 s
 Final Alpha MO Eigenvalues
            1           2           3           4           5           6
    1-101.5346297-101.5344143 -10.2961255  -9.4732062  -9.4729769  -7.2352531
            7           8           9          10          11          12
    1  -7.2350251  -7.2265600  -7.2263699  -7.2263305  -7.2261435  -0.9089027
           13          14          15          16          17          18
    1  -0.8340138  -0.6745162  -0.5052563  -0.4682886  -0.4526792  -0.3381445
           19          20          21          22          23          24
    1  -0.3353265  -0.3185056  -0.3139190  -0.0324715  -0.0053735   0.0037128
           25          26
    1   0.0191250   0.0461984
 Final Beta MO Eigenvalues
            1           2           3           4           5           6
    1-101.5346297-101.5344143 -10.2961255  -9.4732062  -9.4729769  -7.2352531
            7           8           9          10          11          12
    1  -7.2350251  -7.2265600  -7.2263699  -7.2263305  -7.2261435  -0.9089027
           13          14          15          16          17          18
    1  -0.8340138  -0.6745162  -0.5052563  -0.4682886  -0.4526792  -0.3381445
           19          20          21          22          23          24
    1  -0.3353265  -0.3185056  -0.3139190  -0.0324715  -0.0053735   0.0037128
           25          26
    1   0.0191250   0.0461984
 Analysis of SCF Wavefunction
 
 --------------------------------------------------------------
                    Orbital Energies (a.u.)
 --------------------------------------------------------------
 
 Alpha MOs
 -- Occupied --
*******-101.534 -10.296  -9.473  -9.473  -7.235  -7.235  -7.227
 -7.226  -7.226  -7.226  -0.909  -0.834  -0.675  -0.505  -0.468
 -0.453  -0.338  -0.335  -0.319  -0.314
 -- Virtual --
 -0.032  -0.005   0.004   0.019   0.046   0.057   0.070   0.085
  0.090   0.093   0.096   0.119   0.126   0.137   0.141   0.142
  0.174   0.241   0.241   0.261   0.271   0.295   0.297   0.336
  0.343   0.364   0.415   0.419   0.421   0.445   0.468   0.478
  0.492   0.533   0.544   0.565   0.591   0.651   0.669   0.698
  0.713   0.867   0.911   0.919   0.922   0.923   1.014   1.019
  1.031   1.053   1.072   1.076   1.081   1.081   1.112   1.114
  1.117   1.121   1.135   1.148   1.225   1.286   1.313   1.339
  1.368   1.372   1.374   1.421   1.438   1.443   1.502   1.545
  1.612   1.622   1.635   1.706   1.717   2.149   2.170   2.210
  2.221   2.245   2.369   2.529   2.583   2.942   2.970   2.975
  3.111   3.194   3.236   3.332   3.363   3.394   3.489   3.513
  3.565   3.696   3.846   3.847   4.108   4.110   4.266   4.298
  4.330   4.341   4.365   4.365   4.377   4.388   4.392   4.419
  4.451   4.518   4.529   4.538   4.598   4.636   5.006   5.012
  5.033   5.035   5.144   5.146   5.195   5.235   5.243   5.643
  5.684   5.704   9.732   9.780  20.609  20.615  20.634  20.642
 20.833  20.879  23.981  27.146  27.148  27.177  27.189  27.205
 27.218  27.233  27.263  27.267  27.287  27.946  27.979  28.069
 36.896  36.898  36.901  36.902  36.903  36.904  36.906  36.908
 36.910  36.911  36.919  36.921  36.924  36.927  40.845  40.906
 41.092  41.099  41.167 216.278 216.354
 
 Beta MOs
 -- Occupied --
*******-101.534 -10.296  -9.473  -9.473  -7.235  -7.235  -7.227
 -7.226  -7.226  -7.226  -0.909  -0.834  -0.675  -0.505  -0.468
 -0.453  -0.338  -0.335  -0.319  -0.314
 -- Virtual --
 -0.032  -0.005   0.004   0.019   0.046   0.057   0.070   0.085
  0.090   0.093   0.096   0.119   0.126   0.137   0.141   0.142
  0.174   0.241   0.241   0.261   0.271   0.295   0.297   0.336
  0.343   0.364   0.415   0.419   0.421   0.445   0.468   0.478
  0.492   0.533   0.544   0.565   0.591   0.651   0.669   0.698
  0.713   0.867   0.911   0.919   0.922   0.923   1.014   1.019
  1.031   1.053   1.072   1.076   1.081   1.081   1.112   1.114
  1.117   1.121   1.135   1.148   1.225   1.286   1.313   1.339
  1.368   1.372   1.374   1.421   1.438   1.443   1.502   1.545
  1.612   1.622   1.635   1.706   1.717   2.149   2.170   2.210
  2.221   2.245   2.369   2.529   2.583   2.942   2.970   2.975
  3.111   3.194   3.236   3.332   3.363   3.394   3.489   3.513
  3.565   3.696   3.846   3.847   4.108   4.110   4.266   4.298
  4.330   4.341   4.365   4.365   4.377   4.388   4.392   4.419
  4.451   4.518   4.529   4.538   4.598   4.636   5.006   5.012
  5.033   5.035   5.144   5.146   5.195   5.235   5.243   5.643
  5.684   5.704   9.732   9.780  20.609  20.615  20.634  20.642
 20.833  20.879  23.981  27.146  27.148  27.177  27.189  27.205
 27.218  27.233  27.263  27.267  27.287  27.946  27.979  28.069
 36.896  36.898  36.901  36.902  36.903  36.904  36.906  36.908
 36.910  36.911  36.919  36.921  36.924  36.927  40.845  40.906
 41.092  41.099  41.167 216.278 216.354
 --------------------------------------------------------------
 
          Ground-State Mulliken Net Atomic Charges

     Atom                 Charge (a.u.)    Spin (a.u.)
  --------------------------------------------------------
      1 C                     0.226312       0.000000
      2 Cl                   -0.230611       0.000000
      3 Cl                   -0.229593       0.000000
      4 H                     0.116946       0.000000
      5 H                     0.116946       0.000000
  --------------------------------------------------------
  Sum of atomic charges =     0.000000
  Sum of spin   charges =     0.000000

 -----------------------------------------------------------------
                    Cartesian Multipole Moments
 -----------------------------------------------------------------
    Charge (ESU x 10^10)
                 0.0000
    Dipole Moment (Debye)
         X      -0.0066      Y       0.0000      Z      -1.6653
       Tot       1.6653
    Quadrupole Moments (Debye-Ang)
        XX     -34.1522     XY       0.0000     YY     -31.6214
        XZ      -0.0070     YZ       0.0000     ZZ     -32.5202
    Octapole Moments (Debye-Ang^2)
       XXX      -0.0099    XXY       0.0000    XYY      -0.0004
       YYY       0.0000    XXZ     -21.5255    XYZ       0.0000
       YYZ     -26.1271    XZZ      -0.0088    YZZ       0.0000
       ZZZ     -73.3276
    Hexadecapole Moments (Debye-Ang^3)
      XXXX    -362.5421   XXXY       0.0000   XXYY     -72.4597
      XYYY       0.0000   YYYY     -42.7433   XXXZ      -0.0257
      XXYZ       0.0000   XYYZ      -0.0061   YYYZ       0.0000
      XXZZ     -85.5932   XYZZ       0.0000   YYZZ     -39.1478
      XZZZ      -0.0307   YZZZ       0.0000   ZZZZ    -186.9867
 -----------------------------------------------------------------
 Calculating analytic gradient of the SCF energy
 Gradient of XC Energy
            1           2           3           4           5
    1  -0.0001397   0.1366780  -0.1370315   0.0002466   0.0002466
    2  -0.0000000   0.0000000   0.0000000  -0.1631213   0.1631213
    3   0.0928184   0.0806822   0.0810754  -0.1272880  -0.1272880
 Gradient of SCF Energy
            1           2           3           4           5
    1  -0.0004420   0.0002242   0.0000913   0.0000632   0.0000632
    2  -0.0000000   0.0000000   0.0000000   0.0000260  -0.0000260
    3  -0.0002756   0.0001360  -0.0000213   0.0000805   0.0000805
 Max gradient component =       4.420E-04
 RMS gradient           =       1.573E-04
 Gradient time:  CPU 61.65 s  wall 61.71 s
 Writing REM_CC_EA            5
 ----------------------------------------------------
       Standard Nuclear Orientation (Angstroms)
    I     Atom         X            Y            Z
 ----------------------------------------------------
    1      C       0.000000     0.001000    -0.002723
    2      Cl      1.485000     0.000000     0.981809
    3      Cl     -1.485000     0.000000     0.981809
    4      H       0.000000    -0.896710    -0.608100
    5      H       0.000000     0.896710    -0.608100
 ----------------------------------------------------
 Nuclear Repulsion Energy =   133.5375017298 hartrees
 There are       21 alpha and       21 beta electrons

                       Distance Matrix (Angstroms)
             C (  1)   Cl(  2)   Cl(  3)   H (  4)
   Cl(  2)  1.781721
   Cl(  3)  1.781721  2.970000
   H (  4)  1.082758  2.353109  2.353109
   H (  5)  1.081100  2.353109  2.353109  1.793420
 
 Requested basis set is G3large
 There are 60 shells and 194 basis functions
 A cutoff of  1.0D-11 yielded   1695 shell pairs
 There are  17822 function pairs ( 24116 Cartesian)
Evaluating contribution to one-electron hamiltonian from nuclear
 Smallest overlap matrix eigenvalue = 1.83E-04
 Multipole matrices computed through 2nd order
 Guess MOs from SCF MO coefficient file
Reading MOs from coefficient file
Reading MOs from coefficient file
 An unrestricted hybrid HF-DFT SCF calculation will be
 performed using Pulay DIIS extrapolation
 Exchange:     0.2000 Hartree-Fock + 0.0800 Slater + 0.7200 Becke88
 Correlation:  0.8100 LYP + 0.1900 VWN1RPA
 Using SG-1 standard quadrature grid
 SCF converges when DIIS error is below 1.0E-08
 ---------------------------------------
  Cycle       Energy         DIIS Error
 ---------------------------------------
    1    -959.7811440866      3.53E-05
    2    -959.7811444755      7.03E-06
    3    -959.7811445237      6.71E-06
    4    -959.7811447164      8.48E-07
    5    -959.7811447185      1.69E-07
    6    -959.7811447189      5.68E-08
    7    -959.7811447180      8.79E-09 Convergence criterion met
 ---------------------------------------
 One-Electron    Energy = -1589.0347159599
 Total Coulomb   Energy =   558.4165199917
 Alpha Exchange  Energy =    -6.0955848616
 Beta  Exchange  Energy =    -6.0955848616
 DFT   Exchange  Energy =   -48.3909165386
 DFT Correlation Energy =    -2.1183642178
 Nuclear Repu.   Energy =   133.5375017298
 Nuclear Attr.   Energy = -2547.3429030084
 Kinetic         Energy =   958.3081870485
 <S^2> = 0.0000
 SCF time:  CPU 83.30 s  wall 83.57 s
 Final Alpha MO Eigenvalues
            1           2           3           4           5           6
    1-101.5345223-101.5345218 -10.2961254  -9.4730941  -9.4730890  -7.2351406
            7           8           9          10          11          12
    1  -7.2351378  -7.2264462  -7.2264443  -7.2262574  -7.2262561  -0.9089017
           13          14          15          16          17          18
    1  -0.8340144  -0.6745167  -0.5052566  -0.4682866  -0.4526804  -0.3381447
           19          20          21          22          23          24
    1  -0.3353262  -0.3185059  -0.3139190  -0.0324710  -0.0053730   0.0037119
           25          26
    1   0.0191250   0.0461984
 Final Beta MO Eigenvalues
            1           2           3           4           5           6
    1-101.5345223-101.5345218 -10.2961254  -9.4730941  -9.4730890  -7.2351406
            7           8           9          10          11          12
    1  -7.2351378  -7.2264462  -7.2264443  -7.2262574  -7.2262561  -0.9089017
           13          14          15          16          17          18
    1  -0.8340144  -0.6745167  -0.5052566  -0.4682866  -0.4526804  -0.3381447
           19          20          21          22          23          24
    1  -0.3353262  -0.3185059  -0.3139190  -0.0324710  -0.0053730   0.0037119
           25          26
    1   0.0191250   0.0461984
 Analysis of SCF Wavefunction
 
 --------------------------------------------------------------
[...]
 -7.226  -7.226  -7.226  -0.909  -0.834  -0.674  -0.505  -0.468
 -0.453  -0.338  -0.335  -0.319  -0.314
 -- Virtual --
 -0.032  -0.005   0.004   0.019   0.046   0.057   0.070   0.085
  0.090   0.093   0.096   0.119   0.126   0.137   0.141   0.142
  0.174   0.241   0.241   0.261   0.271   0.295   0.297   0.336
  0.343   0.364   0.415   0.419   0.421   0.445   0.468   0.478
  0.492   0.533   0.544   0.565   0.591   0.651   0.669   0.698
  0.713   0.867   0.911   0.920   0.922   0.923   1.014   1.019
  1.031   1.053   1.072   1.076   1.081   1.081   1.112   1.114
  1.117   1.121   1.135   1.148   1.225   1.286   1.313   1.339
  1.368   1.372   1.374   1.421   1.438   1.443   1.502   1.545
  1.611   1.622   1.635   1.706   1.717   2.149   2.169   2.210
  2.221   2.245   2.369   2.529   2.584   2.942   2.970   2.975
  3.111   3.193   3.236   3.332   3.363   3.394   3.489   3.513
  3.565   3.696   3.845   3.846   4.108   4.109   4.266   4.298
  4.330   4.341   4.364   4.365   4.377   4.387   4.392   4.419
  4.451   4.517   4.529   4.538   4.598   4.636   5.006   5.012
  5.033   5.035   5.144   5.146   5.195   5.235   5.242   5.642
  5.684   5.704   9.732   9.780  20.609  20.615  20.633  20.642
 20.833  20.879  23.980  27.146  27.148  27.177  27.189  27.205
 27.218  27.233  27.263  27.267  27.287  27.946  27.979  28.069
 36.896  36.898  36.901  36.902  36.903  36.904  36.906  36.908
 36.910  36.911  36.919  36.921  36.924  36.927  40.845  40.905
 41.092  41.099  41.167 216.278 216.354
 
 Beta MOs
 -- Occupied --
*******-101.535 -10.296  -9.473  -9.473  -7.235  -7.235  -7.226
 -7.226  -7.226  -7.226  -0.909  -0.834  -0.674  -0.505  -0.468
 -0.453  -0.338  -0.335  -0.319  -0.314
 -- Virtual --
 -0.032  -0.005   0.004   0.019   0.046   0.057   0.070   0.085
  0.090   0.093   0.096   0.119   0.126   0.137   0.141   0.142
  0.174   0.241   0.241   0.261   0.271   0.295   0.297   0.336
  0.343   0.364   0.415   0.419   0.421   0.445   0.468   0.478
  0.492   0.533   0.544   0.565   0.591   0.651   0.669   0.698
  0.713   0.867   0.911   0.920   0.922   0.923   1.014   1.019
  1.031   1.053   1.072   1.076   1.081   1.081   1.112   1.114
  1.117   1.121   1.135   1.148   1.225   1.286   1.313   1.339
  1.368   1.372   1.374   1.421   1.438   1.443   1.502   1.545
  1.611   1.622   1.635   1.706   1.717   2.149   2.169   2.210
  2.221   2.245   2.369   2.529   2.584   2.942   2.970   2.975
  3.111   3.193   3.236   3.332   3.363   3.394   3.489   3.513
  3.565   3.696   3.845   3.846   4.108   4.109   4.266   4.298
  4.330   4.341   4.364   4.365   4.377   4.387   4.392   4.419
  4.451   4.517   4.529   4.538   4.598   4.636   5.006   5.012
  5.033   5.035   5.144   5.146   5.195   5.235   5.242   5.642
  5.684   5.704   9.732   9.780  20.609  20.615  20.633  20.642
 20.833  20.879  23.980  27.146  27.148  27.177  27.189  27.205
 27.218  27.233  27.263  27.267  27.287  27.946  27.979  28.069
 36.896  36.898  36.901  36.902  36.903  36.904  36.906  36.908
 36.910  36.911  36.919  36.921  36.924  36.927  40.845  40.905
 41.092  41.099  41.167 216.278 216.354
 --------------------------------------------------------------
 
          Ground-State Mulliken Net Atomic Charges

     Atom                 Charge (a.u.)    Spin (a.u.)
  --------------------------------------------------------
      1 C                     0.226497       0.000000
      2 Cl                   -0.230109       0.000000
      3 Cl                   -0.230109       0.000000
      4 H                     0.116962       0.000000
      5 H                     0.116759       0.000000
  --------------------------------------------------------
  Sum of atomic charges =     0.000000
  Sum of spin   charges =     0.000000

 -----------------------------------------------------------------
                    Cartesian Multipole Moments
 -----------------------------------------------------------------
    Charge (ESU x 10^10)
                 0.0000
    Dipole Moment (Debye)
         X       0.0000      Y      -0.0002      Z      -1.6653
       Tot       1.6653
    Quadrupole Moments (Debye-Ang)
        XX     -34.1515     XY       0.0000     YY     -31.6227
        XZ       0.0000     YZ      -0.0007     ZZ     -32.5191
    Octapole Moments (Debye-Ang^2)
       XXX       0.0000    XXY      -0.0009    XYY       0.0000
       YYY      -0.0014    XXZ     -21.5230    XYZ       0.0000
       YYZ     -26.1263    XZZ       0.0000    YZZ       0.0005
       ZZZ     -73.3245
    Hexadecapole Moments (Debye-Ang^3)
      XXXX    -362.5366   XXXY       0.0000   XXYY     -72.4594
      XYYY       0.0000   YYYY     -42.7478   XXXZ       0.0000
      XXYZ      -0.0001   XYYZ       0.0000   YYYZ       0.0016
      XXZZ     -85.5917   XYZZ       0.0000   YYZZ     -39.1478
      XZZZ       0.0000   YZZZ       0.0010   ZZZZ    -186.9896
 -----------------------------------------------------------------
 Calculating analytic gradient of the SCF energy
 Gradient of XC Energy
            1           2           3           4           5
    1   0.0000000   0.1368821  -0.1368821   0.0000000  -0.0000000
    2   0.0001955  -0.0000201  -0.0000201  -0.1630948   0.1629395
    3   0.0929184   0.0808972   0.0808972  -0.1273072  -0.1274056
 Gradient of SCF Energy
            1           2           3           4           5
    1   0.0000000   0.0000863  -0.0000863   0.0000000  -0.0000000
    2  -0.0002501  -0.0000191  -0.0000191   0.0000533   0.0002349
    3  -0.0000269   0.0000766   0.0000766   0.0000552  -0.0001816
 Max gradient component =       2.501E-04
 RMS gradient           =       1.110E-04
 Gradient time:  CPU 51.81 s  wall 51.88 s
Dipole drv :
gprntSymmMtrx error report: 
 Final Hessian.
            1           2           3           4           5           6
    1   0.2338900  -0.0000033   0.0000018  -0.0834765   0.0000006  -0.0416305
    2  -0.0000033   0.5918284  -0.0000047   0.0000005  -0.0381209   0.0000006
    3   0.0000018  -0.0000047   0.4172631  -0.0608102  -0.0000006  -0.0764916
    4  -0.0834765   0.0000005  -0.0608102   0.1476831   0.0000003   0.0815085
    5   0.0000006  -0.0381209  -0.0000006   0.0000003   0.0228395   0.0000001
    6  -0.0416305   0.0000006  -0.0764916   0.0815085   0.0000001   0.0837559
    7  -0.0834793   0.0000030   0.0608110  -0.0395540  -0.0000008   0.0000882
    8   0.0000002  -0.0381209   0.0000009   0.0000001   0.0034942  -0.0000000
    9   0.0416309  -0.0000017  -0.0764916  -0.0000883   0.0000003   0.0128338
   10  -0.0334717  -0.0000001   0.0000006  -0.0123235  -0.0155575  -0.0199821
   11  -0.0000007  -0.2577951  -0.1314156   0.0016215   0.0058935   0.0037137
   12  -0.0000010  -0.1325983  -0.1321427  -0.0103010  -0.0100975  -0.0100468
   13  -0.0334718   0.0000003   0.0000046  -0.0123225   0.0155574  -0.0199823
   14   0.0000010  -0.2577975   0.1314190  -0.0016217   0.0058940  -0.0037137
   15   0.0000000   0.1325976  -0.1321440  -0.0103032   0.0100974  -0.0100482
            7           8           9          10          11          12
    1  -0.0834793   0.0000002   0.0416309  -0.0334717  -0.0000007  -0.0000010
    2   0.0000030  -0.0381209  -0.0000017  -0.0000001  -0.2577951  -0.1325983
    3   0.0608110   0.0000009  -0.0764916   0.0000006  -0.1314156  -0.1321427
    4  -0.0395540   0.0000001  -0.0000883  -0.0123235   0.0016215  -0.0103010
    5  -0.0000008   0.0034942   0.0000003  -0.0155575   0.0058935  -0.0100975
    6   0.0000882  -0.0000000   0.0128338  -0.0199821   0.0037137  -0.0100468
    7   0.1476849  -0.0000003  -0.0815094  -0.0123250  -0.0016216   0.0103011
    8  -0.0000003   0.0228395   0.0000002   0.0155576   0.0058932  -0.0100982
    9  -0.0815094   0.0000002   0.0837559   0.0199833   0.0037138  -0.0100468
   10  -0.0123250   0.0155576   0.0199833   0.0549456  -0.0000004  -0.0000009
   11  -0.0016216   0.0058932   0.0037138  -0.0000004   0.2631050   0.1383919
   12   0.0103011  -0.0100982  -0.0100468  -0.0000009   0.1383919   0.1387898
   13  -0.0123262  -0.0155579   0.0199829   0.0031754  -0.0000020  -0.0000023
   14   0.0016214   0.0058942  -0.0037135   0.0000004  -0.0170934   0.0144032
   15   0.0103032   0.0100967  -0.0100482   0.0000000  -0.0144006   0.0134493
           13          14          15
    1  -0.0334718   0.0000010   0.0000000
    2   0.0000003  -0.2577975   0.1325976
    3   0.0000046   0.1314190  -0.1321440
    4  -0.0123225  -0.0016217  -0.0103032
    5   0.0155574   0.0058940   0.0100974
    6  -0.0199823  -0.0037137  -0.0100482
    7  -0.0123262   0.0016214   0.0103032
    8  -0.0155579   0.0058942   0.0100967
    9   0.0199829  -0.0037135  -0.0100482
   10   0.0031754   0.0000004   0.0000000
   11  -0.0000020  -0.0170934  -0.0144006
   12  -0.0000023   0.0144032   0.0134493
   13   0.0549466   0.0000021   0.0000000
   14   0.0000021   0.2631049  -0.1383910
   15   0.0000000  -0.1383910   0.1387890
 Writing REM_CC_EA            5
 ----------------------------------------------------
       Standard Nuclear Orientation (Angstroms)
    I     Atom         X            Y            Z
 ----------------------------------------------------
    1      C       0.000000     0.000000    -0.002723
    2      Cl      1.485000     0.000000     0.981809
    3      Cl     -1.485000     0.000000     0.981809
    4      H       0.000000    -0.896710    -0.608100
    5      H       0.000000     0.896710    -0.608100
 ----------------------------------------------------
 Nuclear Repulsion Energy =   133.5375086134 hartrees
 There are       21 alpha and       21 beta electrons
 old dipole drv.
            1           2           3           4           5           6
    1   1.3735240  -0.0000343   0.0000001  -0.6117177   0.0000044  -0.2580723
    2  -0.0000006   0.1284366   0.0002119   0.0000000  -0.1135374   0.0000033
    3  -0.0000482   0.0000756   0.3548442  -0.0944974   0.0000332  -0.1791560
            7           8           9          10          11          12
    1  -0.6116999   0.0000226   0.2580711  -0.0749523  -0.0000124   0.0000000
    2  -0.0000001  -0.1135374   0.0000031   0.0000002   0.0493507  -0.0347590
    3   0.0944431  -0.0000785  -0.1791570   0.0000115  -0.0433715   0.0017502
           13          14          15
    1  -0.0749029  -0.0000141  -0.0000002
    2  -0.0000400   0.0493523   0.0348745
    3  -0.0001062   0.0433711   0.0017931
 New transposed dipole drv.
            1           2           3
    1   1.3735240  -0.0000006  -0.0000482
    2  -0.0000343   0.1284366   0.0000756
    3   0.0000001   0.0002119   0.3548442
    4  -0.6117177   0.0000000  -0.0944974
    5   0.0000044  -0.1135374   0.0000332
    6  -0.2580723   0.0000033  -0.1791560
    7  -0.6116999  -0.0000001   0.0944431
    8   0.0000226  -0.1135374  -0.0000785
    9   0.2580711   0.0000031  -0.1791570
   10  -0.0749523   0.0000002   0.0000115
   11  -0.0000124   0.0493507  -0.0433715
   12   0.0000000  -0.0347590   0.0017502
   13  -0.0749029  -0.0000400  -0.0001062
   14  -0.0000141   0.0493523   0.0433711
   15  -0.0000002   0.0348745   0.0017931
FINAL TENSOR RESULT:
Order 2, Length 15
Order 1, Length 15
   0.2338900  -0.0000033   0.0000018  -0.0834765   0.0000006  -0.0416305  -0.0834793   0.0000002   0.0416309  -0.0334717  -0.0000007  -0.0000010  -0.0334718   0.0000010   0.0000000
Order 1, Length 15
  -0.0000033   0.5918284  -0.0000047   0.0000005  -0.0381209   0.0000006   0.0000030  -0.0381209  -0.0000017  -0.0000001  -0.2577951  -0.1325983   0.0000003  -0.2577975   0.1325976
Order 1, Length 15
   0.0000018  -0.0000047   0.4172631  -0.0608102  -0.0000006  -0.0764916   0.0608110   0.0000009  -0.0764916   0.0000006  -0.1314156  -0.1321427   0.0000046   0.1314190  -0.1321440
Order 1, Length 15
  -0.0834765   0.0000005  -0.0608102   0.1476831   0.0000003   0.0815085  -0.0395540   0.0000001  -0.0000883  -0.0123235   0.0016215  -0.0103010  -0.0123225  -0.0016217  -0.0103032
Order 1, Length 15
   0.0000006  -0.0381209  -0.0000006   0.0000003   0.0228395   0.0000001  -0.0000008   0.0034942   0.0000003  -0.0155575   0.0058935  -0.0100975   0.0155574   0.0058940   0.0100974
Order 1, Length 15
  -0.0416305   0.0000006  -0.0764916   0.0815085   0.0000001   0.0837559   0.0000882  -0.0000000   0.0128338  -0.0199821   0.0037137  -0.0100468  -0.0199823  -0.0037137  -0.0100482
Order 1, Length 15
  -0.0834793   0.0000030   0.0608110  -0.0395540  -0.0000008   0.0000882   0.1476849  -0.0000003  -0.0815094  -0.0123250  -0.0016216   0.0103011  -0.0123262   0.0016214   0.0103032
Order 1, Length 15
   0.0000002  -0.0381209   0.0000009   0.0000001   0.0034942  -0.0000000  -0.0000003   0.0228395   0.0000002   0.0155576   0.0058932  -0.0100982  -0.0155579   0.0058942   0.0100967
Order 1, Length 15
   0.0416309  -0.0000017  -0.0764916  -0.0000883   0.0000003   0.0128338  -0.0815094   0.0000002   0.0837559   0.0199833   0.0037138  -0.0100468   0.0199829  -0.0037135  -0.0100482
Order 1, Length 15
  -0.0334717  -0.0000001   0.0000006  -0.0123235  -0.0155575  -0.0199821  -0.0123250   0.0155576   0.0199833   0.0549456  -0.0000004  -0.0000009   0.0031754   0.0000004   0.0000000
Order 1, Length 15
  -0.0000007  -0.2577951  -0.1314156   0.0016215   0.0058935   0.0037137  -0.0016216   0.0058932   0.0037138  -0.0000004   0.2631050   0.1383919  -0.0000020  -0.0170934  -0.0144006
Order 1, Length 15
  -0.0000010  -0.1325983  -0.1321427  -0.0103010  -0.0100975  -0.0100468   0.0103011  -0.0100982  -0.0100468  -0.0000009   0.1383919   0.1387898  -0.0000023   0.0144032   0.0134493
Order 1, Length 15
  -0.0334718   0.0000003   0.0000046  -0.0123225   0.0155574  -0.0199823  -0.0123262  -0.0155579   0.0199829   0.0031754  -0.0000020  -0.0000023   0.0549466   0.0000021   0.0000000
Order 1, Length 15
   0.0000010  -0.2577975   0.1314190  -0.0016217   0.0058940  -0.0037137   0.0016214   0.0058942  -0.0037135   0.0000004  -0.0170934   0.0144032   0.0000021   0.2631049  -0.1383910
Order 1, Length 15
   0.0000000   0.1325976  -0.1321440  -0.0103032   0.0100974  -0.0100482   0.0103032   0.0100967  -0.0100482   0.0000000  -0.0144006   0.0134493   0.0000000  -0.1383910   0.1387890


 # Finishing finite difference calculation for IDERIV #
 ######################################################
 ######################################################
 Requested basis set is G3large
 There are 60 shells and 194 basis functions
 **********************************************************************
 **                                                                  **
 **                       VIBRATIONAL ANALYSIS                       **
 **                       --------------------                       **
 **                                                                  **
 **        VIBRATIONAL FREQUENCIES (CM**-1) AND NORMAL MODES         **
 **     FORCE CONSTANTS (mDYN/ANGSTROM) AND REDUCED MASSES (AMU)     **
 **                  INFRARED INTENSITIES (KM/MOL)                   **
 **                                                                  **
 **********************************************************************
 

 Mode:                 1                      2                      3
 Frequency:       279.76                 701.67                 720.11
 Force Cnst:      0.8877                 2.1746                 2.7114
 Red. Mass:      19.2499                 7.4966                 8.8748
 IR Active:          YES                    YES                    YES
 IR Intens:        0.375                 10.701                147.903
 Raman Active:       YES                    YES                    YES
               X      Y      Z        X      Y      Z        X      Y      Z
 C          0.000  0.000  0.414    0.000  0.000  0.631    0.734  0.000  0.000
 Cl         0.484  0.000 -0.083   -0.126  0.000 -0.123   -0.139  0.000 -0.097
 Cl        -0.484  0.000 -0.083    0.126  0.000 -0.123   -0.139  0.000  0.097
 H          0.000  0.006  0.417    0.000  0.079  0.514    0.450  0.000  0.000
 H          0.000 -0.006  0.417    0.000 -0.079  0.513    0.450  0.000  0.000
 TransDip   0.000  0.000  0.020    0.000  0.000  0.105    0.389  0.000  0.000

 Mode:                 4                      5                      6
 Frequency:       900.28                1171.13                1286.57
 Force Cnst:      0.6457                 0.8227                 1.0759
 Red. Mass:       1.3522                 1.0181                 1.1033
 IR Active:          YES                    YES                    YES
 IR Intens:        1.388                  0.000                 40.146
 Raman Active:       YES                    YES                    YES
               X      Y      Z        X      Y      Z        X      Y      Z
 C          0.000 -0.169  0.000    0.000  0.000  0.000   -0.087  0.000  0.000
 Cl         0.000  0.022  0.000    0.000 -0.012  0.000   -0.005  0.000 -0.012
 Cl         0.000  0.022  0.000    0.000  0.012  0.000   -0.005  0.000  0.012
 H          0.000  0.257 -0.648    0.707  0.000  0.000    0.704  0.000  0.000
 H          0.000  0.257  0.648   -0.707  0.000  0.000    0.704  0.000  0.000
 TransDip   0.000  0.038  0.000    0.000  0.000  0.000   -0.203  0.000  0.000

 Mode:                 7                      8                      9
 Frequency:      1464.30                3123.59                3200.99
 Force Cnst:      1.3583                 6.0512                 6.7465
 Red. Mass:       1.0751                 1.0526                 1.1175
 IR Active:          YES                    YES                    YES
 IR Intens:        0.128                  4.961                  0.284
 Raman Active:       YES                    YES                    YES
               X      Y      Z        X      Y      Z        X      Y      Z
 C          0.000  0.000 -0.077    0.000  0.000  0.064    0.000 -0.100  0.000
 Cl        -0.003  0.000 -0.003    0.000  0.000  0.000    0.000  0.000  0.000
 Cl         0.003  0.000 -0.003    0.000  0.000  0.000    0.000  0.000  0.000
 H          0.000 -0.410  0.574    0.000 -0.598 -0.375    0.000  0.587  0.388
 H          0.000  0.410  0.574    0.000  0.598 -0.375    0.000  0.587 -0.388
 TransDip   0.000  0.000  0.011    0.000  0.000  0.071    0.000  0.017  0.000

 STANDARD THERMODYNAMIC QUANTITIES AT   298.18 K  AND     1.00 ATM

   This Molecule has  0 Imaginary Frequencies
   Zero point vibrational energy:       18.368 kcal/mol

   Atom    1 Element C  Has Mass   12.00000
   Atom    2 Element Cl Has Mass   34.96885
   Atom    3 Element Cl Has Mass   34.96885
   Atom    4 Element H  Has Mass    1.00783
   Atom    5 Element H  Has Mass    1.00783
   Molecular Mass:    83.953360 amu
   Principal axes and moments of inertia in atomic units:
                             1           2           3
    Eigenvalues --       55.92547   556.54721   600.89693
          X               1.00000     0.00000     0.00000
          Y               0.00000     0.00000     1.00000
          Z               0.00000     1.00000     0.00000
   Rotational Symmetry Number is   1
   The Molecule is an Asymmetric Top
   Translational Enthalpy:        0.889 kcal/mol
   Rotational Enthalpy:           0.889 kcal/mol
   Vibrational Enthalpy:         18.840 kcal/mol
   gas constant (RT):             0.593 kcal/mol
   Translational Entropy:        39.197  cal/mol.K
   Rotational Entropy:           24.440  cal/mol.K
   Vibrational Entropy:           2.351  cal/mol.K

   Total Enthalpy:               21.211 kcal/mol
   Total Entropy:                65.988  cal/mol.K
 Total job time:  4326.04s(wall), 4312.28s(cpu) 
 Wed Jul 24 17:21:57 2013

        *************************************************************
        *                                                           *
        *  Thank you very much for using Q-Chem.  Have a nice day.  *
        *                                                           *
        *************************************************************


0 sent ACK to 0 
now end server 0 ... 
