Process 0 of 1 is on cl239.stfx.acenet.ca - thread support 1
initial socket setup ...start
initial socket setup ...done 
now start server 0 ... 

cmd = /usr/bin/ssh clhead /usr/local/qchem/bin/get_hostid 1794722479 > /scratch/tmp/6022051.1.long.q/qchem18388/lic.dat
                  Welcome to Q-Chem
     A Quantum Leap Into The Future Of Chemistry

 Y. Shao, L. Fusti-Molnar, Y. Jung, J. Kussmann, C. Ochsenfeld,
 S. T. Brown, A. T. B. Gilbert, L. V. Slipchenko,S. V. Levchenko,
 D. P. O'Neill, R. A. DiStasio Jr., R. C. Lochan, T. Wang,
 G. J. O. Beran, N. A. Besley, J. M. Herbert, C. Y. Lin,
 T. Van Voorhis, S. H. Chien, A. Sodt, R. P. Steele, 
 V. A. Rassolov, P. E. Maslen, P. P. Korambath, R. D. Adamson,
 B. Austin, J. Baker, E. F. C. Byrd, H. Dachsel, R. J. Doerksen,
 A. Dreuw, B. D. Dunietz, A. D. Dutoi, T. R. Furlani,
 S. R. Gwaltney, A. Heyden, S. Hirata, C.-P. Hsu, G. Kedziora,
 R. Z. Khaliullin, P. Klunzinger, A. M. Lee, M. S. Lee, W. Liang,
 I. Lotan, N. Nair, B. Peters, E. I. Proynov, P. A. Pieniazek, 
 Y. M. Rhee, J. Ritchie, E. Rosta, C. D. Sherrill, 
 A. C. Simmonett, J. E. Subotnik, H. L. Woodcock III,
 W. Zhang, A. T. Bell, A. K. Chakraborty, D. M. Chipman,
 F. J. Keil, A. Warshel, W. J. Hehre, H. F. Schaefer III,
 J. Kong, A. I. Krylov, P. M. W. Gill, M. Head-Gordon,
 Q-Chem, Version 3.1, Q-Chem, Inc., Pittsburgh, PA (2007).

 Additional authors for Version 3.1: 
 Z. Gan, Y. Zhao, N. E. Schultz, D. Truhlar, E. Epifanovsky and M. Oana.

 Additional authors for Version 3.2: 
 R. Baer, B. R. Brooks, D. Casanova, J.-D. Chai, C.-L. Cheng, 
 C. Cramer, D. Crittenden, A. Ghysels, G. Hawkins, E. G. Hohenstein, 
 C. Kelley, W. Kurlancheek, D. Liotard, E. Livshits, P. Manohar, 
 A. Marenich, D. Neuhauser, R. Olson, M. A. Rohrdanz, K. S. Thanthiriwatte, 
 A. J. W. Thom, V. Vanovschi, C. F. Williams, Q. Wu and Z.-Q. You. 


 Intel X86 Linux Version

 Q-chem begins on Wed May 29 17:02:52 2013  

 Parallel job on  1  processors
Processing $rem in /usr/local/qchem/config/preferences.

theFileMan(): MAXOPENFILES=974 MAX_SUB_FILE_NUM=16
Maximum size of a physical file is 2.0 GB, maximum size of a tmp-file is 32.0 GB


--------------------------------------------------------------
User input:
--------------------------------------------------------------

$molecule
-1,2
S          0.00000        0.00000        0.03562
S          0.00000        0.00000        1.89177
$end

$comment
negative
$end

$xc_functional
C PBE   1.00
X wPBE  1.00
$end

$rem
SYMMETRY_DECOMPOSITION	0
exchange 		general
LRC_DFT                 true
BASIS                   g3large
omega			440
mem_static              760
max_scf_cycles          200
scf_final_print         1
sym_ignore              true
$end

--------------------------------------------------------------
 Writing REM_CC_EA            2
 ----------------------------------------------------
       Standard Nuclear Orientation (Angstroms)
    I     Atom         X            Y            Z
 ----------------------------------------------------
    1      S       0.000000     0.000000     0.035620
    2      S       0.000000     0.000000     1.891770
 ----------------------------------------------------
 Nuclear Repulsion Energy =    72.9840616140 hartrees
 There are       17 alpha and       16 beta electrons
 Requested basis set is G3large
 There are 38 shells and 132 basis functions

Total QAlloc Memory Limit   2000 MB
Mega-Array Size       743 MB
MEM_STATIC part       760 MB

                       Distance Matrix (Angstroms)
             S (  1)
   S (  2)  1.856150
 
 A cutoff of  1.0D-08 yielded    683 shell pairs
 There are   8552 function pairs ( 12325 Cartesian)
Evaluating contribution to one-electron hamiltonian from nuclear
 Smallest overlap matrix eigenvalue = 7.45E-04
 Multipole matrices computed through 2nd order

  Scale SEOQF with 1.000000e-01/1.000000e-01/1.000000e-01

 Standard Electronic Orientation quadrupole field applied
 Nucleus-field energy     =    -0.0000000061 hartrees
 Guess from superposition of atomic densities
 Warning:  Energy on first SCF cycle will be non-variational
 Long-range K will be added via erf
 Coulomb attenuation parameter = 0.44 bohr**(-1)
 An unrestricted Kohn-Sham SCF calculation will be
 performed using Pulay DIIS extrapolation
 Exchange:  wPBE + LR-HF      Correlation:  PBE
 Using SG-1 standard quadrature grid
 SCF converges when DIIS error is below 1.0E-05
 Requested basis set is G3large
 There are 38 shells and 132 basis functions
 A cutoff of  1.0D-08 yielded    683 shell pairs
 There are   8552 function pairs ( 12325 Cartesian)
 Warning!  Inaccurate integrated density:
   Number of electrons =    33
   Numerical integral  =    32.000128576383
   Relative error      =    -3.0299134049 %
 ---------------------------------------
  Cycle       Energy         DIIS Error
 ---------------------------------------
    1    -796.2895183721      2.87E-02
    2    -796.1487575126      2.56E-03
    3    -796.1759450565      1.44E-03
    4    -796.1787382179      2.85E-04
    5    -796.1791383900      9.01E-05
    6    -796.1792347552      2.84E-05
    7    -796.1792483517      7.25E-06 Convergence criterion met
 ---------------------------------------
 One-Electron    Energy = -1253.5599264268
 Total Coulomb   Energy =   435.7646774906
 Alpha Exchange  Energy =    -3.7846251279
 Beta  Exchange  Energy =    -3.5712680558
 DFT   Exchange  Energy =   -42.7524833260
 DFT Correlation Energy =    -1.2596845137
 Nuclear Repu.   Energy =    72.9840616078
 Nuclear Attr.   Energy = -2048.9040389306
 Kinetic         Energy =   795.3441125038
 <S^2> = 0.7627
 SCF time:  CPU 33.39 s  wall 33.77 s
 Final Alpha MO Eigenvalues
            1           2           3           4           5           6
    1 -88.0530476 -88.0530451  -7.6910217  -7.6908090  -5.7045684  -5.7045174
            7           8           9          10          11          12
    1  -5.7044611  -5.7034629  -5.6947675  -5.6947132  -0.7504230  -0.5085847
           13          14          15          16          17          18
    1  -0.2672470  -0.2633612  -0.2419642  -0.1074923  -0.0763007   0.2096420
           19          20          21          22
    1   0.2311371   0.2473371   0.2520609   0.2700570
 Final Beta MO Eigenvalues
            1           2           3           4           5           6
    1 -88.0505559 -88.0505526  -7.6886988  -7.6884356  -5.7032726  -5.7022670
            7           8           9          10          11          12
    1  -5.6977568  -5.6976766  -5.6929536  -5.6928990  -0.7367515  -0.4705580
           13          14          15          16          17          18
    1  -0.2501734  -0.2373764  -0.2016464  -0.0680355   0.1869054   0.2109559
           19          20          21
    1   0.2321636   0.2493003   0.2522369
 Analysis of SCF Wavefunction
 
 --------------------------------------------------------------
                    Orbital Energies (a.u.)
 --------------------------------------------------------------
 
 Alpha MOs
 -- Occupied --
-88.053 -88.053  -7.691  -7.691  -5.705  -5.705  -5.704  -5.703
 -5.695  -5.695  -0.750  -0.509  -0.267  -0.263  -0.242  -0.107
 -0.076
 -- Virtual --
  0.210   0.231   0.247   0.252   0.270   0.275   0.290   0.332
  0.373   0.483   0.483   0.501   0.516   0.554   0.596   0.620
  0.621   0.681   0.692   0.696   0.706   0.726   0.816   0.830
  0.878   1.001   1.136   1.137   1.151   1.153   1.153   1.166
  1.238   1.305   1.305   1.334   1.336   1.360   1.361   1.370
  1.375   1.387   1.474   1.557   1.558   1.624   1.642   1.670
  1.687   1.722   1.723   2.093   2.114   2.356   2.376   2.490
  2.659   3.616   3.775   3.792   3.814   3.815   3.840   3.841
  3.855   3.855   3.910   3.910   4.060   4.080   4.162   4.840
  4.852   4.852   4.863   4.869   4.908   4.910   5.126   5.139
  5.944   8.575   8.628  17.321  17.332  17.445  17.456  17.598
 17.664  23.688  23.690  23.712  23.769  23.776  23.778  23.800
 23.903  23.910  24.196  31.137  31.157  31.158  31.160  31.164
 31.164  31.165  31.166  31.167  31.172  31.172  31.182  31.189
 31.223 189.171 189.179
 
 Beta MOs
 -- Occupied --
-88.051 -88.051  -7.689  -7.688  -5.703  -5.702  -5.698  -5.698
 -5.693  -5.693  -0.737  -0.471  -0.250  -0.237  -0.202  -0.068
 -- Virtual --
  0.187   0.211   0.232   0.249   0.252   0.275   0.285   0.290
  0.334   0.382   0.496   0.496   0.517   0.533   0.558   0.603
  0.646   0.648   0.697   0.698   0.709   0.716   0.733   0.831
  0.834   0.886   1.004   1.148   1.148   1.161   1.161   1.167
  1.167   1.249   1.321   1.322   1.353   1.355   1.380   1.382
  1.383   1.389   1.389   1.482   1.568   1.569   1.640   1.643
  1.689   1.690   1.731   1.733   2.117   2.119   2.378   2.380
  2.491   2.663   3.628   3.796   3.797   3.840   3.840   3.856
  3.857   3.882   3.882   3.927   3.928   4.082   4.082   4.172
  4.846   4.852   4.858   4.869   4.873   4.916   4.918   5.133
  5.139   5.950   8.580   8.632  17.332  17.336  17.455  17.459
 17.599  17.665  23.691  23.696  23.718  23.774  23.777  23.783
 23.805  23.908  23.911  24.199  31.139  31.159  31.160  31.163
 31.166  31.166  31.167  31.167  31.168  31.173  31.174  31.184
 31.189  31.224 189.174 189.182
 --------------------------------------------------------------
 
          Ground-State Mulliken Net Atomic Charges

     Atom                 Charge (a.u.)    Spin (a.u.)
  --------------------------------------------------------
      1 S                    -0.500003       0.499998
      2 S                    -0.499997       0.500002
  --------------------------------------------------------
  Sum of atomic charges =    -1.000000
  Sum of spin   charges =     1.000000

 -----------------------------------------------------------------
                    Cartesian Multipole Moments
 -----------------------------------------------------------------
    Charge (ESU x 10^10)
                -4.8032
    Dipole Moment (Debye)
         X       0.0000      Y       0.0000      Z      -4.6288
       Tot       4.6288
    Quadrupole Moments (Debye-Ang)
        XX     -31.6799     XY       1.5396     YY     -31.7094
        XZ      -0.0015     YZ      -0.0006     ZZ     -40.7525
    Octapole Moments (Debye-Ang^2)
       XXX       0.0000    XXY       0.0000    XYY       0.0000
       YYY       0.0000    XXZ     -30.5297    XYZ       1.4838
       YYZ     -30.5582    XZZ      -0.0030    YZZ      -0.0012
       ZZZ    -109.2213
    Hexadecapole Moments (Debye-Ang^3)
      XXXX     -54.6774   XXXY       2.8769   XXYY     -18.2443
      XYYY       2.8769   YYYY     -54.7877   XXXZ      -0.0044
      XXYZ       0.0001   XYYZ      -0.0014   YYYZ       0.0007
      XXZZ     -78.6864   XYZZ       5.5762   YYZZ     -78.7933
      XZZZ      -0.0101   YZZZ      -0.0065   ZZZZ    -417.2008
 -----------------------------------------------------------------
 Total job time:  33.94s(wall), 33.55s(cpu) 
 Wed May 29 17:03:26 2013

        *************************************************************
        *                                                           *
        *  Thank you very much for using Q-Chem.  Have a nice day.  *
        *                                                           *
        *************************************************************


0 sent ACK to 0 
now end server 0 ... 
 
**********************************************************************
Job 2 of 3 
**********************************************************************
 
Process 0 of 1 is on cl239.stfx.acenet.ca - thread support 1
initial socket setup ...start
initial socket setup ...done 
now start server 0 ... 

cmd = /usr/bin/ssh clhead /usr/local/qchem/bin/get_hostid 1275402474 > /scratch/tmp/6022051.1.long.q/qchem18388/lic.dat
                  Welcome to Q-Chem
     A Quantum Leap Into The Future Of Chemistry

 Y. Shao, L. Fusti-Molnar, Y. Jung, J. Kussmann, C. Ochsenfeld,
 S. T. Brown, A. T. B. Gilbert, L. V. Slipchenko,S. V. Levchenko,
 D. P. O'Neill, R. A. DiStasio Jr., R. C. Lochan, T. Wang,
 G. J. O. Beran, N. A. Besley, J. M. Herbert, C. Y. Lin,
 T. Van Voorhis, S. H. Chien, A. Sodt, R. P. Steele, 
 V. A. Rassolov, P. E. Maslen, P. P. Korambath, R. D. Adamson,
 B. Austin, J. Baker, E. F. C. Byrd, H. Dachsel, R. J. Doerksen,
 A. Dreuw, B. D. Dunietz, A. D. Dutoi, T. R. Furlani,
 S. R. Gwaltney, A. Heyden, S. Hirata, C.-P. Hsu, G. Kedziora,
 R. Z. Khaliullin, P. Klunzinger, A. M. Lee, M. S. Lee, W. Liang,
 I. Lotan, N. Nair, B. Peters, E. I. Proynov, P. A. Pieniazek, 
 Y. M. Rhee, J. Ritchie, E. Rosta, C. D. Sherrill, 
 A. C. Simmonett, J. E. Subotnik, H. L. Woodcock III,
 W. Zhang, A. T. Bell, A. K. Chakraborty, D. M. Chipman,
 F. J. Keil, A. Warshel, W. J. Hehre, H. F. Schaefer III,
 J. Kong, A. I. Krylov, P. M. W. Gill, M. Head-Gordon,
 Q-Chem, Version 3.1, Q-Chem, Inc., Pittsburgh, PA (2007).

 Additional authors for Version 3.1: 
 Z. Gan, Y. Zhao, N. E. Schultz, D. Truhlar, E. Epifanovsky and M. Oana.

 Additional authors for Version 3.2: 
 R. Baer, B. R. Brooks, D. Casanova, J.-D. Chai, C.-L. Cheng, 
 C. Cramer, D. Crittenden, A. Ghysels, G. Hawkins, E. G. Hohenstein, 
 C. Kelley, W. Kurlancheek, D. Liotard, E. Livshits, P. Manohar, 
 A. Marenich, D. Neuhauser, R. Olson, M. A. Rohrdanz, K. S. Thanthiriwatte, 
 A. J. W. Thom, V. Vanovschi, C. F. Williams, Q. Wu and Z.-Q. You. 


 Intel X86 Linux Version

 Q-chem begins on Wed May 29 17:03:28 2013  

 Parallel job on  1  processors
Processing $rem in /usr/local/qchem/config/preferences.

theFileMan(): MAXOPENFILES=974 MAX_SUB_FILE_NUM=16
Maximum size of a physical file is 2.0 GB, maximum size of a tmp-file is 32.0 GB


--------------------------------------------------------------
User input:
--------------------------------------------------------------

$molecule
0,3
S          0.00000        0.00000        0.03562
S          0.00000        0.00000        1.89177
$end

$comment
neutral
$end

$xc_functional
C PBE   1.00
X wPBE  1.00
$end


$rem
SYMMETRY_DECOMPOSITION	0
LRC_DFT                 true
exchange 		general
BASIS                   g3large
omega			440
mem_static              760
max_scf_cycles          200
scf_final_print         1
sym_ignore              true
$end

--------------------------------------------------------------
 Writing REM_CC_EA            2
 ----------------------------------------------------
       Standard Nuclear Orientation (Angstroms)
    I     Atom         X            Y            Z
 ----------------------------------------------------
    1      S       0.000000     0.000000     0.035620
    2      S       0.000000     0.000000     1.891770
 ----------------------------------------------------
 Nuclear Repulsion Energy =    72.9840616140 hartrees
 There are       17 alpha and       15 beta electrons
 Requested basis set is G3large
 There are 38 shells and 132 basis functions

Total QAlloc Memory Limit   2000 MB
Mega-Array Size       743 MB
MEM_STATIC part       760 MB

                       Distance Matrix (Angstroms)
             S (  1)
   S (  2)  1.856150
 
 A cutoff of  1.0D-08 yielded    683 shell pairs
 There are   8552 function pairs ( 12325 Cartesian)
Evaluating contribution to one-electron hamiltonian from nuclear
 Smallest overlap matrix eigenvalue = 7.45E-04
 Multipole matrices computed through 2nd order

  Scale SEOQF with 1.000000e-01/1.000000e-01/1.000000e-01

 Standard Electronic Orientation quadrupole field applied
 Nucleus-field energy     =    -0.0000000061 hartrees
 Guess from superposition of atomic densities
 Warning:  Energy on first SCF cycle will be non-variational
 Long-range K will be added via erf
 Coulomb attenuation parameter = 0.44 bohr**(-1)
 An unrestricted Kohn-Sham SCF calculation will be
 performed using Pulay DIIS extrapolation
 Exchange:  wPBE + LR-HF      Correlation:  PBE
 Using SG-1 standard quadrature grid
 SCF converges when DIIS error is below 1.0E-05
 Requested basis set is G3large
 There are 38 shells and 132 basis functions
 A cutoff of  1.0D-08 yielded    683 shell pairs
 There are   8552 function pairs ( 12325 Cartesian)
 ---------------------------------------
  Cycle       Energy         DIIS Error
 ---------------------------------------
    1    -796.2895183721      2.87E-02
    2    -796.1080522780      1.92E-03
    3    -796.1217944410      1.12E-03
    4    -796.1242618251      1.38E-04
    5    -796.1247825771      4.02E-05
    6    -796.1248821813      1.34E-05
    7    -796.1248984567      6.11E-06 Convergence criterion met
 ---------------------------------------
 One-Electron    Energy = -1244.8562090525
 Total Coulomb   Energy =   426.8448733798
 Alpha Exchange  Energy =    -3.8150047182
 Beta  Exchange  Energy =    -3.3792664133
 DFT   Exchange  Energy =   -42.6782214302
 DFT Correlation Energy =    -1.2251318302
 Nuclear Repu.   Energy =    72.9840616078
 Nuclear Attr.   Energy = -2039.9419570799
 Kinetic         Energy =   795.0857480274
 <S^2> = 2.0250
 SCF time:  CPU 33.40 s  wall 35.12 s
 Final Alpha MO Eigenvalues
            1           2           3           4           5           6
    1 -88.3370541 -88.3370466  -7.9722930  -7.9720832  -5.9834920  -5.9833783
            7           8           9          10          11          12
    1  -5.9833768  -5.9833287  -5.9833237  -5.9825021  -1.0203066  -0.7875227
           13          14          15          16          17          18
    1  -0.5268349  -0.5234851  -0.5234817  -0.3656112  -0.3656093   0.0582134
           19          20          21          22
    1   0.0786952   0.0982186   0.0982205   0.1181393
 Final Beta MO Eigenvalues
            1           2           3           4           5           6
    1 -88.3315431 -88.3315343  -7.9671837  -7.9668623  -5.9808670  -5.9798677
            7           8           9          10          11          12
    1  -5.9738823  -5.9738806  -5.9738033  -5.9738016  -0.9916483  -0.7087269
           13          14          15          16          17          18
    1  -0.4999492  -0.4493925  -0.4493839  -0.0423873  -0.0423801   0.0647381
           19          20
    1   0.0804728   0.1000594
 Analysis of SCF Wavefunction
 
 --------------------------------------------------------------
                    Orbital Energies (a.u.)
 --------------------------------------------------------------
 
 Alpha MOs
 -- Occupied --
-88.337 -88.337  -7.972  -7.972  -5.983  -5.983  -5.983  -5.983
 -5.983  -5.983  -1.020  -0.788  -0.527  -0.523  -0.523  -0.366
 -0.366
 -- Virtual --
  0.058   0.079   0.098   0.098   0.118   0.129   0.129   0.140
  0.189   0.247   0.247   0.273   0.273   0.339   0.383   0.383
  0.402   0.473   0.473   0.490   0.490   0.519   0.600   0.600
  0.650   0.762   0.897   0.897   0.913   0.913   0.915   0.915
  0.991   1.063   1.063   1.063   1.064   1.094   1.095   1.130
  1.131   1.141   1.233   1.317   1.317   1.380   1.380   1.435
  1.435   1.465   1.482   1.842   1.842   2.107   2.107   2.235
  2.407   3.346   3.515   3.515   3.526   3.526   3.562   3.562
  3.569   3.569   3.633   3.633   3.797   3.797   3.890   4.572
  4.572   4.582   4.584   4.584   4.628   4.630   4.857   4.857
  5.670   8.297   8.351  17.044  17.044  17.167  17.167  17.320
 17.386  23.405  23.408  23.428  23.492  23.492  23.493  23.516
 23.625  23.625  23.917  30.859  30.876  30.876  30.881  30.881
 30.883  30.883  30.884  30.885  30.891  30.892  30.906  30.906
 30.944 188.888 188.896
 
 Beta MOs
 -- Occupied --
-88.332 -88.332  -7.967  -7.967  -5.981  -5.980  -5.974  -5.974
 -5.974  -5.974  -0.992  -0.709  -0.500  -0.449  -0.449
 -- Virtual --
 -0.042  -0.042   0.065   0.080   0.100   0.100   0.119   0.137
  0.137   0.155   0.194   0.273   0.273   0.308   0.308   0.350
  0.413   0.436   0.436   0.489   0.489   0.515   0.515   0.532
  0.619   0.619   0.667   0.768   0.919   0.919   0.930   0.930
  0.932   0.932   1.012   1.096   1.096   1.105   1.105   1.136
  1.136   1.151   1.151   1.156   1.250   1.340   1.340   1.397
  1.397   1.458   1.458   1.484   1.502   1.873   1.873   2.134
  2.134   2.237   2.415   3.369   3.539   3.539   3.583   3.583
  3.597   3.597   3.626   3.626   3.669   3.669   3.823   3.823
  3.911   4.579   4.579   4.589   4.597   4.599   4.644   4.646
  4.866   4.866   5.683   8.309   8.361  17.059  17.059  17.182
 17.182  17.323  17.390  23.414  23.418  23.440  23.498  23.498
 23.505  23.527  23.632  23.632  23.922  30.861  30.880  30.880
 30.886  30.886  30.886  30.886  30.888  30.888  30.894  30.895
 30.908  30.908  30.946 188.894 188.902
 --------------------------------------------------------------
 
          Ground-State Mulliken Net Atomic Charges

     Atom                 Charge (a.u.)    Spin (a.u.)
  --------------------------------------------------------
      1 S                    -0.000006       0.999970
      2 S                     0.000006       1.000030
  --------------------------------------------------------
  Sum of atomic charges =     0.000000
  Sum of spin   charges =     2.000000

 -----------------------------------------------------------------
                    Cartesian Multipole Moments
 -----------------------------------------------------------------
    Charge (ESU x 10^10)
                 0.0000
    Dipole Moment (Debye)
         X       0.0000      Y       0.0000      Z       0.0001
       Tot       0.0001
    Quadrupole Moments (Debye-Ang)
        XX     -25.6144     XY       0.0000     YY     -25.6144
        XZ       0.0027     YZ      -0.0038     ZZ     -23.8127
    Octapole Moments (Debye-Ang^2)
       XXX       0.0000    XXY       0.0000    XYY       0.0000
       YYY       0.0000    XXZ     -24.6843    XYZ       0.0000
       YYZ     -24.6843    XZZ       0.0053    YZZ      -0.0074
       ZZZ     -68.8447
    Hexadecapole Moments (Debye-Ang^3)
      XXXX     -33.4499   XXXY       0.0000   XXYY     -11.1498
      XYYY       0.0000   YYYY     -33.4499   XXXZ       0.0033
      XXYZ      -0.0016   XYYZ       0.0011   YYYZ      -0.0046
      XXZZ     -56.5954   XYZZ       0.0000   YYZZ     -56.5954
      XZZZ       0.0184   YZZZ      -0.0257   ZZZZ    -284.5836
 -----------------------------------------------------------------
 Total job time:  35.28s(wall), 33.55s(cpu) 
 Wed May 29 17:04:04 2013

        *************************************************************
        *                                                           *
        *  Thank you very much for using Q-Chem.  Have a nice day.  *
        *                                                           *
        *************************************************************


0 sent ACK to 0 
now end server 0 ... 
 
**********************************************************************
Job 3 of 3 
**********************************************************************
 
Process 0 of 1 is on cl239.stfx.acenet.ca - thread support 1
initial socket setup ...start
initial socket setup ...done 
now start server 0 ... 

cmd = /usr/bin/ssh clhead /usr/local/qchem/bin/get_hostid 909262007 > /scratch/tmp/6022051.1.long.q/qchem18388/lic.dat
                  Welcome to Q-Chem
     A Quantum Leap Into The Future Of Chemistry

 Y. Shao, L. Fusti-Molnar, Y. Jung, J. Kussmann, C. Ochsenfeld,
 S. T. Brown, A. T. B. Gilbert, L. V. Slipchenko,S. V. Levchenko,
 D. P. O'Neill, R. A. DiStasio Jr., R. C. Lochan, T. Wang,
 G. J. O. Beran, N. A. Besley, J. M. Herbert, C. Y. Lin,
 T. Van Voorhis, S. H. Chien, A. Sodt, R. P. Steele, 
 V. A. Rassolov, P. E. Maslen, P. P. Korambath, R. D. Adamson,
 B. Austin, J. Baker, E. F. C. Byrd, H. Dachsel, R. J. Doerksen,
 A. Dreuw, B. D. Dunietz, A. D. Dutoi, T. R. Furlani,
 S. R. Gwaltney, A. Heyden, S. Hirata, C.-P. Hsu, G. Kedziora,
 R. Z. Khaliullin, P. Klunzinger, A. M. Lee, M. S. Lee, W. Liang,
 I. Lotan, N. Nair, B. Peters, E. I. Proynov, P. A. Pieniazek, 
 Y. M. Rhee, J. Ritchie, E. Rosta, C. D. Sherrill, 
 A. C. Simmonett, J. E. Subotnik, H. L. Woodcock III,
 W. Zhang, A. T. Bell, A. K. Chakraborty, D. M. Chipman,
 F. J. Keil, A. Warshel, W. J. Hehre, H. F. Schaefer III,
 J. Kong, A. I. Krylov, P. M. W. Gill, M. Head-Gordon,
 Q-Chem, Version 3.1, Q-Chem, Inc., Pittsburgh, PA (2007).

 Additional authors for Version 3.1: 
 Z. Gan, Y. Zhao, N. E. Schultz, D. Truhlar, E. Epifanovsky and M. Oana.

 Additional authors for Version 3.2: 
 R. Baer, B. R. Brooks, D. Casanova, J.-D. Chai, C.-L. Cheng, 
 C. Cramer, D. Crittenden, A. Ghysels, G. Hawkins, E. G. Hohenstein, 
 C. Kelley, W. Kurlancheek, D. Liotard, E. Livshits, P. Manohar, 
 A. Marenich, D. Neuhauser, R. Olson, M. A. Rohrdanz, K. S. Thanthiriwatte, 
 A. J. W. Thom, V. Vanovschi, C. F. Williams, Q. Wu and Z.-Q. You. 


 Intel X86 Linux Version

 Q-chem begins on Wed May 29 17:04:09 2013  

 Parallel job on  1  processors
Processing $rem in /usr/local/qchem/config/preferences.

theFileMan(): MAXOPENFILES=974 MAX_SUB_FILE_NUM=16
Maximum size of a physical file is 2.0 GB, maximum size of a tmp-file is 32.0 GB


--------------------------------------------------------------
User input:
--------------------------------------------------------------

$molecule
1,2
S          0.00000        0.00000        0.03562
S          0.00000        0.00000        1.89177
$end

$comment
positive
$end

$xc_functional
C PBE   1.00
X wPBE  1.00
$end

$rem
SYMMETRY_DECOMPOSITION	0
LRC_DFT                 true
exchange 		general
BASIS                   g3large
omega			440
mem_static              760
max_scf_cycles          200
scf_final_print         1
sym_ignore              true
$end

--------------------------------------------------------------
 Writing REM_CC_EA            2
 ----------------------------------------------------
       Standard Nuclear Orientation (Angstroms)
    I     Atom         X            Y            Z
 ----------------------------------------------------
    1      S       0.000000     0.000000     0.035620
    2      S       0.000000     0.000000     1.891770
 ----------------------------------------------------
 Nuclear Repulsion Energy =    72.9840616140 hartrees
 There are       16 alpha and       15 beta electrons
 Requested basis set is G3large
 There are 38 shells and 132 basis functions

Total QAlloc Memory Limit   2000 MB
Mega-Array Size       743 MB
MEM_STATIC part       760 MB

                       Distance Matrix (Angstroms)
             S (  1)
   S (  2)  1.856150
 
 A cutoff of  1.0D-08 yielded    683 shell pairs
 There are   8552 function pairs ( 12325 Cartesian)
Evaluating contribution to one-electron hamiltonian from nuclear
 Smallest overlap matrix eigenvalue = 7.45E-04
 Multipole matrices computed through 2nd order

  Scale SEOQF with 1.000000e-01/1.000000e-01/1.000000e-01

 Standard Electronic Orientation quadrupole field applied
 Nucleus-field energy     =    -0.0000000061 hartrees
 Guess from superposition of atomic densities
 Warning:  Energy on first SCF cycle will be non-variational
 Long-range K will be added via erf
 Coulomb attenuation parameter = 0.44 bohr**(-1)
 An unrestricted Kohn-Sham SCF calculation will be
 performed using Pulay DIIS extrapolation
 Exchange:  wPBE + LR-HF      Correlation:  PBE
 Using SG-1 standard quadrature grid
 SCF converges when DIIS error is below 1.0E-05
 Requested basis set is G3large
 There are 38 shells and 132 basis functions
 A cutoff of  1.0D-08 yielded    683 shell pairs
 There are   8552 function pairs ( 12325 Cartesian)
 Warning!  Inaccurate integrated density:
   Number of electrons =    31
   Numerical integral  =    32.000128576383
   Relative error      =     3.2262212141 %
 ---------------------------------------
  Cycle       Energy         DIIS Error
 ---------------------------------------
    1    -796.2895183721      2.87E-02
    2    -795.7104913623      3.71E-03
    3    -795.7539917923      2.17E-03
    4    -795.7599256135      2.50E-04
    5    -795.7603115770      5.57E-05
    6    -795.7603850659      1.90E-05
    7    -795.7603983223      8.28E-06 Convergence criterion met
 ---------------------------------------
 One-Electron    Energy = -1234.8703237446
 Total Coulomb   Energy =   416.8548518788
 Alpha Exchange  Energy =    -3.6117245306
 Beta  Exchange  Energy =    -3.3902951390
 DFT   Exchange  Energy =   -42.5345217752
 DFT Correlation Energy =    -1.1924466195
 Nuclear Repu.   Energy =    72.9840616078
 Nuclear Attr.   Energy = -2029.4182006806
 Kinetic         Energy =   794.5478769360
 <S^2> = 0.7623
 SCF time:  CPU 33.57 s  wall 34.10 s
 Final Alpha MO Eigenvalues
            1           2           3           4           5           6
    1 -88.6677162 -88.6677093  -8.2971587  -8.2968869  -6.3123277  -6.3122531
            7           8           9          10          11          12
    1  -6.3071130  -6.3061479  -6.3058922  -6.3058537  -1.3106290  -1.0602098
           13          14          15          16          17          18
    1  -0.8100311  -0.8058326  -0.7656742  -0.6461872  -0.3633396  -0.1643565
           19          20          21
    1  -0.1051368  -0.0649485  -0.0614886
 Final Beta MO Eigenvalues
            1           2           3           4           5           6
    1 -88.6646835 -88.6646760  -8.2943656  -8.2940324  -6.3101624  -6.3100873
            7           8           9          10          11          12
    1  -6.3056798  -6.3047004  -6.2976608  -6.2975848  -1.2957538  -1.0197077
           13          14          15          16          17          18
    1  -0.7962234  -0.7603970  -0.7329884  -0.3536622  -0.3192779  -0.1544215
           19          20
    1  -0.1043461  -0.0646488
 Analysis of SCF Wavefunction
 
 --------------------------------------------------------------
                    Orbital Energies (a.u.)
 --------------------------------------------------------------
 
 Alpha MOs
 -- Occupied --
-88.668 -88.668  -8.297  -8.297  -6.312  -6.312  -6.307  -6.306
 -6.306  -6.306  -1.311  -1.060  -0.810  -0.806  -0.766  -0.646
 -- Virtual --
 -0.363  -0.164  -0.105  -0.065  -0.061  -0.051  -0.050  -0.017
 -0.017   0.000   0.001   0.021   0.036   0.037   0.121   0.147
  0.149   0.209   0.254   0.257   0.275   0.279   0.307   0.370
  0.370   0.413   0.503   0.647   0.647   0.654   0.656   0.663
  0.663   0.732   0.782   0.783   0.818   0.818   0.820   0.821
  0.867   0.869   0.892   0.980   1.069   1.070   1.107   1.112
  1.183   1.185   1.192   1.231   1.567   1.569   1.834   1.836
  1.949   2.130   3.050   3.220   3.222   3.229   3.229   3.265
  3.266   3.273   3.273   3.337   3.338   3.500   3.501   3.592
  4.257   4.265   4.267   4.267   4.276   4.313   4.316   4.542
  4.550   5.363   7.984   8.038  16.719  16.725  16.843  16.848
 16.999  17.066  23.081  23.086  23.103  23.167  23.169  23.170
 23.191  23.300  23.304  23.594  30.535  30.548  30.550  30.554
 30.555  30.556  30.559  30.560  30.563  30.566  30.566  30.579
 30.585  30.621 188.559 188.567
 
 Beta MOs
 -- Occupied --
-88.665 -88.665  -8.294  -8.294  -6.310  -6.310  -6.306  -6.305
 -6.298  -6.298  -1.296  -1.020  -0.796  -0.760  -0.733
 -- Virtual --
 -0.354  -0.319  -0.154  -0.104  -0.065  -0.059  -0.050  -0.048
 -0.016  -0.012   0.014   0.015   0.038   0.039   0.057   0.127
  0.175   0.175   0.213   0.256   0.269   0.282   0.296   0.313
  0.371   0.387   0.421   0.507   0.654   0.658   0.661   0.670
  0.670   0.673   0.741   0.804   0.806   0.834   0.834   0.841
  0.841   0.869   0.887   0.899   0.989   1.081   1.081   1.108
  1.128   1.187   1.202   1.205   1.242   1.572   1.596   1.838
  1.860   1.950   2.134   3.062   3.222   3.242   3.262   3.263
  3.285   3.285   3.304   3.304   3.356   3.356   3.504   3.527
  3.604   4.257   4.268   4.272   4.275   4.286   4.323   4.325
  4.542   4.558   5.370   7.990   8.043  16.723  16.737  16.847
 16.861  17.001  17.067  23.088  23.088  23.110  23.167  23.175
 23.177  23.197  23.301  23.310  23.597  30.536  30.551  30.553
 30.556  30.557  30.557  30.561  30.563  30.566  30.568  30.568
 30.579  30.588  30.622 188.562 188.571
 --------------------------------------------------------------
 
          Ground-State Mulliken Net Atomic Charges

     Atom                 Charge (a.u.)    Spin (a.u.)
  --------------------------------------------------------
      1 S                     0.499991       0.499994
      2 S                     0.500009       0.500006
  --------------------------------------------------------
  Sum of atomic charges =     1.000000
  Sum of spin   charges =     1.000000

 -----------------------------------------------------------------
                    Cartesian Multipole Moments
 -----------------------------------------------------------------
    Charge (ESU x 10^10)
                 4.8032
    Dipole Moment (Debye)
         X       0.0000      Y       0.0000      Z       4.6289
       Tot       4.6289
    Quadrupole Moments (Debye-Ang)
        XX     -21.3623     XY       1.0018     YY     -21.3813
        XZ       0.0036     YZ      -0.0048     ZZ      -9.4079
    Octapole Moments (Debye-Ang^2)
       XXX       0.0000    XXY       0.0000    XYY       0.0000
       YYY       0.0000    XXZ     -20.5867    XYZ       0.9655
       YYZ     -20.6050    XZZ       0.0069    YZZ      -0.0093
       ZZZ     -35.7967
    Hexadecapole Moments (Debye-Ang^3)
      XXXX     -23.5438   XXXY       0.8984   XXYY      -7.8532
      XYYY       0.8983   YYYY     -23.5779   XXXZ       0.0040
      XXYZ      -0.0012   XYYZ       0.0007   YYYZ      -0.0049
      XXZZ     -44.1815   XYZZ       2.6874   YYZZ     -44.2325
      XZZZ       0.0225   YZZZ      -0.0304   ZZZZ    -189.2213
 -----------------------------------------------------------------
 Total job time:  34.26s(wall), 33.72s(cpu) 
 Wed May 29 17:04:43 2013

        *************************************************************
        *                                                           *
        *  Thank you very much for using Q-Chem.  Have a nice day.  *
        *                                                           *
        *************************************************************


0 sent ACK to 0 
now end server 0 ... 
