Process 0 of 1 is on cl113.stfx.acenet.ca - thread support 1
initial socket setup ...start
initial socket setup ...done 
now start server 0 ... 

cmd = /usr/bin/ssh clhead /usr/local/qchem/bin/get_hostid 1676206494 > /scratch/tmp/6060373.1.short.q/qchem336/lic.dat
                  Welcome to Q-Chem
     A Quantum Leap Into The Future Of Chemistry

 Y. Shao, L. Fusti-Molnar, Y. Jung, J. Kussmann, C. Ochsenfeld,
 S. T. Brown, A. T. B. Gilbert, L. V. Slipchenko,S. V. Levchenko,
 D. P. O'Neill, R. A. DiStasio Jr., R. C. Lochan, T. Wang,
 G. J. O. Beran, N. A. Besley, J. M. Herbert, C. Y. Lin,
 T. Van Voorhis, S. H. Chien, A. Sodt, R. P. Steele, 
 V. A. Rassolov, P. E. Maslen, P. P. Korambath, R. D. Adamson,
 B. Austin, J. Baker, E. F. C. Byrd, H. Dachsel, R. J. Doerksen,
 A. Dreuw, B. D. Dunietz, A. D. Dutoi, T. R. Furlani,
 S. R. Gwaltney, A. Heyden, S. Hirata, C.-P. Hsu, G. Kedziora,
 R. Z. Khaliullin, P. Klunzinger, A. M. Lee, M. S. Lee, W. Liang,
 I. Lotan, N. Nair, B. Peters, E. I. Proynov, P. A. Pieniazek, 
 Y. M. Rhee, J. Ritchie, E. Rosta, C. D. Sherrill, 
 A. C. Simmonett, J. E. Subotnik, H. L. Woodcock III,
 W. Zhang, A. T. Bell, A. K. Chakraborty, D. M. Chipman,
 F. J. Keil, A. Warshel, W. J. Hehre, H. F. Schaefer III,
 J. Kong, A. I. Krylov, P. M. W. Gill, M. Head-Gordon,
 Q-Chem, Version 3.1, Q-Chem, Inc., Pittsburgh, PA (2007).

 Additional authors for Version 3.1: 
 Z. Gan, Y. Zhao, N. E. Schultz, D. Truhlar, E. Epifanovsky and M. Oana.

 Additional authors for Version 3.2: 
 R. Baer, B. R. Brooks, D. Casanova, J.-D. Chai, C.-L. Cheng, 
 C. Cramer, D. Crittenden, A. Ghysels, G. Hawkins, E. G. Hohenstein, 
 C. Kelley, W. Kurlancheek, D. Liotard, E. Livshits, P. Manohar, 
 A. Marenich, D. Neuhauser, R. Olson, M. A. Rohrdanz, K. S. Thanthiriwatte, 
 A. J. W. Thom, V. Vanovschi, C. F. Williams, Q. Wu and Z.-Q. You. 


 Intel X86 Linux Version

 Q-chem begins on Wed Jul  3 20:17:04 2013  

 Parallel job on  1  processors
Processing $rem in /usr/local/qchem/config/preferences.

theFileMan(): MAXOPENFILES=974 MAX_SUB_FILE_NUM=16
Maximum size of a physical file is 2.0 GB, maximum size of a tmp-file is 32.0 GB


--------------------------------------------------------------
User input:
--------------------------------------------------------------

$molecule
0,1
 C
 N,1,rn1
 O,2,ro1,1,ao1
 O,2,ro2,1,ao2,3,to2,0
 H,1,rh1,2,ah1,3,th1,0
 H,1,rh2,2,ah2,5,th2,0
 H,1,rh3,2,ah3,5,th3,0

 rn1=1.49919618
 ro1=1.22676523
 ao1=117.0213243
 ro2=1.22676165
 ao2=117.02212404
 to2=181.89178544
 rh1=1.09240838
 ah1=106.82918485
 th1=89.04662497
 rh2=1.08852848
 ah2=108.05601167
 th2=118.84300819
 rh3=1.0885295
 ah3=108.0557423
 th3=-118.84193037

$end

$comment
neutral
$end

$xc_functional
C PBE   1.00
X wPBE  1.00
$end


$rem
SYMMETRY_DECOMPOSITION	0
LRC_DFT                 true
exchange 		general
BASIS                   g3large
omega			390 
JOBTYPE                 opt
mem_static              760
max_scf_cycles          200
scf_final_print         1
sym_ignore              true
$end


--------------------------------------------------------------
 Writing REM_CC_EA            7
 ----------------------------------------------------
       Standard Nuclear Orientation (Angstroms)
    I     Atom         X            Y            Z
 ----------------------------------------------------
    1      C       0.000000     0.000000     0.000000
    2      N       0.000000     0.000000     1.499196
    3      O       1.092848     0.000000     2.056543
    4      O      -1.092242    -0.036077     2.056556
    5      H       0.017398    -1.045478    -0.316273
    6      H      -0.914717     0.484106    -0.337386
    7      H       0.898115     0.514257    -0.337381
 ----------------------------------------------------
 Nuclear Repulsion Energy =   124.4943888145 hartrees
 There are       16 alpha and       16 beta electrons
 Requested basis set is G3large
 There are 58 shells and 198 basis functions

Total QAlloc Memory Limit   2000 MB
Mega-Array Size       743 MB
MEM_STATIC part       760 MB
 A cutoff of  1.0D-11 yielded   1620 shell pairs
 There are  19060 function pairs ( 24064 Cartesian)
Evaluating contribution to one-electron hamiltonian from nuclear
 Smallest overlap matrix eigenvalue = 3.57E-04
 Multipole matrices computed through 2nd order

  Scale SEOQF with 1.000000e-01/1.000000e-01/1.000000e-01

 Standard Electronic Orientation quadrupole field applied
 Nucleus-field energy     =    -0.0000000081 hartrees
 Guess from superposition of atomic densities
 Warning:  Energy on first SCF cycle will be non-variational
 Long-range K will be added via erf
 Coulomb attenuation parameter = 0.39 bohr**(-1)
 A restricted Kohn-Sham SCF calculation will be
 performed using Pulay DIIS extrapolation
 Exchange:  wPBE + LR-HF      Correlation:  PBE
 Using SG-1 standard quadrature grid
 SCF converges when DIIS error is below 1.0E-08
 Requested basis set is G3large
 There are 58 shells and 198 basis functions
 A cutoff of  1.0D-11 yielded   1620 shell pairs
 There are  19060 function pairs ( 24064 Cartesian)
 ---------------------------------------
  Cycle       Energy         DIIS Error
 ---------------------------------------
    1    -245.7850601398      3.34E-02
    2    -244.7207778819      7.69E-03
    3    -244.6145297048      1.04E-02
    4    -244.9297504551      5.31E-04
    5    -244.9302992716      4.54E-04
    6    -244.9309744989      1.69E-04
    7    -244.9311090867      3.78E-05
    8    -244.9311288250      1.68E-05
    9    -244.9311357185      6.43E-06
   10    -244.9311375374      2.44E-06
   11    -244.9311376011      8.03E-07
   12    -244.9311375774      1.58E-07
   13    -244.9311375720      5.05E-08
   14    -244.9311375719      2.02E-08
   15    -244.9311375711      7.66E-09 Convergence criterion met
 ---------------------------------------
 One-Electron    Energy =  -580.4900410136
 Total Coulomb   Energy =   241.4346099366
 Alpha Exchange  Energy =    -3.1744748860
 Beta  Exchange  Energy =    -3.1744748860
 DFT   Exchange  Energy =   -22.9458591809
 DFT Correlation Energy =    -1.0752863477
 Nuclear Repu.   Energy =   124.4943888064
 Nuclear Attr.   Energy =  -824.5405418600
 Kinetic         Energy =   244.0505008464
 SCF time:  CPU 173.24 s  wall 175.26 s
 Final Alpha MO Eigenvalues
            1           2           3           4           5           6
    1 -19.0008831 -19.0008388 -14.4503202 -10.1720651  -1.3714687  -1.1963413
            7           8           9          10          11          12
    1  -0.9668390  -0.7626585  -0.6962696  -0.6774663  -0.6558229  -0.5812577
           13          14          15          16          17          18
    1  -0.5621327  -0.4403325  -0.4374707  -0.4265094   0.0082054   0.0297258
           19          20          21
    1   0.0655756   0.0656682   0.0876001
 Analysis of SCF Wavefunction
 
 --------------------------------------------------------------
                    Orbital Energies (a.u.)
 --------------------------------------------------------------
 
 Alpha MOs
 -- Occupied --
-19.001 -19.001 -14.450 -10.172  -1.371  -1.196  -0.967  -0.763
 -0.696  -0.677  -0.656  -0.581  -0.562  -0.440  -0.437  -0.427
 -- Virtual --
  0.008   0.030   0.066   0.066   0.088   0.133   0.138   0.147
  0.169   0.171   0.206   0.230   0.230   0.232   0.281   0.291
  0.299   0.309   0.313   0.344   0.350   0.386   0.433   0.439
  0.446   0.488   0.499   0.535   0.588   0.621   0.632   0.663
  0.693   0.730   0.792   0.887   0.915   0.968   0.976   0.982
  1.056   1.075   1.107   1.133   1.160   1.161   1.196   1.204
  1.210   1.245   1.252   1.321   1.334   1.351   1.450   1.475
  1.494   1.503   1.562   1.605   1.632   1.670   1.676   1.775
  1.786   1.858   1.896   1.940   2.157   2.160   2.316   2.486
  2.558   2.595   2.648   2.661   2.676   2.978   3.022   3.129
  3.142   3.168   3.237   3.290   3.339   3.465   3.480   3.531
  3.543   3.692   3.807   3.839   3.845   3.913   3.920   3.945
  4.008   4.159   4.187   4.282   4.347   4.362   4.416   4.508
  4.566   4.577   4.590   4.646   4.730   4.733   4.754   4.954
  5.031   5.066   5.085   5.113   5.132   5.144   5.158   5.184
  5.310   5.329   5.497   5.513   5.583   5.661   5.674   5.714
  5.845   5.882   6.135   6.426   6.612   6.811   6.862   6.870
  6.907   7.048   7.187   7.225   7.253   7.254   7.557   7.650
  7.830   7.979  24.234  27.956  28.028  28.054  35.763  37.236
 37.951  38.174  40.351  40.411  40.414  40.558  40.708  40.903
 40.970  41.120  41.131  41.194  43.657  43.664  43.695  43.709
 43.764  43.797  43.800  43.855  43.936  43.971  45.645  45.648
 45.718  45.775  46.295  46.668  49.978  50.021
 --------------------------------------------------------------
 
          Ground-State Mulliken Net Atomic Charges

     Atom                 Charge (a.u.)
  ----------------------------------------
      1 C                    -0.178889
      2 N                     0.187427
      3 O                    -0.182863
      4 O                    -0.182863
      5 H                     0.114698
      6 H                     0.121243
      7 H                     0.121248
  ----------------------------------------
  Sum of atomic charges =     0.000000

 -----------------------------------------------------------------
                    Cartesian Multipole Moments
 -----------------------------------------------------------------
    Charge (ESU x 10^10)
                 0.0000
    Dipole Moment (Debye)
         X      -0.0003      Y       0.0183      Z      -3.7771
       Tot       3.7772
    Quadrupole Moments (Debye-Ang)
        XX     -26.6657     XY      -0.0828     YY     -21.6531
        XZ      -0.0026     YZ       0.1521     ZZ     -32.2042
    Octapole Moments (Debye-Ang^2)
       XXX      -0.0634    XXY       1.2637    XYY       0.0471
       YYY      -0.3082    XXZ     -37.9383    XYZ      -0.1523
       YYZ     -28.7170    XZZ      -0.0100    YZZ       0.5937
       ZZZ    -111.5288
    Hexadecapole Moments (Debye-Ang^3)
      XXXX    -111.1774   XXXY      -0.7498   XXYY     -21.9246
      XYYY      -0.6813   YYYY     -24.5168   XXXZ      -0.0039
      XXYZ       0.0741   XYYZ      -0.0260   YYYZ       1.7054
      XXZZ     -94.6070   XYZZ      -0.5026   YYZZ     -64.1723
      XZZZ      -0.0364   YZZZ       2.1778   ZZZZ    -429.6499
 -----------------------------------------------------------------
 Calculating analytic gradient of the SCF energy
 Gradient of AOints
            1           2           3           4           5           6
    1   0.0026031   0.0098585 -16.4926640  16.4821813  -0.0612282   3.1670903
    2  -0.1455471  -0.5985380   0.0419619   0.5861678   3.6769994  -1.7283841
    3   6.8624398   5.8429480  -9.2904657  -9.2909384   1.8465937   2.0147488
            7
    1  -3.1078409
    2  -1.8326599
    3   2.0146737
 Gradient of XC Energy
            1           2           3           4           5           6
    1  -0.0000860  -0.0003120   0.3927678  -0.3924619   0.0028323  -0.1493718
    2   0.0044675   0.0187845  -0.0026461  -0.0156078  -0.1698184   0.0799488
    3  -0.0151299  -0.2380305   0.2164573   0.2164721  -0.0562252  -0.0617705
            7
    1   0.1466316
    2   0.0848716
    3  -0.0617733
 Gradient of SCF Energy
            1           2           3           4           5           6
    1  -0.0000033  -0.0000489   0.0281413  -0.0281039   0.0000527  -0.0019156
    2  -0.0002637   0.0025420  -0.0004846  -0.0014167  -0.0028158   0.0011868
    3  -0.0067941  -0.0125604   0.0119064   0.0119073  -0.0016987  -0.0013776
            7
    1   0.0018777
    2   0.0012521
    3  -0.0013829
 Max gradient component =       2.814E-02
 RMS gradient           =       1.001E-02
 Gradient time:  CPU 67.63 s  wall 68.09 s
 Geometry Optimization Parameters
   NAtoms,    NIC,     NZ,  NCons,   NDum,   NFix, NCnnct, MaxDiis
        7      35       7       0       0       0       0       0


** GEOMETRY OPTIMIZATION IN DELOCALIZED INTERNAL COORDINATES **
   Searching for a Minimum

   Optimization Cycle:   1

                       Coordinates (Angstroms)
     ATOM              X           Y           Z
    1  C           0.000000    0.000000    0.000000
    2  N           0.000000    0.000000    1.499196
    3  O           1.092848    0.000000    2.056543
    4  O          -1.092242   -0.036077    2.056556
    5  H           0.017398   -1.045478   -0.316273
    6  H          -0.914717    0.484106   -0.337386
    7  H           0.898115    0.514257   -0.337381
   Point Group: c1    Number of degrees of freedom:  15


   Energy is   -244.931137571


 Attempting to Generate Delocalized Internal Coordinates

 15 Hessian modes will be used to form the next step
  Hessian Eigenvalues:
     0.002524    0.002581    0.074860    0.077341    0.160000    0.160000
     0.160000    0.250000    0.250000    0.324618    0.345358    0.349831
     0.349832    0.924475    0.924491

 Minimum Search - Taking Simple RFO Step
 Searching for Lamda that Minimizes Along All modes
 Value Taken    Lamda =  -0.00270206
 Step Taken.  Stepsize is  0.183142

                             Maximum     Tolerance    Cnvgd?
         Gradient           0.028986      0.000300      NO
         Displacement       0.136111      0.001200      NO
         Energy change     *********      0.000001      NO


 New Cartesian Coordinates Obtained by Inverse Iteration

 Displacement from previous Coordinates is:  0.135492
 Writing REM_CC_EA            7
 ----------------------------------------------------
       Standard Nuclear Orientation (Angstroms)
    I     Atom         X            Y            Z
 ----------------------------------------------------
    1      C       0.000108    -0.006191     0.005883
    2      N       0.000675    -0.040335     1.486492
    3      O       1.072832     0.022330     2.042484
    4      O      -1.072968    -0.013147     2.042483
    5      H       0.017305    -1.041866    -0.325587
    6      H      -0.913195     0.482965    -0.315261
    7      H       0.896646     0.513052    -0.315239
 ----------------------------------------------------
 Nuclear Repulsion Energy =   126.1047141806 hartrees
 There are       16 alpha and       16 beta electrons
 Applying Cartesian multipole field
    Component          Value
    ---------          -----
     (2,0,0)        1.00000E-11
     (0,2,0)        2.00000E-11
     (0,0,2)       -3.00000E-11
 Nucleus-field energy     =    -0.0000000080 hartrees
 Requested basis set is G3large
 There are 58 shells and 198 basis functions
 A cutoff of  1.0D-11 yielded   1624 shell pairs
 There are  19086 function pairs ( 24090 Cartesian)
Evaluating contribution to one-electron hamiltonian from nuclear
 Smallest overlap matrix eigenvalue = 3.28E-04
 Multipole matrices computed through 2nd order
 Guess MOs from SCF MO coefficient file
Reading MOs from coefficient file
Reading MOs from coefficient file
 Long-range K will be added via erf
 Coulomb attenuation parameter = 0.39 bohr**(-1)
 A restricted Kohn-Sham SCF calculation will be
 performed using Pulay DIIS extrapolation
 Exchange:  wPBE + LR-HF      Correlation:  PBE
 Using SG-1 standard quadrature grid
 SCF converges when DIIS error is below 1.0E-08
 Requested basis set is G3large
 There are 58 shells and 198 basis functions
 A cutoff of  1.0D-11 yielded   1624 shell pairs
 There are  19086 function pairs ( 24090 Cartesian)
 ---------------------------------------
  Cycle       Energy         DIIS Error
 ---------------------------------------
    1    -244.9510656097      1.81E-03
    2    -244.9307275219      3.29E-04
    3    -244.9310156711      3.49E-04
    4    -244.9313994206      5.79E-05
    5    -244.9314347863      1.87E-05
    6    -244.9314439645      8.91E-06
    7    -244.9314461659      4.71E-06
    8    -244.9314468045      9.25E-07
    9    -244.9314468298      3.30E-07
   10    -244.9314468332      1.04E-07
   11    -244.9314468303      9.16E-08
   12    -244.9314468297      9.40E-09 Convergence criterion met
 ---------------------------------------
 One-Electron    Energy =  -583.6320131247
 Total Coulomb   Energy =   243.0130394489
 Alpha Exchange  Energy =    -3.1772292889
 Beta  Exchange  Energy =    -3.1772292889
 DFT   Exchange  Energy =   -22.9841564256
 DFT Correlation Energy =    -1.0785723231
 Nuclear Repu.   Energy =   126.1047141725
 Nuclear Attr.   Energy =  -827.8635654385
 Kinetic         Energy =   244.2315523139
 SCF time:  CPU 143.29 s  wall 144.74 s
 Final Alpha MO Eigenvalues
            1           2           3           4           5           6
    1 -18.9968602 -18.9968133 -14.4482826 -10.1682884  -1.3857244  -1.2044867
            7           8           9          10          11          12
    1  -0.9728679  -0.7598211  -0.7049864  -0.6802810  -0.6571628  -0.5827305
           13          14          15          16          17          18
    1  -0.5634522  -0.4409720  -0.4383061  -0.4242653   0.0146991   0.0299818
           19          20          21
    1   0.0659117   0.0659835   0.0881612
 Analysis of SCF Wavefunction
 
 --------------------------------------------------------------
                    Orbital Energies (a.u.)
 --------------------------------------------------------------
 
 Alpha MOs
 -- Occupied --
-18.997 -18.997 -14.448 -10.168  -1.386  -1.204  -0.973  -0.760
 -0.705  -0.680  -0.657  -0.583  -0.563  -0.441  -0.438  -0.424
 -- Virtual --
  0.015   0.030   0.066   0.066   0.088   0.134   0.137   0.148
  0.169   0.171   0.205   0.231   0.231   0.236   0.285   0.293
  0.303   0.310   0.318   0.345   0.350   0.377   0.447   0.448
  0.457   0.492   0.501   0.541   0.591   0.622   0.638   0.670
  0.694   0.735   0.797   0.888   0.914   0.968   0.974   0.974
  1.062   1.085   1.110   1.148   1.161   1.163   1.194   1.208
  1.208   1.246   1.259   1.304   1.338   1.358   1.471   1.473
  1.490   1.504   1.565   1.606   1.637   1.674   1.680   1.781
  1.783   1.890   1.926   1.956   2.166   2.186   2.310   2.489
  2.571   2.603   2.664   2.681   2.698   2.979   3.038   3.119
  3.145   3.161   3.242   3.309   3.351   3.476   3.504   3.533
  3.567   3.693   3.786   3.843   3.852   3.932   3.955   3.967
  4.019   4.171   4.194   4.296   4.369   4.371   4.454   4.522
  4.572   4.578   4.609   4.678   4.703   4.728   4.749   4.942
  5.041   5.066   5.084   5.098   5.143   5.154   5.161   5.219
  5.349   5.350   5.510   5.548   5.621   5.681   5.690   5.765
  5.880   5.892   6.223   6.516   6.682   6.816   6.872   6.875
  6.914   7.112   7.209   7.235   7.261   7.344   7.585   7.692
  7.857   8.003  24.277  27.965  28.040  28.068  35.836  37.257
 37.984  38.186  40.361  40.418  40.425  40.575  40.733  40.908
 40.987  41.127  41.140  41.202  43.662  43.667  43.700  43.713
 43.779  43.802  43.807  43.859  43.948  43.988  45.659  45.669
 45.754  45.795  46.327  46.695  50.009  50.078
 --------------------------------------------------------------
 
          Ground-State Mulliken Net Atomic Charges

     Atom                 Charge (a.u.)
  ----------------------------------------
      1 C                    -0.178330
      2 N                     0.205255
      3 O                    -0.190209
      4 O                    -0.190222
      5 H                     0.111410
      6 H                     0.121044
      7 H                     0.121051
  ----------------------------------------
  Sum of atomic charges =     0.000000

 -----------------------------------------------------------------
                    Cartesian Multipole Moments
 -----------------------------------------------------------------
    Charge (ESU x 10^10)
                 0.0000
    Dipole Moment (Debye)
         X       0.0013      Y      -0.0806      Z      -3.7399
       Tot       3.7408
    Quadrupole Moments (Debye-Ang)
        XX     -26.5875     XY      -0.0832     YY     -21.5553
        XZ       0.0016     YZ      -0.0940     ZZ     -32.1289
    Octapole Moments (Debye-Ang^2)
       XXX      -0.0658    XXY       1.3082    XYY       0.0484
       YYY      -0.3031    XXZ     -37.6243    XYZ      -0.1528
       YYZ     -28.3874    XZZ      -0.0011    YZZ       0.0541
       ZZZ    -110.5644
    Hexadecapole Moments (Debye-Ang^3)
      XXXX    -108.3244   XXXY      -0.7303   XXYY     -21.3877
      XYYY      -0.6581   YYYY     -24.3636   XXXZ       0.0002
      XXYZ      -0.0211   XYYZ      -0.0173   YYYZ       0.9815
      XXZZ     -93.0403   XYZZ      -0.4963   YYZZ     -63.0294
      XZZZ      -0.0057   YZZZ       0.2901   ZZZZ    -422.7330
 -----------------------------------------------------------------
 Calculating analytic gradient of the SCF energy
 Gradient of AOints
            1           2           3           4           5           6
    1   0.0044126  -0.0201821 -16.5524316  16.5680664  -0.0607446   3.2083452
    2  -0.2629033   1.2131753  -0.7479571  -0.2006677   3.6598544  -1.7779212
    3   7.0231409   6.2196623  -9.5389925  -9.5391438   1.8584331   1.9885384
            7
    1  -3.1474659
    2  -1.8835803
    3   1.9883616
 Gradient of XC Energy
            1           2           3           4           5           6
    1  -0.0001591   0.0007071   0.3939985  -0.3945702   0.0028183  -0.1502963
    2   0.0092812  -0.0419368   0.0234961   0.0104570  -0.1694838   0.0816162
    3  -0.0194473  -0.2527435   0.2244644   0.2244599  -0.0574431  -0.0596457
            7
    1   0.1475017
    2   0.0865701
    3  -0.0596447
 Gradient of SCF Energy
            1           2           3           4           5           6
    1  -0.0001031   0.0003758   0.0000331  -0.0002954   0.0000035  -0.0000738
    2   0.0061794  -0.0220456   0.0076287   0.0076136  -0.0000401   0.0003292
    3  -0.0004725  -0.0040617   0.0012108   0.0012009   0.0019724   0.0000756
            7
    1   0.0000599
    2   0.0003348
    3   0.0000744
 Max gradient component =       2.205E-02
 RMS gradient           =       5.625E-03
 Gradient time:  CPU 69.82 s  wall 70.15 s
 Geometry Optimization Parameters
   NAtoms,    NIC,     NZ,  NCons,   NDum,   NFix, NCnnct, MaxDiis
        7      35       7       0       0       0       0       0

 Cartesian Hessian Update
 Hessian Updated using BFGS Update


** GEOMETRY OPTIMIZATION IN DELOCALIZED INTERNAL COORDINATES **
   Searching for a Minimum

   Optimization Cycle:   2

                       Coordinates (Angstroms)
     ATOM              X           Y           Z
    1  C           0.000108   -0.006191    0.005883
    2  N           0.000675   -0.040335    1.486492
    3  O           1.072832    0.022330    2.042484
    4  O          -1.072968   -0.013147    2.042483
    5  H           0.017305   -1.041866   -0.325587
    6  H          -0.913195    0.482965   -0.315261
    7  H           0.896646    0.513052   -0.315239
   Point Group: c1    Number of degrees of freedom:  15


   Energy is   -244.931446830

 Hessian Updated using BFGS Update

 14 Hessian modes will be used to form the next step
  Hessian Eigenvalues:
     0.002524    0.007863    0.074961    0.077341    0.158936    0.162550
     0.249864    0.250006    0.300717    0.344128    0.348290    0.349832
     0.613804    0.924483

 Minimum Search - Taking Simple RFO Step
 Searching for Lamda that Minimizes Along All modes
 Value Taken    Lamda =  -0.00864501
 Calculated Step too Large.  Step scaled by  0.417935
 Step Taken.  Stepsize is  0.300000

                             Maximum     Tolerance    Cnvgd?
         Gradient           0.010438      0.000300      NO
         Displacement       0.228321      0.001200      NO
         Energy change     -0.000309      0.000001      NO


 New Cartesian Coordinates Obtained by Inverse Iteration

 Displacement from previous Coordinates is:  0.210546
 Writing REM_CC_EA            7
 ----------------------------------------------------
       Standard Nuclear Orientation (Angstroms)
    I     Atom         X            Y            Z
 ----------------------------------------------------
    1      C      -0.000080     0.005384     0.013664
    2      N      -0.000417     0.025943     1.471595
    3      O       1.048295    -0.016305     2.024301
    4      O      -1.047161    -0.050930     2.024306
    5      H       0.017215    -1.037039    -0.273947
    6      H      -0.910826     0.479856    -0.319359
    7      H       0.894375     0.509899    -0.319305
 ----------------------------------------------------
 Nuclear Repulsion Energy =   128.2542166440 hartrees
 There are       16 alpha and       16 beta electrons
 Applying Cartesian multipole field
    Component          Value
    ---------          -----
     (2,0,0)        1.00000E-11
     (0,2,0)        2.00000E-11
     (0,0,2)       -3.00000E-11
 Nucleus-field energy     =    -0.0000000079 hartrees
 Requested basis set is G3large
 There are 58 shells and 198 basis functions
 A cutoff of  1.0D-11 yielded   1632 shell pairs
 There are  19112 function pairs ( 24118 Cartesian)
Evaluating contribution to one-electron hamiltonian from nuclear
 Smallest overlap matrix eigenvalue = 3.22E-04
 Multipole matrices computed through 2nd order
 Guess MOs from SCF MO coefficient file
Reading MOs from coefficient file
Reading MOs from coefficient file
 Long-range K will be added via erf
 Coulomb attenuation parameter = 0.39 bohr**(-1)
 A restricted Kohn-Sham SCF calculation will be
 performed using Pulay DIIS extrapolation
 Exchange:  wPBE + LR-HF      Correlation:  PBE
 Using SG-1 standard quadrature grid
 SCF converges when DIIS error is below 1.0E-08
 Requested basis set is G3large
 There are 58 shells and 198 basis functions
 A cutoff of  1.0D-11 yielded   1632 shell pairs
 There are  19112 function pairs ( 24118 Cartesian)
 ---------------------------------------
  Cycle       Energy         DIIS Error
 ---------------------------------------
    1    -244.9341689157      3.05E-03
    2    -244.9277923862      4.42E-04
    3    -244.9287968917      3.89E-04
    4    -244.9292784089      1.04E-04
    5    -244.9293740914      3.23E-05
    6    -244.9293975032      1.51E-05
    7    -244.9294029028      7.63E-06
    8    -244.9294049240      1.33E-06
    9    -244.9294049522      5.14E-07
   10    -244.9294049371      2.11E-07
   11    -244.9294049365      1.29E-07
   12    -244.9294049372      1.19E-08
   13    -244.9294049380      1.94E-09 Convergence criterion met
 ---------------------------------------
 One-Electron    Energy =  -587.8124714777
 Total Coulomb   Energy =   245.1094445452
 Alpha Exchange  Energy =    -3.1808219585
 Beta  Exchange  Energy =    -3.1808219585
 DFT   Exchange  Energy =   -23.0361506944
 DFT Correlation Energy =    -1.0828000302
 Nuclear Repu.   Energy =   128.2542166361
 Nuclear Attr.   Energy =  -832.2955984543
 Kinetic         Energy =   244.4831269766
 SCF time:  CPU 154.32 s  wall 155.34 s
 Final Alpha MO Eigenvalues
            1           2           3           4           5           6
    1 -18.9916120 -18.9915616 -14.4455721 -10.1639046  -1.4052725  -1.2160728
            7           8           9          10          11          12
    1  -0.9811644  -0.7565997  -0.7167593  -0.6842570  -0.6590729  -0.5840810
           13          14          15          16          17          18
    1  -0.5648847  -0.4426033  -0.4400464  -0.4214268   0.0221826   0.0313060
           19          20          21
    1   0.0655718   0.0682907   0.0879778
 Analysis of SCF Wavefunction
 
 --------------------------------------------------------------
                    Orbital Energies (a.u.)
 --------------------------------------------------------------
 
 Alpha MOs
 -- Occupied --
-18.992 -18.992 -14.446 -10.164  -1.405  -1.216  -0.981  -0.757
 -0.717  -0.684  -0.659  -0.584  -0.565  -0.443  -0.440  -0.421
 -- Virtual --
  0.022   0.031   0.066   0.068   0.088   0.133   0.139   0.151
  0.170   0.172   0.204   0.231   0.235   0.244   0.287   0.294
  0.299   0.317   0.322   0.347   0.352   0.395   0.447   0.458
  0.489   0.495   0.498   0.545   0.597   0.623   0.650   0.670
  0.701   0.746   0.787   0.885   0.917   0.969   0.978   0.990
  1.067   1.074   1.103   1.123   1.156   1.159   1.200   1.212
  1.213   1.245   1.252   1.348   1.363   1.365   1.462   1.480
  1.504   1.514   1.555   1.615   1.649   1.684   1.689   1.781
  1.804   1.879   1.975   1.977   2.168   2.212   2.354   2.526
  2.583   2.630   2.670   2.699   2.709   2.980   3.056   3.127
  3.161   3.169   3.262   3.324   3.355   3.470   3.550   3.553
  3.560   3.699   3.781   3.843   3.868   3.941   3.947   3.980
  4.068   4.179   4.203   4.311   4.378   4.425   4.474   4.540
  4.598   4.613   4.635   4.666   4.671   4.722   4.772   4.927
  5.051   5.065   5.083   5.114   5.147   5.166   5.183   5.231
  5.361   5.386   5.542   5.581   5.689   5.703   5.751   5.779
  5.935   5.949   6.340   6.628   6.778   6.826   6.880   6.887
  6.932   7.202   7.206   7.247   7.278   7.494   7.612   7.730
  7.892   8.048  24.333  27.981  28.058  28.092  35.939  37.281
 38.028  38.215  40.373  40.426  40.441  40.600  40.764  40.920
 41.010  41.133  41.144  41.212  43.670  43.674  43.708  43.720
 43.800  43.811  43.815  43.860  43.965  44.011  45.684  45.701
 45.811  45.823  46.372  46.730  50.052  50.161
 --------------------------------------------------------------
 
          Ground-State Mulliken Net Atomic Charges

     Atom                 Charge (a.u.)
  ----------------------------------------
      1 C                    -0.185159
      2 N                     0.223342
      3 O                    -0.197985
      4 O                    -0.197988
      5 H                     0.118524
      6 H                     0.119632
      7 H                     0.119635
  ----------------------------------------
  Sum of atomic charges =     0.000000

 -----------------------------------------------------------------
                    Cartesian Multipole Moments
 -----------------------------------------------------------------
    Charge (ESU x 10^10)
                 0.0000
    Dipole Moment (Debye)
         X      -0.0015      Y       0.0880      Z      -3.6844
       Tot       3.6854
    Quadrupole Moments (Debye-Ang)
        XX     -26.5118     XY      -0.0839     YY     -21.4276
        XZ      -0.0054     YZ       0.3324     ZZ     -31.9738
    Octapole Moments (Debye-Ang^2)
       XXX      -0.0618    XXY       1.2232    XYY       0.0451
       YYY      -0.2748    XXZ     -37.2489    XYZ      -0.1536
       YYZ     -27.9570    XZZ      -0.0166    YZZ       0.9853
       ZZZ    -109.1833
    Hexadecapole Moments (Debye-Ang^3)
      XXXX    -104.7934   XXXY      -0.7027   XXYY     -20.7588
      XYYY      -0.6316   YYYY     -24.0548   XXXZ      -0.0129
      XXYZ       0.2372   XYYZ      -0.0284   YYYZ       2.1664
      XXZZ     -90.9436   XYZZ      -0.4836   YYZZ     -61.6879
      XZZZ      -0.0595   YZZZ       3.5296   ZZZZ    -413.4815
 -----------------------------------------------------------------
 Calculating analytic gradient of the SCF energy
 Gradient of AOints
            1           2           3           4           5           6
    1   0.0011618   0.0329191 -16.6501534  16.6194836  -0.0625732   3.2381736
    2  -0.0741552  -1.9991297   0.6497108   1.1991785   3.7799332  -1.7242985
    3   7.3927191   6.6089118  -9.8523187  -9.8525715   1.7455654   1.9790506
            7
    1  -3.1790114
    2  -1.8312392
    3   1.9786434
 Gradient of XC Energy
            1           2           3           4           5           6
    1  -0.0000346  -0.0010751   0.3960315  -0.3950647   0.0028674  -0.1514679
    2   0.0019568   0.0654364  -0.0227357  -0.0358086  -0.1727394   0.0794444
    3  -0.0295820  -0.2694728   0.2349250   0.2349455  -0.0509508  -0.0599375
            7
    1   0.1487434
    2   0.0844460
    3  -0.0599275
 Gradient of SCF Energy
            1           2           3           4           5           6
    1   0.0001146  -0.0002362  -0.0416384   0.0417850  -0.0000634   0.0025052
    2  -0.0066264   0.0150514  -0.0053714  -0.0040012   0.0038119  -0.0013919
    3   0.0079395   0.0116347  -0.0144971  -0.0144831   0.0019643   0.0037179
            7
    1  -0.0024669
    2  -0.0014724
    3   0.0037239
 Max gradient component =       4.179E-02
 RMS gradient           =       1.460E-02
 Gradient time:  CPU 70.11 s  wall 70.25 s
 Geometry Optimization Parameters
   NAtoms,    NIC,     NZ,  NCons,   NDum,   NFix, NCnnct, MaxDiis
        7      35       7       0       0       0       0       0

 Cartesian Hessian Update
 Hessian Updated using BFGS Update


** GEOMETRY OPTIMIZATION IN DELOCALIZED INTERNAL COORDINATES **
   Searching for a Minimum

   Optimization Cycle:   3

                       Coordinates (Angstroms)
     ATOM              X           Y           Z
    1  C          -0.000080    0.005384    0.013664
    2  N          -0.000417    0.025943    1.471595
    3  O           1.048295   -0.016305    2.024301
    4  O          -1.047161   -0.050930    2.024306
    5  H           0.017215   -1.037039   -0.273947
    6  H          -0.910826    0.479856   -0.319359
    7  H           0.894375    0.509899   -0.319305
   Point Group: c1    Number of degrees of freedom:  15


   Energy is   -244.929404938

 Hessian Updated using BFGS Update

 15 Hessian modes will be used to form the next step
  Hessian Eigenvalues:
     0.002524    0.069970    0.077337    0.077363    0.160000    0.160659
     0.164625    0.250000    0.255610    0.331055    0.345503    0.349832
     0.350307    0.913249    0.924483

 Minimum Search - Taking Simple RFO Step
 Searching for Lamda that Minimizes Along All modes
 Value Taken    Lamda =  -0.00643722
 Step Taken.  Stepsize is  0.142229

                             Maximum     Tolerance    Cnvgd?
         Gradient           0.045544      0.000300      NO
         Displacement       0.087148      0.001200      NO
         Energy change      0.002042      0.000001      NO


 New Cartesian Coordinates Obtained by Inverse Iteration

 Displacement from previous Coordinates is:  0.133106
 Writing REM_CC_EA            7
 ----------------------------------------------------
       Standard Nuclear Orientation (Angstroms)
    I     Atom         X            Y            Z
 ----------------------------------------------------
    1      C      -0.000016     0.001346     0.007783
    2      N      -0.000013     0.001092     1.491001
    3      O       1.076209    -0.001493     2.043262
    4      O      -1.075556    -0.036985     2.043272
    5      H       0.017306    -1.040454    -0.305070
    6      H      -0.912341     0.481593    -0.329510
    7      H       0.895814     0.511709    -0.329482
 ----------------------------------------------------
 Nuclear Repulsion Energy =   125.9931327833 hartrees
 There are       16 alpha and       16 beta electrons
 Applying Cartesian multipole field
    Component          Value
    ---------          -----
     (2,0,0)        1.00000E-11
     (0,2,0)        2.00000E-11
     (0,0,2)       -3.00000E-11
 Nucleus-field energy     =    -0.0000000080 hartrees
 Requested basis set is G3large
 There are 58 shells and 198 basis functions
 A cutoff of  1.0D-11 yielded   1626 shell pairs
 There are  19096 function pairs ( 24102 Cartesian)
Evaluating contribution to one-electron hamiltonian from nuclear
 Smallest overlap matrix eigenvalue = 3.41E-04
 Multipole matrices computed through 2nd order
 Guess MOs from SCF MO coefficient file
Reading MOs from coefficient file
Reading MOs from coefficient file
 Long-range K will be added via erf
 Coulomb attenuation parameter = 0.39 bohr**(-1)
 A restricted Kohn-Sham SCF calculation will be
 performed using Pulay DIIS extrapolation
 Exchange:  wPBE + LR-HF      Correlation:  PBE
 Using SG-1 standard quadrature grid
 SCF converges when DIIS error is below 1.0E-08
 Requested basis set is G3large
 There are 58 shells and 198 basis functions
 A cutoff of  1.0D-11 yielded   1626 shell pairs
 There are  19096 function pairs ( 24102 Cartesian)
 ---------------------------------------
  Cycle       Energy         DIIS Error
 ---------------------------------------
    1    -244.9039409829      1.75E-03
    2    -244.9316406468      4.45E-04
    3    -244.9317209779      4.80E-04
    4    -244.9324305028      4.89E-05
    5    -244.9324475425      1.93E-05
    6    -244.9324530406      7.95E-06
    7    -244.9324546278      3.64E-06
    8    -244.9324551444      1.49E-06
    9    -244.9324551923      2.95E-07
   10    -244.9324551889      5.41E-08
   11    -244.9324551906      2.92E-08
   12    -244.9324551906      1.72E-08
   13    -244.9324551904      2.13E-09 Convergence criterion met
 ---------------------------------------
 One-Electron    Energy =  -583.4068890614
 Total Coulomb   Energy =   242.8957524955
 Alpha Exchange  Energy =    -3.1770853277
 Beta  Exchange  Energy =    -3.1770853277
 DFT   Exchange  Energy =   -22.9819226824
 DFT Correlation Energy =    -1.0783580621
 Nuclear Repu.   Energy =   125.9931327753
 Nuclear Attr.   Energy =  -827.6252562256
 Kinetic         Energy =   244.2183671642
 SCF time:  CPU 150.29 s  wall 151.53 s
 Final Alpha MO Eigenvalues
            1           2           3           4           5           6
    1 -18.9976004 -18.9975541 -14.4488733 -10.1681905  -1.3853387  -1.2054423
            7           8           9          10          11          12
    1  -0.9716378  -0.7602352  -0.7045896  -0.6809562  -0.6573616  -0.5822583
           13          14          15          16          17          18
    1  -0.5627884  -0.4417657  -0.4380804  -0.4253787   0.0148904   0.0300855
           19          20          21
    1   0.0656685   0.0665855   0.0879153
 Analysis of SCF Wavefunction
 
 --------------------------------------------------------------
                    Orbital Energies (a.u.)
 --------------------------------------------------------------
 
 Alpha MOs
 -- Occupied --
-18.998 -18.998 -14.449 -10.168  -1.385  -1.205  -0.972  -0.760
 -0.705  -0.681  -0.657  -0.582  -0.563  -0.442  -0.438  -0.425
 -- Virtual --
  0.015   0.030   0.066   0.067   0.088   0.133   0.138   0.148
  0.169   0.171   0.205   0.231   0.233   0.236   0.284   0.292
  0.300   0.314   0.314   0.345   0.351   0.388   0.445   0.448
  0.456   0.489   0.501   0.540   0.591   0.622   0.639   0.665
  0.697   0.736   0.791   0.886   0.917   0.972   0.973   0.985
  1.060   1.078   1.108   1.131   1.157   1.162   1.198   1.208
  1.211   1.246   1.253   1.330   1.338   1.355   1.458   1.477
  1.496   1.507   1.561   1.609   1.638   1.678   1.678   1.781
  1.795   1.872   1.922   1.956   2.171   2.176   2.330   2.498
  2.568   2.612   2.661   2.673   2.692   2.980   3.034   3.133
  3.144   3.171   3.245   3.306   3.347   3.466   3.506   3.539
  3.552   3.694   3.798   3.841   3.851   3.927   3.935   3.955
  4.028   4.170   4.197   4.296   4.357   4.380   4.448   4.537
  4.572   4.578   4.613   4.663   4.700   4.723   4.750   4.944
  5.039   5.065   5.084   5.111   5.135   5.152   5.168   5.201
  5.338   5.354   5.508   5.546   5.625   5.680   5.702   5.737
  5.883   5.902   6.213   6.505   6.687   6.815   6.873   6.874
  6.918   7.115   7.208   7.232   7.262   7.337   7.583   7.699
  7.858   8.007  24.274  27.967  28.039  28.068  35.835  37.254
 37.980  38.192  40.359  40.416  40.423  40.577  40.730  40.910
 40.985  41.126  41.138  41.202  43.662  43.668  43.699  43.713
 43.777  43.802  43.805  43.860  43.947  43.986  45.660  45.667
 45.750  45.798  46.323  46.698  50.010  50.076
 --------------------------------------------------------------
 
          Ground-State Mulliken Net Atomic Charges

     Atom                 Charge (a.u.)
  ----------------------------------------
      1 C                    -0.181492
      2 N                     0.203340
      3 O                    -0.189116
      4 O                    -0.189116
      5 H                     0.115123
      6 H                     0.120628
      7 H                     0.120633
  ----------------------------------------
  Sum of atomic charges =     0.000000

 -----------------------------------------------------------------
                    Cartesian Multipole Moments
 -----------------------------------------------------------------
    Charge (ESU x 10^10)
                 0.0000
    Dipole Moment (Debye)
         X      -0.0004      Y       0.0224      Z      -3.7247
       Tot       3.7248
    Quadrupole Moments (Debye-Ang)
        XX     -26.6014     XY      -0.0829     YY     -21.5733
        XZ      -0.0028     YZ       0.1661     ZZ     -32.0724
    Octapole Moments (Debye-Ang^2)
       XXX      -0.0630    XXY       1.2493    XYY       0.0463
       YYY      -0.2926    XXZ     -37.6747    XYZ      -0.1526
       YYZ     -28.4235    XZZ      -0.0107    YZZ       0.6275
       ZZZ    -110.5845
    Hexadecapole Moments (Debye-Ang^3)
      XXXX    -108.6789   XXXY      -0.7305   XXYY     -21.4670
      XYYY      -0.6612   YYYY     -24.3222   XXXZ      -0.0063
      XXYZ       0.1136   XYYZ      -0.0254   YYYZ       1.7434
      XXZZ     -93.2025   XYZZ      -0.4956   YYZZ     -63.1647
      XZZZ      -0.0390   YZZZ       2.3085   ZZZZ    -423.2352
 -----------------------------------------------------------------
 Calculating analytic gradient of the SCF energy
 Gradient of AOints
            1           2           3           4           5           6
    1   0.0027568   0.0113943 -16.6267445  16.6147652  -0.0613654   3.1898938
    2  -0.1666404  -0.6933451   0.0859186   0.6339505   3.6945666  -1.7245668
    3   7.0002404   6.0560356  -9.4713626  -9.4717751   1.8384981   2.0242978
            7
    1  -3.1307002
    2  -1.8298834
    3   2.0240660
 Gradient of XC Energy
            1           2           3           4           5           6
    1  -0.0000923  -0.0003636   0.3969496  -0.3965948   0.0028355  -0.1499851
    2   0.0053021   0.0218935  -0.0040403  -0.0171290  -0.1703314   0.0796757
    3  -0.0178070  -0.2478399   0.2224631   0.2224782  -0.0555871  -0.0618552
            7
    1   0.1472506
    2   0.0846294
    3  -0.0618521
 Gradient of SCF Energy
            1           2           3           4           5           6
    1   0.0000122  -0.0000468   0.0025736  -0.0025386   0.0000010   0.0000269
    2  -0.0007861   0.0024454  -0.0007898  -0.0008809   0.0000595  -0.0000256
    3  -0.0006963  -0.0007128   0.0007769   0.0007783  -0.0002171   0.0000358
            7
    1  -0.0000283
    2  -0.0000225
    3   0.0000352
 Max gradient component =       2.574E-03
 RMS gradient           =       1.054E-03
 Gradient time:  CPU 68.42 s  wall 68.57 s
 Geometry Optimization Parameters
   NAtoms,    NIC,     NZ,  NCons,   NDum,   NFix, NCnnct, MaxDiis
        7      35       7       0       0       0       0       0

 Cartesian Hessian Update
 Hessian Updated using BFGS Update


** GEOMETRY OPTIMIZATION IN DELOCALIZED INTERNAL COORDINATES **
   Searching for a Minimum

   Optimization Cycle:   4

                       Coordinates (Angstroms)
     ATOM              X           Y           Z
    1  C          -0.000016    0.001346    0.007783
    2  N          -0.000013    0.001092    1.491001
    3  O           1.076209   -0.001493    2.043262
    4  O          -1.075556   -0.036985    2.043272
    5  H           0.017306   -1.040454   -0.305070
    6  H          -0.912341    0.481593   -0.329510
    7  H           0.895814    0.511709   -0.329482
   Point Group: c1    Number of degrees of freedom:  15


   Energy is   -244.932455190

 Hessian Updated using BFGS Update

 15 Hessian modes will be used to form the next step
  Hessian Eigenvalues:
     0.002524    0.068702    0.076652    0.077342    0.160000    0.160744
     0.164104    0.250000    0.256565    0.334684    0.345647    0.349832
     0.350288    0.924483    0.969138

 Minimum Search - Taking Simple RFO Step
 Searching for Lamda that Minimizes Along All modes
 Value Taken    Lamda =  -0.00004535
 Step Taken.  Stepsize is  0.019975

                             Maximum     Tolerance    Cnvgd?
         Gradient           0.002998      0.000300      NO
         Displacement       0.014998      0.001200      NO
         Energy change     -0.003050      0.000001      NO


 New Cartesian Coordinates Obtained by Inverse Iteration

 Displacement from previous Coordinates is:  0.012954
 Writing REM_CC_EA            7
 ----------------------------------------------------
       Standard Nuclear Orientation (Angstroms)
    I     Atom         X            Y            Z
 ----------------------------------------------------
    1      C      -0.000006     0.000852     0.008005
    2      N       0.000065    -0.003439     1.490077
    3      O       1.074161     0.000730     2.043246
    4      O      -1.073591    -0.034425     2.043245
    5      H       0.017398    -1.040449    -0.306738
    6      H      -0.912480     0.481627    -0.328299
    7      H       0.895855     0.511911    -0.328281
 ----------------------------------------------------
 Nuclear Repulsion Energy =   126.1102399907 hartrees
 There are       16 alpha and       16 beta electrons
 Applying Cartesian multipole field
    Component          Value
    ---------          -----
     (2,0,0)        1.00000E-11
     (0,2,0)        2.00000E-11
     (0,0,2)       -3.00000E-11
 Nucleus-field energy     =    -0.0000000080 hartrees
 Requested basis set is G3large
 There are 58 shells and 198 basis functions
 A cutoff of  1.0D-11 yielded   1626 shell pairs
 There are  19096 function pairs ( 24102 Cartesian)
Evaluating contribution to one-electron hamiltonian from nuclear
 Smallest overlap matrix eigenvalue = 3.39E-04
 Multipole matrices computed through 2nd order
 Guess MOs from SCF MO coefficient file
Reading MOs from coefficient file
Reading MOs from coefficient file
 Long-range K will be added via erf
 Coulomb attenuation parameter = 0.39 bohr**(-1)
 A restricted Kohn-Sham SCF calculation will be
 performed using Pulay DIIS extrapolation
 Exchange:  wPBE + LR-HF      Correlation:  PBE
 Using SG-1 standard quadrature grid
 SCF converges when DIIS error is below 1.0E-08
 Requested basis set is G3large
 There are 58 shells and 198 basis functions
 A cutoff of  1.0D-11 yielded   1626 shell pairs
 There are  19096 function pairs ( 24102 Cartesian)
 ---------------------------------------
  Cycle       Energy         DIIS Error
 ---------------------------------------
    1    -244.9341328296      1.98E-04
    2    -244.9324676527      3.33E-05
    3    -244.9324715190      3.32E-05
    4    -244.9324751860      6.83E-06
    5    -244.9324755848      2.19E-06
    6    -244.9324756289      1.04E-06
    7    -244.9324757090      5.45E-07
    8    -244.9324757020      3.16E-07
    9    -244.9324757003      1.01E-07
   10    -244.9324757004      2.52E-08
   11    -244.9324757011      4.28E-09 Convergence criterion met
 ---------------------------------------
 One-Electron    Energy =  -583.6359155040
 Total Coulomb   Energy =   243.0110371552
 Alpha Exchange  Energy =    -3.1772797337
 Beta  Exchange  Energy =    -3.1772797337
 DFT   Exchange  Energy =   -22.9846817160
 DFT Correlation Energy =    -1.0785961516
 Nuclear Repu.   Energy =   126.1102399827
 Nuclear Attr.   Energy =  -827.8674548228
 Kinetic         Energy =   244.2315393188
 SCF time:  CPU 126.60 s  wall 127.71 s
 Final Alpha MO Eigenvalues
            1           2           3           4           5           6
    1 -18.9971783 -18.9971316 -14.4486981 -10.1681051  -1.3865221  -1.2059760
            7           8           9          10          11          12
    1  -0.9721244  -0.7599869  -0.7052532  -0.6811453  -0.6573883  -0.5823080
           13          14          15          16          17          18
    1  -0.5628810  -0.4417285  -0.4382382  -0.4250585   0.0156136   0.0300364
           19          20          21
    1   0.0656781   0.0666175   0.0879426
 Analysis of SCF Wavefunction
 
 --------------------------------------------------------------
                    Orbital Energies (a.u.)
 --------------------------------------------------------------
 
 Alpha MOs
 -- Occupied --
-18.997 -18.997 -14.449 -10.168  -1.387  -1.206  -0.972  -0.760
 -0.705  -0.681  -0.657  -0.582  -0.563  -0.442  -0.438  -0.425
 -- Virtual --
  0.016   0.030   0.066   0.067   0.088   0.133   0.138   0.148
  0.169   0.171   0.205   0.231   0.232   0.236   0.284   0.292
  0.300   0.314   0.315   0.345   0.351   0.387   0.445   0.449
  0.459   0.490   0.501   0.540   0.591   0.622   0.640   0.666
  0.697   0.736   0.792   0.887   0.917   0.972   0.973   0.985
  1.060   1.079   1.108   1.133   1.157   1.162   1.198   1.208
  1.210   1.246   1.254   1.328   1.338   1.356   1.460   1.476
  1.495   1.507   1.561   1.608   1.639   1.678   1.678   1.781
  1.795   1.874   1.925   1.957   2.173   2.176   2.329   2.498
  2.569   2.613   2.663   2.674   2.693   2.980   3.035   3.132
  3.144   3.171   3.244   3.308   3.347   3.467   3.508   3.539
  3.555   3.694   3.796   3.842   3.850   3.930   3.937   3.955
  4.028   4.170   4.197   4.297   4.359   4.380   4.450   4.537
  4.572   4.578   4.614   4.666   4.697   4.722   4.750   4.943
  5.039   5.065   5.084   5.110   5.135   5.153   5.169   5.202
  5.341   5.354   5.509   5.549   5.629   5.680   5.703   5.741
  5.885   5.903   6.222   6.513   6.692   6.815   6.874   6.874
  6.918   7.119   7.209   7.233   7.262   7.347   7.585   7.701
  7.861   8.009  24.275  27.968  28.040  28.068  35.841  37.255
 37.983  38.193  40.360  40.416  40.424  40.578  40.732  40.910
 40.986  41.126  41.138  41.202  43.662  43.668  43.700  43.713
 43.778  43.802  43.806  43.860  43.948  43.988  45.661  45.669
 45.753  45.799  46.326  46.700  50.013  50.081
 --------------------------------------------------------------
 
          Ground-State Mulliken Net Atomic Charges

     Atom                 Charge (a.u.)
  ----------------------------------------
      1 C                    -0.181157
      2 N                     0.205201
      3 O                    -0.189964
      4 O                    -0.189959
      5 H                     0.114643
      6 H                     0.120618
      7 H                     0.120619
  ----------------------------------------
  Sum of atomic charges =     0.000000

 -----------------------------------------------------------------
                    Cartesian Multipole Moments
 -----------------------------------------------------------------
    Charge (ESU x 10^10)
                 0.0000
    Dipole Moment (Debye)
         X      -0.0002      Y       0.0119      Z      -3.7273
       Tot       3.7273
    Quadrupole Moments (Debye-Ang)
        XX     -26.5954     XY      -0.0822     YY     -21.5662
        XZ      -0.0023     YZ       0.1387     ZZ     -32.0791
    Octapole Moments (Debye-Ang^2)
       XXX      -0.0636    XXY       1.2567    XYY       0.0468
       YYY      -0.2918    XXZ     -37.6630    XYZ      -0.1516
       YYZ     -28.4084    XZZ      -0.0097    YZZ       0.5709
       ZZZ    -110.5718
    Hexadecapole Moments (Debye-Ang^3)
      XXXX    -108.4080   XXXY      -0.7229   XXYY     -21.4170
      XYYY      -0.6539   YYYY     -24.3102   XXXZ      -0.0059
      XXYZ       0.1054   XYYZ      -0.0248   YYYZ       1.6757
      XXZZ     -93.1214   XYZZ      -0.4912   YYZZ     -63.1220
      XZZZ      -0.0359   YZZZ       2.1154   ZZZZ    -423.0804
 -----------------------------------------------------------------
 Calculating analytic gradient of the SCF energy
 Gradient of AOints
            1           2           3           4           5           6
    1   0.0029386   0.0080805 -16.6230269  16.6139026  -0.0615809   3.1924689
    2  -0.1834202  -0.4890738   0.0004710   0.5441495   3.6909432  -1.7285317
    3   7.0063325   6.1180262  -9.5065506  -9.5067692   1.8397317   2.0247173
            7
    1  -3.1327829
    2  -1.8345379
    3   2.0245120
 Gradient of XC Energy
            1           2           3           4           5           6
    1  -0.0001004  -0.0002504   0.3967626  -0.3965041   0.0028476  -0.1500176
    2   0.0059360   0.0150761  -0.0011897  -0.0141718  -0.1702266   0.0797968
    3  -0.0179282  -0.2501677   0.2236820   0.2236898  -0.0557262  -0.0617755
            7
    1   0.1472623
    2   0.0847791
    3  -0.0617742
 Gradient of SCF Energy
            1           2           3           4           5           6
    1  -0.0000004   0.0000046  -0.0000761   0.0000759   0.0000007  -0.0000103
    2   0.0000986  -0.0003271   0.0001054   0.0001010  -0.0000015   0.0000093
    3  -0.0000903  -0.0002851   0.0001933   0.0001916   0.0000365  -0.0000227
            7
    1   0.0000056
    2   0.0000143
    3  -0.0000234
 Max gradient component =       3.271E-04
 RMS gradient           =       1.227E-04
 Gradient time:  CPU 69.03 s  wall 69.19 s
 Geometry Optimization Parameters
   NAtoms,    NIC,     NZ,  NCons,   NDum,   NFix, NCnnct, MaxDiis
        7      35       7       0       0       0       0       0

 Cartesian Hessian Update
 Hessian Updated using BFGS Update


** GEOMETRY OPTIMIZATION IN DELOCALIZED INTERNAL COORDINATES **
   Searching for a Minimum

   Optimization Cycle:   5

                       Coordinates (Angstroms)
     ATOM              X           Y           Z
    1  C          -0.000006    0.000852    0.008005
    2  N           0.000065   -0.003439    1.490077
    3  O           1.074161    0.000730    2.043246
    4  O          -1.073591   -0.034425    2.043245
    5  H           0.017398   -1.040449   -0.306738
    6  H          -0.912480    0.481627   -0.328299
    7  H           0.895855    0.511911   -0.328281
   Point Group: c1    Number of degrees of freedom:  15


   Energy is   -244.932475701

 Hessian Updated using BFGS Update

 15 Hessian modes will be used to form the next step
  Hessian Eigenvalues:
     0.002524    0.071748    0.077341    0.079506    0.160000    0.160743
     0.166361    0.250000    0.266058    0.332497    0.345715    0.349832
     0.350270    0.924482    0.940569

 Minimum Search - Taking Simple RFO Step
 Searching for Lamda that Minimizes Along All modes
 Value Taken    Lamda =   0.00000000
 Step Taken.  Stepsize is  0.002582

                             Maximum     Tolerance    Cnvgd?
         Gradient           0.000258      0.000300     YES
         Displacement       0.001631      0.001200      NO
         Energy change     -0.000021      0.000001      NO


 New Cartesian Coordinates Obtained by Inverse Iteration

 Displacement from previous Coordinates is:  0.002328
 Writing REM_CC_EA            7
 ----------------------------------------------------
       Standard Nuclear Orientation (Angstroms)
    I     Atom         X            Y            Z
 ----------------------------------------------------
    1      C      -0.000010     0.000878     0.008261
    2      N       0.000055    -0.002932     1.490151
    3      O       1.074444     0.000410     2.042665
    4      O      -1.073870    -0.034554     2.042678
    5      H       0.017472    -1.040456    -0.306374
    6      H      -0.912505     0.481531    -0.328074
    7      H       0.895816     0.511930    -0.328051
 ----------------------------------------------------
 Nuclear Repulsion Energy =   126.1181759873 hartrees
 There are       16 alpha and       16 beta electrons
 Applying Cartesian multipole field
    Component          Value
    ---------          -----
     (2,0,0)        1.00000E-11
     (0,2,0)        2.00000E-11
     (0,0,2)       -3.00000E-11
 Nucleus-field energy     =    -0.0000000080 hartrees
 Requested basis set is G3large
 There are 58 shells and 198 basis functions
 A cutoff of  1.0D-11 yielded   1626 shell pairs
 There are  19096 function pairs ( 24102 Cartesian)
Evaluating contribution to one-electron hamiltonian from nuclear
 Smallest overlap matrix eigenvalue = 3.39E-04
 Multipole matrices computed through 2nd order
 Guess MOs from SCF MO coefficient file
Reading MOs from coefficient file
Reading MOs from coefficient file
 Long-range K will be added via erf
 Coulomb attenuation parameter = 0.39 bohr**(-1)
 A restricted Kohn-Sham SCF calculation will be
 performed using Pulay DIIS extrapolation
 Exchange:  wPBE + LR-HF      Correlation:  PBE
 Using SG-1 standard quadrature grid
 SCF converges when DIIS error is below 1.0E-08
 Requested basis set is G3large
 There are 58 shells and 198 basis functions
 A cutoff of  1.0D-11 yielded   1626 shell pairs
 There are  19096 function pairs ( 24102 Cartesian)
 ---------------------------------------
  Cycle       Energy         DIIS Error
 ---------------------------------------
    1    -244.9326143454      2.74E-05
    2    -244.9324760169      4.03E-06
    3    -244.9324761957      2.45E-06
    4    -244.9324761486      7.92E-07
    5    -244.9324761206      4.53E-07
    6    -244.9324761050      1.65E-07
    7    -244.9324761109      6.18E-08
    8    -244.9324761101      2.03E-08
    9    -244.9324761087      1.61E-08
   10    -244.9324761099      3.85E-09 Convergence criterion met
 ---------------------------------------
 One-Electron    Energy =  -583.6509134991
 Total Coulomb   Energy =   243.0182663900
 Alpha Exchange  Energy =    -3.1772878103
 Beta  Exchange  Energy =    -3.1772878103
 DFT   Exchange  Energy =   -22.9848168105
 DFT Correlation Energy =    -1.0786125490
 Nuclear Repu.   Energy =   126.1181759793
 Nuclear Attr.   Energy =  -827.8830596861
 Kinetic         Energy =   244.2321461870
 SCF time:  CPU 107.90 s  wall 109.24 s
 Final Alpha MO Eigenvalues
            1           2           3           4           5           6
    1 -18.9972348 -18.9971881 -14.4487168 -10.1680121  -1.3865613  -1.2061364
            7           8           9          10          11          12
    1  -0.9720901  -0.7599705  -0.7053056  -0.6811832  -0.6574337  -0.5823049
           13          14          15          16          17          18
    1  -0.5628283  -0.4418064  -0.4381776  -0.4251648   0.0156046   0.0300569
           19          20          21
    1   0.0656882   0.0666340   0.0879494
 Analysis of SCF Wavefunction
 
 --------------------------------------------------------------
                    Orbital Energies (a.u.)
 --------------------------------------------------------------
 
 Alpha MOs
 -- Occupied --
-18.997 -18.997 -14.449 -10.168  -1.387  -1.206  -0.972  -0.760
 -0.705  -0.681  -0.657  -0.582  -0.563  -0.442  -0.438  -0.425
 -- Virtual --
  0.016   0.030   0.066   0.067   0.088   0.133   0.138   0.148
  0.169   0.171   0.205   0.231   0.233   0.236   0.284   0.292
  0.300   0.314   0.315   0.345   0.351   0.387   0.445   0.449
  0.458   0.490   0.501   0.540   0.591   0.623   0.640   0.666
  0.697   0.736   0.792   0.887   0.917   0.972   0.972   0.985
  1.060   1.079   1.108   1.133   1.157   1.162   1.198   1.208
  1.210   1.246   1.254   1.328   1.339   1.356   1.460   1.476
  1.495   1.507   1.561   1.608   1.639   1.678   1.678   1.781
  1.795   1.875   1.924   1.957   2.173   2.176   2.330   2.498
  2.569   2.614   2.663   2.674   2.694   2.980   3.035   3.132
  3.144   3.171   3.244   3.308   3.347   3.467   3.508   3.539
  3.555   3.694   3.796   3.842   3.851   3.930   3.937   3.956
  4.028   4.170   4.197   4.297   4.359   4.380   4.451   4.537
  4.572   4.578   4.614   4.666   4.697   4.722   4.750   4.943
  5.039   5.065   5.084   5.110   5.135   5.153   5.169   5.202
  5.341   5.355   5.509   5.550   5.628   5.680   5.703   5.741
  5.885   5.903   6.221   6.513   6.693   6.815   6.874   6.874
  6.918   7.120   7.209   7.232   7.262   7.346   7.585   7.702
  7.861   8.010  24.275  27.968  28.040  28.069  35.841  37.255
 37.983  38.193  40.360  40.416  40.424  40.579  40.732  40.910
 40.986  41.127  41.138  41.202  43.662  43.668  43.700  43.713
 43.778  43.802  43.806  43.860  43.949  43.988  45.661  45.669
 45.753  45.800  46.326  46.700  50.013  50.081
 --------------------------------------------------------------
 
          Ground-State Mulliken Net Atomic Charges

     Atom                 Charge (a.u.)
  ----------------------------------------
      1 C                    -0.181227
      2 N                     0.205185
      3 O                    -0.189910
      4 O                    -0.189900
      5 H                     0.114680
      6 H                     0.120587
      7 H                     0.120586
  ----------------------------------------
  Sum of atomic charges =     0.000000

 -----------------------------------------------------------------
                    Cartesian Multipole Moments
 -----------------------------------------------------------------
    Charge (ESU x 10^10)
                 0.0000
    Dipole Moment (Debye)
         X      -0.0003      Y       0.0129      Z      -3.7237
       Tot       3.7237
    Quadrupole Moments (Debye-Ang)
        XX     -26.5951     XY      -0.0818     YY     -21.5660
        XZ      -0.0024     YZ       0.1418     ZZ     -32.0713
    Octapole Moments (Debye-Ang^2)
       XXX      -0.0636    XXY       1.2553    XYY       0.0470
       YYY      -0.2925    XXZ     -37.6566    XYZ      -0.1507
       YYZ     -28.4032    XZZ      -0.0097    YZZ       0.5760
       ZZZ    -110.5383
    Hexadecapole Moments (Debye-Ang^3)
      XXXX    -108.4360   XXXY      -0.7189   XXYY     -21.4223
      XYYY      -0.6505   YYYY     -24.3099   XXXZ      -0.0054
      XXYZ       0.1055   XYYZ      -0.0248   YYYZ       1.6796
      XXZZ     -93.1021   XYZZ      -0.4885   YYZZ     -63.0973
      XZZZ      -0.0356   YZZZ       2.1317   ZZZZ    -422.8830
 -----------------------------------------------------------------
 Calculating analytic gradient of the SCF energy
 Gradient of AOints
            1           2           3           4           5           6
    1   0.0029358   0.0086000 -16.6306718  16.6211048  -0.0618592   3.1928219
    2  -0.1809555  -0.5116256   0.0113838   0.5521360   3.6915821  -1.7280520
    3   7.0078784   6.0987720  -9.4972756  -9.4977186   1.8400796   2.0242523
            7
    1  -3.1329315
    2  -1.8344687
    3   2.0240119
 Gradient of XC Energy
            1           2           3           4           5           6
    1  -0.0001005  -0.0002668   0.3970405  -0.3967680   0.0028603  -0.1500267
    2   0.0058442   0.0158249  -0.0015372  -0.0144522  -0.1702295   0.0797744
    3  -0.0179739  -0.2495001   0.2233496   0.2233634  -0.0557243  -0.0617587
            7
    1   0.1472613
    2   0.0847754
    3  -0.0617559
 Gradient of SCF Energy
            1           2           3           4           5           6
    1   0.0000015   0.0000011   0.0000271  -0.0000260   0.0000006  -0.0000018
    2  -0.0000029  -0.0000226   0.0000128   0.0000051   0.0000001   0.0000015
    3   0.0000268   0.0000706  -0.0000667  -0.0000670   0.0000092   0.0000140
            7
    1  -0.0000027
    2   0.0000062
    3   0.0000132
 Max gradient component =       7.061E-05
 RMS gradient           =       2.869E-05
 Gradient time:  CPU 64.76 s  wall 65.18 s
 Geometry Optimization Parameters
   NAtoms,    NIC,     NZ,  NCons,   NDum,   NFix, NCnnct, MaxDiis
        7      35       7       0       0       0       0       0

 Cartesian Hessian Update
 Hessian Updated using BFGS Update


** GEOMETRY OPTIMIZATION IN DELOCALIZED INTERNAL COORDINATES **
   Searching for a Minimum

   Optimization Cycle:   6

                       Coordinates (Angstroms)
     ATOM              X           Y           Z
    1  C          -0.000010    0.000878    0.008261
    2  N           0.000055   -0.002932    1.490151
    3  O           1.074444    0.000410    2.042665
    4  O          -1.073870   -0.034554    2.042678
    5  H           0.017472   -1.040456   -0.306374
    6  H          -0.912505    0.481531   -0.328074
    7  H           0.895816    0.511930   -0.328051
   Point Group: c1    Number of degrees of freedom:  15


   Energy is   -244.932476110

 Hessian Updated using BFGS Update

 15 Hessian modes will be used to form the next step
  Hessian Eigenvalues:
     0.002522    0.066128    0.076721    0.077350    0.159617    0.160000
     0.165480    0.249991    0.326123    0.345561    0.349804    0.349842
     0.367854    0.924480    0.940594

 Minimum Search - Taking Simple RFO Step
 Searching for Lamda that Minimizes Along All modes
 Value Taken    Lamda =   0.00000000
 Step Taken.  Stepsize is  0.000629

                             Maximum     Tolerance    Cnvgd?
         Gradient           0.000125      0.000300     YES
         Displacement       0.000373      0.001200     YES
         Energy change      0.000000      0.000001     YES


                       Distance Matrix (Angstroms)
             C (  1)   N (  2)   O (  3)   O (  4)   H (  5)   H (  6)
   N (  2)  1.481895
   O (  3)  2.300707  1.208138
   O (  4)  2.300714  1.208139  2.148598
   H (  5)  1.087969  2.074671  2.778233  2.778652
   H (  6)  1.084802  2.091270  3.130472  2.431635  1.783752
   H (  7)  1.084796  2.091250  2.431842  3.130281  1.783777  1.808577

 


 ******************************
 **  OPTIMIZATION CONVERGED  **
 ******************************
 Analysis of SCF Wavefunction
 
 --------------------------------------------------------------
                    Orbital Energies (a.u.)
 --------------------------------------------------------------
 
 Alpha MOs
 -- Occupied --
-18.997 -18.997 -14.449 -10.168  -1.387  -1.206  -0.972  -0.760
 -0.705  -0.681  -0.657  -0.582  -0.563  -0.442  -0.438  -0.425
 -- Virtual --
  0.016   0.030   0.066   0.067   0.088   0.133   0.138   0.148
  0.169   0.171   0.205   0.231   0.233   0.236   0.284   0.292
  0.300   0.314   0.315   0.345   0.351   0.387   0.445   0.449
  0.458   0.490   0.501   0.540   0.591   0.623   0.640   0.666
  0.697   0.736   0.792   0.887   0.917   0.972   0.972   0.985
  1.060   1.079   1.108   1.133   1.157   1.162   1.198   1.208
  1.210   1.246   1.254   1.328   1.339   1.356   1.460   1.476
  1.495   1.507   1.561   1.608   1.639   1.678   1.678   1.781
  1.795   1.875   1.924   1.957   2.173   2.176   2.330   2.498
  2.569   2.614   2.663   2.674   2.694   2.980   3.035   3.132
  3.144   3.171   3.244   3.308   3.347   3.467   3.508   3.539
  3.555   3.694   3.796   3.842   3.851   3.930   3.937   3.956
  4.028   4.170   4.197   4.297   4.359   4.380   4.451   4.537
  4.572   4.578   4.614   4.666   4.697   4.722   4.750   4.943
  5.039   5.065   5.084   5.110   5.135   5.153   5.169   5.202
  5.341   5.355   5.509   5.550   5.628   5.680   5.703   5.741
  5.885   5.903   6.221   6.513   6.693   6.815   6.874   6.874
  6.918   7.120   7.209   7.232   7.262   7.346   7.585   7.702
  7.861   8.010  24.275  27.968  28.040  28.069  35.841  37.255
 37.983  38.193  40.360  40.416  40.424  40.579  40.732  40.910
 40.986  41.127  41.138  41.202  43.662  43.668  43.700  43.713
 43.778  43.802  43.806  43.860  43.949  43.988  45.661  45.669
 45.753  45.800  46.326  46.700  50.013  50.081
 --------------------------------------------------------------
 
          Ground-State Mulliken Net Atomic Charges

     Atom                 Charge (a.u.)
  ----------------------------------------
      1 C                    -0.181227
      2 N                     0.205185
      3 O                    -0.189910
      4 O                    -0.189900
      5 H                     0.114680
      6 H                     0.120587
      7 H                     0.120586
  ----------------------------------------
  Sum of atomic charges =     0.000000

 -----------------------------------------------------------------
                    Cartesian Multipole Moments
 -----------------------------------------------------------------
    Charge (ESU x 10^10)
                 0.0000
    Dipole Moment (Debye)
         X      -0.0003      Y       0.0129      Z      -3.7237
       Tot       3.7237
    Quadrupole Moments (Debye-Ang)
        XX     -26.5951     XY      -0.0818     YY     -21.5660
        XZ      -0.0024     YZ       0.1418     ZZ     -32.0713
    Octapole Moments (Debye-Ang^2)
       XXX      -0.0636    XXY       1.2553    XYY       0.0470
       YYY      -0.2925    XXZ     -37.6566    XYZ      -0.1507
       YYZ     -28.4032    XZZ      -0.0097    YZZ       0.5760
       ZZZ    -110.5383
    Hexadecapole Moments (Debye-Ang^3)
      XXXX    -108.4360   XXXY      -0.7189   XXYY     -21.4223
      XYYY      -0.6505   YYYY     -24.3099   XXXZ      -0.0054
      XXYZ       0.1055   XYYZ      -0.0248   YYYZ       1.6796
      XXZZ     -93.1021   XYZZ      -0.4885   YYZZ     -63.0973
      XZZZ      -0.0356   YZZZ       2.1317   ZZZZ    -422.8830
 -----------------------------------------------------------------
 Total job time:  1276.56s(wall), 1266.61s(cpu) 
 Wed Jul  3 20:38:21 2013

        *************************************************************
        *                                                           *
        *  Thank you very much for using Q-Chem.  Have a nice day.  *
        *                                                           *
        *************************************************************


0 sent ACK to 0 
now end server 0 ... 
 
**********************************************************************
Job 2 of 2 
**********************************************************************
 
Process 0 of 1 is on cl113.stfx.acenet.ca - thread support 1
initial socket setup ...start
initial socket setup ...done 
now start server 0 ... 

cmd = /usr/bin/ssh clhead /usr/local/qchem/bin/get_hostid 1384005015 > /scratch/tmp/6060373.1.short.q/qchem336/lic.dat
                  Welcome to Q-Chem
     A Quantum Leap Into The Future Of Chemistry

 Y. Shao, L. Fusti-Molnar, Y. Jung, J. Kussmann, C. Ochsenfeld,
 S. T. Brown, A. T. B. Gilbert, L. V. Slipchenko,S. V. Levchenko,
 D. P. O'Neill, R. A. DiStasio Jr., R. C. Lochan, T. Wang,
 G. J. O. Beran, N. A. Besley, J. M. Herbert, C. Y. Lin,
 T. Van Voorhis, S. H. Chien, A. Sodt, R. P. Steele, 
 V. A. Rassolov, P. E. Maslen, P. P. Korambath, R. D. Adamson,
 B. Austin, J. Baker, E. F. C. Byrd, H. Dachsel, R. J. Doerksen,
 A. Dreuw, B. D. Dunietz, A. D. Dutoi, T. R. Furlani,
 S. R. Gwaltney, A. Heyden, S. Hirata, C.-P. Hsu, G. Kedziora,
 R. Z. Khaliullin, P. Klunzinger, A. M. Lee, M. S. Lee, W. Liang,
 I. Lotan, N. Nair, B. Peters, E. I. Proynov, P. A. Pieniazek, 
 Y. M. Rhee, J. Ritchie, E. Rosta, C. D. Sherrill, 
 A. C. Simmonett, J. E. Subotnik, H. L. Woodcock III,
 W. Zhang, A. T. Bell, A. K. Chakraborty, D. M. Chipman,
 F. J. Keil, A. Warshel, W. J. Hehre, H. F. Schaefer III,
 J. Kong, A. I. Krylov, P. M. W. Gill, M. Head-Gordon,
 Q-Chem, Version 3.1, Q-Chem, Inc., Pittsburgh, PA (2007).

 Additional authors for Version 3.1: 
 Z. Gan, Y. Zhao, N. E. Schultz, D. Truhlar, E. Epifanovsky and M. Oana.

 Additional authors for Version 3.2: 
 R. Baer, B. R. Brooks, D. Casanova, J.-D. Chai, C.-L. Cheng, 
 C. Cramer, D. Crittenden, A. Ghysels, G. Hawkins, E. G. Hohenstein, 
 C. Kelley, W. Kurlancheek, D. Liotard, E. Livshits, P. Manohar, 
 A. Marenich, D. Neuhauser, R. Olson, M. A. Rohrdanz, K. S. Thanthiriwatte, 
 A. J. W. Thom, V. Vanovschi, C. F. Williams, Q. Wu and Z.-Q. You. 


 Intel X86 Linux Version

 Q-chem begins on Wed Jul  3 20:38:24 2013  

 Parallel job on  1  processors
Processing $rem in /usr/local/qchem/config/preferences.

theFileMan(): MAXOPENFILES=974 MAX_SUB_FILE_NUM=16
Maximum size of a physical file is 2.0 GB, maximum size of a tmp-file is 32.0 GB


--------------------------------------------------------------
User input:
--------------------------------------------------------------

$molecule 
READ 
$end 

$xc_functional
C PBE   1.00
X wPBE  1.00
$end


$rem
SYMMETRY_DECOMPOSITION	0
LRC_DFT                 true
exchange 		general
BASIS                   g3large
omega			390 
JOBTYPE                 freq
IDERIV 1
SCF_GUESS READ
mem_static              760
max_scf_cycles          200
scf_final_print         1
sym_ignore              true
$end

--------------------------------------------------------------
 Writing REM_CC_EA            7
 ----------------------------------------------------
       Standard Nuclear Orientation (Angstroms)
    I     Atom         X            Y            Z
 ----------------------------------------------------
    1      C      -0.000010     0.000878     0.008261
    2      N       0.000055    -0.002932     1.490151
    3      O       1.074444     0.000410     2.042665
    4      O      -1.073870    -0.034554     2.042678
    5      H       0.017472    -1.040456    -0.306374
    6      H      -0.912505     0.481531    -0.328074
    7      H       0.895816     0.511930    -0.328051
 ----------------------------------------------------
 Nuclear Repulsion Energy =   126.1181759873 hartrees
 There are       16 alpha and       16 beta electrons
 Requested basis set is G3large
 There are 58 shells and 198 basis functions

Total QAlloc Memory Limit   2000 MB
Mega-Array Size       759 MB
MEM_STATIC part       760 MB

                       Distance Matrix (Angstroms)
             C (  1)   N (  2)   O (  3)   O (  4)   H (  5)   H (  6)
   N (  2)  1.481895
   O (  3)  2.300707  1.208138
   O (  4)  2.300714  1.208139  2.148598
   H (  5)  1.087969  2.074671  2.778233  2.778652
   H (  6)  1.084802  2.091270  3.130472  2.431635  1.783752
   H (  7)  1.084796  2.091250  2.431842  3.130281  1.783777  1.808577

 
 A cutoff of  1.0D-11 yielded   1626 shell pairs
 There are  19096 function pairs ( 24102 Cartesian)
Evaluating contribution to one-electron hamiltonian from nuclear
 Smallest overlap matrix eigenvalue = 3.39E-04
 Multipole matrices computed through 2nd order
 Guess MOs from SCF MO coefficient file
Reading MOs from coefficient file
Reading MOs from coefficient file
 Long-range K will be added via erf
 Coulomb attenuation parameter = 0.39 bohr**(-1)
 A restricted Kohn-Sham SCF calculation will be
 performed using Pulay DIIS extrapolation
 Exchange:  wPBE + LR-HF      Correlation:  PBE
 Using SG-1 standard quadrature grid
 SCF converges when DIIS error is below 1.0E-08
 ---------------------------------------
  Cycle       Energy         DIIS Error
 ---------------------------------------
    1    -244.9324761056      7.81E-10
    2    -244.9324761060      5.35E-10 Convergence criterion met
 ---------------------------------------
 One-Electron    Energy =  -583.6509128522
 Total Coulomb   Energy =   243.0182656702
 Alpha Exchange  Energy =    -3.1772878080
 Beta  Exchange  Energy =    -3.1772878080
 DFT   Exchange  Energy =   -22.9848167483
 DFT Correlation Energy =    -1.0786125469
 Nuclear Repu.   Energy =   126.1181759873
 Nuclear Attr.   Energy =  -827.8830585029
 Kinetic         Energy =   244.2321456507
 SCF time:  CPU 26.03 s  wall 26.36 s
 Final Alpha MO Eigenvalues
            1           2           3           4           5           6
    1 -18.9972348 -18.9971882 -14.4487168 -10.1680122  -1.3865613  -1.2061364
            7           8           9          10          11          12
    1  -0.9720901  -0.7599705  -0.7053056  -0.6811832  -0.6574338  -0.5823049
           13          14          15          16          17          18
    1  -0.5628283  -0.4418064  -0.4381777  -0.4251648   0.0156046   0.0300569
           19          20          21
    1   0.0656882   0.0666340   0.0879494
 Analysis of SCF Wavefunction
 
 --------------------------------------------------------------
                    Orbital Energies (a.u.)
 --------------------------------------------------------------
 
 Alpha MOs
 -- Occupied --
-18.997 -18.997 -14.449 -10.168  -1.387  -1.206  -0.972  -0.760
 -0.705  -0.681  -0.657  -0.582  -0.563  -0.442  -0.438  -0.425
 -- Virtual --
  0.016   0.030   0.066   0.067   0.088   0.133   0.138   0.148
  0.169   0.171   0.205   0.231   0.233   0.236   0.284   0.292
  0.300   0.314   0.315   0.345   0.351   0.387   0.445   0.449
  0.458   0.490   0.501   0.540   0.591   0.623   0.640   0.666
  0.697   0.736   0.792   0.887   0.917   0.972   0.972   0.985
  1.060   1.079   1.108   1.133   1.157   1.162   1.198   1.208
  1.210   1.246   1.254   1.328   1.339   1.356   1.460   1.476
  1.495   1.507   1.561   1.608   1.639   1.678   1.678   1.781
  1.795   1.875   1.924   1.957   2.173   2.176   2.330   2.498
  2.569   2.614   2.663   2.674   2.694   2.980   3.035   3.132
  3.144   3.171   3.244   3.308   3.347   3.467   3.508   3.539
  3.555   3.694   3.796   3.842   3.851   3.930   3.937   3.956
  4.028   4.170   4.197   4.297   4.359   4.380   4.451   4.537
  4.572   4.578   4.614   4.666   4.697   4.722   4.750   4.943
  5.039   5.065   5.084   5.110   5.135   5.153   5.169   5.202
  5.341   5.355   5.509   5.550   5.628   5.680   5.703   5.741
  5.885   5.903   6.221   6.513   6.693   6.815   6.874   6.874
  6.918   7.120   7.209   7.232   7.262   7.346   7.585   7.702
  7.861   8.010  24.275  27.968  28.040  28.069  35.841  37.255
 37.983  38.193  40.360  40.416  40.424  40.579  40.732  40.910
 40.986  41.127  41.138  41.202  43.662  43.668  43.700  43.713
 43.778  43.802  43.806  43.860  43.949  43.988  45.661  45.669
 45.753  45.800  46.326  46.700  50.013  50.081
 --------------------------------------------------------------
 
          Ground-State Mulliken Net Atomic Charges

     Atom                 Charge (a.u.)
  ----------------------------------------
      1 C                    -0.181227
      2 N                     0.205185
      3 O                    -0.189910
      4 O                    -0.189900
      5 H                     0.114680
      6 H                     0.120587
      7 H                     0.120586
  ----------------------------------------
  Sum of atomic charges =     0.000000

 -----------------------------------------------------------------
                    Cartesian Multipole Moments
 -----------------------------------------------------------------
    Charge (ESU x 10^10)
                 0.0000
    Dipole Moment (Debye)
         X      -0.0003      Y       0.0129      Z      -3.7237
       Tot       3.7237
    Quadrupole Moments (Debye-Ang)
        XX     -26.5951     XY      -0.0818     YY     -21.5660
        XZ      -0.0024     YZ       0.1418     ZZ     -32.0713
    Octapole Moments (Debye-Ang^2)
       XXX      -0.0636    XXY       1.2553    XYY       0.0470
       YYY      -0.2925    XXZ     -37.6566    XYZ      -0.1507
       YYZ     -28.4032    XZZ      -0.0097    YZZ       0.5760
       ZZZ    -110.5383
    Hexadecapole Moments (Debye-Ang^3)
      XXXX    -108.4360   XXXY      -0.7189   XXYY     -21.4223
      XYYY      -0.6505   YYYY     -24.3099   XXXZ      -0.0054
      XXYZ       0.1055   XYYZ      -0.0248   YYYZ       1.6796
      XXZZ     -93.1021   XYZZ      -0.4885   YYZZ     -63.0973
      XZZZ      -0.0356   YZZZ       2.1317   ZZZZ    -422.8830
 -----------------------------------------------------------------
 Calculating analytic gradient of the SCF energy
 Gradient of AOints
            1           2           3           4           5           6
    1   0.0029358   0.0086000 -16.6306722  16.6211052  -0.0618593   3.1928219
    2  -0.1809556  -0.5116256   0.0113837   0.5521359   3.6915822  -1.7280520
    3   7.0078788   6.0987710  -9.4972752  -9.4977182   1.8400795   2.0242523
            7
    1  -3.1329315
    2  -1.8344686
    3   2.0240118
 Gradient of XC Energy
            1           2           3           4           5           6
    1  -0.0001005  -0.0002668   0.3970405  -0.3967680   0.0028603  -0.1500267
    2   0.0058442   0.0158249  -0.0015372  -0.0144522  -0.1702295   0.0797744
    3  -0.0179739  -0.2495001   0.2233496   0.2233634  -0.0557243  -0.0617587
            7
    1   0.1472613
    2   0.0847754
    3  -0.0617559
 Gradient of SCF Energy
            1           2           3           4           5           6
    1   0.0000015   0.0000011   0.0000271  -0.0000260   0.0000006  -0.0000018
[...]
    1  -0.0455217   0.0045441   0.0012277  -0.2603361   0.1101546  -0.0639112
    2   0.0045448  -0.3148545  -0.0733676   0.1118227  -0.1076787   0.0375541
    3   0.0013324  -0.0794087  -0.0697408  -0.0774088   0.0437846  -0.0743832
    4  -0.0018141  -0.0001111   0.0007366  -0.0030113  -0.0004344  -0.0326794
    5  -0.0000942   0.0037297  -0.0426326  -0.0023628  -0.0008954   0.0190773
    6  -0.0000005   0.0001947  -0.0159739   0.0014640  -0.0029949  -0.0114330
    7  -0.0004895   0.0006355  -0.0002146   0.0021115  -0.0010650  -0.0019773
    8   0.0012454   0.0000427   0.0048312   0.0006534   0.0010975  -0.0018239
    9  -0.0013834   0.0003915  -0.0009966  -0.0009271  -0.0017834  -0.0090891
   10  -0.0004275  -0.0006351   0.0000395   0.0016793  -0.0014332   0.0006181
   11  -0.0012569  -0.0000290   0.0048352  -0.0005775   0.0001419  -0.0020311
   12   0.0013658   0.0004287  -0.0009950   0.0023948   0.0001833   0.0020656
   13   0.0431442  -0.0048778  -0.0014319   0.0021732   0.0249792   0.0093528
   14  -0.0048778   0.3319927   0.0851685  -0.0020723  -0.0100664  -0.0032316
   15  -0.0014319   0.0851685   0.0788549   0.0013284   0.0106089   0.0044241
   16   0.0021732  -0.0020723   0.0013284   0.2715777  -0.1194396   0.0807598
   17   0.0249792  -0.0100664   0.0106089  -0.1194396   0.1083468  -0.0428399
   18   0.0093528  -0.0032316   0.0044241   0.0807598  -0.0428399   0.0836123
   19   0.0029350   0.0025152  -0.0016886  -0.0141951  -0.0127608   0.0078383
   20  -0.0245383  -0.0108086   0.0105517   0.0119819   0.0090521  -0.0067009
   21  -0.0092357  -0.0035405   0.0044259  -0.0076091  -0.0069597   0.0048046
           19          20          21
    1  -0.2528001  -0.1150759   0.0626333
    2  -0.1167451  -0.1153624   0.0396980
    3   0.0759125   0.0463847  -0.0743817
    4  -0.0030981   0.0003669   0.0320276
    5   0.0022908  -0.0008026   0.0201694
    6  -0.0013525  -0.0030362  -0.0114333
    7   0.0015996   0.0014759  -0.0005543
    8   0.0006236   0.0002147  -0.0020568
    9  -0.0024033   0.0000963   0.0020697
   10   0.0020987   0.0011016   0.0020330
   11  -0.0006124   0.0011067  -0.0017647
   12   0.0009859  -0.0017555  -0.0090850
   13   0.0029350  -0.0245383  -0.0092357
   14   0.0025152  -0.0108086  -0.0035405
   15  -0.0016886   0.0105517   0.0044259
   16  -0.0141951   0.0119819  -0.0076091
   17  -0.0127608   0.0090521  -0.0069597
   18   0.0078383  -0.0067009   0.0048046
   19   0.2634635   0.1246900  -0.0792965
   20   0.1246900   0.1166028  -0.0455422
   21  -0.0792965  -0.0455422   0.0836024
 Writing REM_CC_EA            7
 ----------------------------------------------------
       Standard Nuclear Orientation (Angstroms)
    I     Atom         X            Y            Z
 ----------------------------------------------------
    1      C      -0.000010     0.000878     0.008261
    2      N       0.000055    -0.002932     1.490151
    3      O       1.074444     0.000410     2.042665
    4      O      -1.073870    -0.034554     2.042678
    5      H       0.017472    -1.040456    -0.306374
    6      H      -0.912505     0.481531    -0.328074
    7      H       0.895816     0.511930    -0.328051
 ----------------------------------------------------
 Nuclear Repulsion Energy =   126.1181759873 hartrees
 There are       16 alpha and       16 beta electrons
 old dipole drv.
            1           2           3           4           5           6
    1   0.0992862  -0.0005696   0.0003569   1.9951173   0.0295494  -0.0000876
    2  -0.0005197   0.1336733  -0.0226060   0.0295000   0.1844341   0.0042180
    3   0.0013254  -0.0789976  -0.0064751  -0.0001115   0.0087672   1.0632015
            7           8           9          10          11          12
    1  -1.1430741   0.0004362  -0.4328513  -1.1426685  -0.0295025   0.4327357
    2  -0.0171407  -0.2533523  -0.0040868  -0.0118385  -0.2537317   0.0100042
    3  -0.0901332   0.0019463  -0.5943514   0.0900022   0.0048786  -0.5942978
           13          14          15          16          17          18
    1   0.1104914   0.0019490  -0.0008540   0.0389283   0.0415331   0.0283276
    2   0.0016844   0.0094273   0.0339184   0.0440569   0.0912651  -0.0102508
    3   0.0000834  -0.0069613   0.0484803  -0.0206334   0.0348363   0.0417195
           19          20          21
    1   0.0418142  -0.0432506  -0.0279862
    2  -0.0457341   0.0883082  -0.0111975
    3   0.0193986   0.0354922   0.0417408
 New transposed dipole drv.
            1           2           3
    1   0.0992862  -0.0005197   0.0013254
    2  -0.0005696   0.1336733  -0.0789976
    3   0.0003569  -0.0226060  -0.0064751
    4   1.9951173   0.0295000  -0.0001115
    5   0.0295494   0.1844341   0.0087672
    6  -0.0000876   0.0042180   1.0632015
    7  -1.1430741  -0.0171407  -0.0901332
    8   0.0004362  -0.2533523   0.0019463
    9  -0.4328513  -0.0040868  -0.5943514
   10  -1.1426685  -0.0118385   0.0900022
   11  -0.0295025  -0.2537317   0.0048786
   12   0.4327357   0.0100042  -0.5942978
   13   0.1104914   0.0016844   0.0000834
   14   0.0019490   0.0094273  -0.0069613
   15  -0.0008540   0.0339184   0.0484803
   16   0.0389283   0.0440569  -0.0206334
   17   0.0415331   0.0912651   0.0348363
   18   0.0283276  -0.0102508   0.0417195
   19   0.0418142  -0.0457341   0.0193986
   20  -0.0432506   0.0883082   0.0354922
   21  -0.0279862  -0.0111975   0.0417408
FINAL TENSOR RESULT:
Order 2, Length 21
Order 1, Length 21
   0.6694613   0.0012253   0.0002088  -0.0842794   0.0003592  -0.0000457  -0.0132333  -0.0019276  -0.0495621  -0.0132878   0.0007165   0.0494480  -0.0455217   0.0045441   0.0012277  -0.2603361   0.1101546  -0.0639112  -0.2528001  -0.1150759   0.0626333
Order 1, Length 21
   0.0012253   0.5963539  -0.0133686   0.0003735  -0.1071593   0.0025294  -0.0007536   0.0243097   0.0026650  -0.0004724   0.0243682   0.0042833   0.0045448  -0.3148545  -0.0733676   0.1118227  -0.1076787   0.0375541  -0.1167451  -0.1153624   0.0396980
Order 1, Length 21
   0.0002088  -0.0133686   0.4542953   0.0000078  -0.0002345  -0.1757563  -0.0208226   0.0010842  -0.0300179   0.0207716   0.0017543  -0.0300160   0.0013324  -0.0794087  -0.0697408  -0.0774088   0.0437846  -0.0743832   0.0759125   0.0463847  -0.0743817
Order 1, Length 21
  -0.0842794   0.0003735   0.0000078   1.0663538   0.0128296   0.0001375  -0.4872464  -0.0011875  -0.2131769  -0.4869072  -0.0118522   0.2129792  -0.0018141  -0.0001111   0.0007366  -0.0030113  -0.0004344  -0.0326794  -0.0030981   0.0003669   0.0320276
Order 1, Length 21
   0.0003592  -0.1071593  -0.0002345   0.0128296   0.2706648  -0.0068265  -0.0017627  -0.0826146   0.0017079  -0.0112666  -0.0829599   0.0087281  -0.0000942   0.0037297  -0.0426326  -0.0023628  -0.0008954   0.0190773   0.0022908  -0.0008026   0.0201694
Order 1, Length 21
  -0.0000457   0.0025294  -0.1757563   0.0001375  -0.0068265   0.7700669  -0.2260157   0.0013457  -0.2777414   0.2258237   0.0087892  -0.2777238  -0.0000005   0.0001947  -0.0159739   0.0014640  -0.0029949  -0.0114330  -0.0013525  -0.0030362  -0.0114333
Order 1, Length 21
  -0.0132333  -0.0007536  -0.0208226  -0.4872464  -0.0017627  -0.2260157   0.6357222   0.0037471   0.2584889  -0.1384656  -0.0022787  -0.0089240  -0.0004895   0.0006355  -0.0002146   0.0021115  -0.0010650  -0.0019773   0.0015996   0.0014759  -0.0005543
Order 1, Length 21
  -0.0019276   0.0243097   0.0010842  -0.0011875  -0.0826146   0.0013457   0.0037471   0.0286709  -0.0022733  -0.0031506   0.0283106  -0.0010980   0.0012454   0.0000427   0.0048312   0.0006534   0.0010975  -0.0018239   0.0006236   0.0002147  -0.0020568
Order 1, Length 21
  -0.0495621   0.0026650  -0.0300179  -0.2131769   0.0017079  -0.2777414   0.2584889  -0.0022733   0.2601981   0.0089569  -0.0008026   0.0555687  -0.0013834   0.0003915  -0.0009966  -0.0009271  -0.0017834  -0.0090891  -0.0024033   0.0000963   0.0020697
Order 1, Length 21
  -0.0132878  -0.0004724   0.0207716  -0.4869072  -0.0112666   0.2258237  -0.1384656  -0.0031506   0.0089569   0.6353086   0.0158678  -0.2582515  -0.0004275  -0.0006351   0.0000395   0.0016793  -0.0014332   0.0006181   0.0020987   0.0011016   0.0020330
Order 1, Length 21
   0.0007165   0.0243682   0.0017543  -0.0118522  -0.0829599   0.0087892  -0.0022787   0.0283106  -0.0008026   0.0158678   0.0290832  -0.0107713  -0.0012569  -0.0000290   0.0048352  -0.0005775   0.0001419  -0.0020311  -0.0006124   0.0011067  -0.0017647
Order 1, Length 21
   0.0494480   0.0042833  -0.0300160   0.2129792   0.0087281  -0.2777238  -0.0089240  -0.0010980   0.0555687  -0.2582515  -0.0107713   0.2601868   0.0013658   0.0004287  -0.0009950   0.0023948   0.0001833   0.0020656   0.0009859  -0.0017555  -0.0090850
Order 1, Length 21
  -0.0455217   0.0045448   0.0013324  -0.0018141  -0.0000942  -0.0000005  -0.0004895   0.0012454  -0.0013834  -0.0004275  -0.0012569   0.0013658   0.0431442  -0.0048778  -0.0014319   0.0021732   0.0249792   0.0093528   0.0029350  -0.0245383  -0.0092357
Order 1, Length 21
   0.0045441  -0.3148545  -0.0794087  -0.0001111   0.0037297   0.0001947   0.0006355   0.0000427   0.0003915  -0.0006351  -0.0000290   0.0004287  -0.0048778   0.3319927   0.0851685  -0.0020723  -0.0100664  -0.0032316   0.0025152  -0.0108086  -0.0035405
Order 1, Length 21
   0.0012277  -0.0733676  -0.0697408   0.0007366  -0.0426326  -0.0159739  -0.0002146   0.0048312  -0.0009966   0.0000395   0.0048352  -0.0009950  -0.0014319   0.0851685   0.0788549   0.0013284   0.0106089   0.0044241  -0.0016886   0.0105517   0.0044259
Order 1, Length 21
  -0.2603361   0.1118227  -0.0774088  -0.0030113  -0.0023628   0.0014640   0.0021115   0.0006534  -0.0009271   0.0016793  -0.0005775   0.0023948   0.0021732  -0.0020723   0.0013284   0.2715777  -0.1194396   0.0807598  -0.0141951   0.0119819  -0.0076091
Order 1, Length 21
   0.1101546  -0.1076787   0.0437846  -0.0004344  -0.0008954  -0.0029949  -0.0010650   0.0010975  -0.0017834  -0.0014332   0.0001419   0.0001833   0.0249792  -0.0100664   0.0106089  -0.1194396   0.1083468  -0.0428399  -0.0127608   0.0090521  -0.0069597
Order 1, Length 21
  -0.0639112   0.0375541  -0.0743832  -0.0326794   0.0190773  -0.0114330  -0.0019773  -0.0018239  -0.0090891   0.0006181  -0.0020311   0.0020656   0.0093528  -0.0032316   0.0044241   0.0807598  -0.0428399   0.0836123   0.0078383  -0.0067009   0.0048046
Order 1, Length 21
  -0.2528001  -0.1167451   0.0759125  -0.0030981   0.0022908  -0.0013525   0.0015996   0.0006236  -0.0024033   0.0020987  -0.0006124   0.0009859   0.0029350   0.0025152  -0.0016886  -0.0141951  -0.0127608   0.0078383   0.2634635   0.1246900  -0.0792965
Order 1, Length 21
  -0.1150759  -0.1153624   0.0463847   0.0003669  -0.0008026  -0.0030362   0.0014759   0.0002147   0.0000963   0.0011016   0.0011067  -0.0017555  -0.0245383  -0.0108086   0.0105517   0.0119819   0.0090521  -0.0067009   0.1246900   0.1166028  -0.0455422
Order 1, Length 21
   0.0626333   0.0396980  -0.0743817   0.0320276   0.0201694  -0.0114333  -0.0005543  -0.0020568   0.0020697   0.0020330  -0.0017647  -0.0090850  -0.0092357  -0.0035405   0.0044259  -0.0076091  -0.0069597   0.0048046  -0.0792965  -0.0455422   0.0836024


 # Finishing finite difference calculation for IDERIV #
 ######################################################
 ######################################################
 Requested basis set is G3large
 There are 58 shells and 198 basis functions
 **********************************************************************
 **                                                                  **
 **                       VIBRATIONAL ANALYSIS                       **
 **                       --------------------                       **
 **                                                                  **
 **        VIBRATIONAL FREQUENCIES (CM**-1) AND NORMAL MODES         **
 **     FORCE CONSTANTS (mDYN/ANGSTROM) AND REDUCED MASSES (AMU)     **
 **                  INFRARED INTENSITIES (KM/MOL)                   **
 **                                                                  **
 **********************************************************************
 

 Mode:                 1                      2                      3
 Frequency:        37.87                 489.30                 634.15
 Force Cnst:      0.0009                 0.4600                 0.7734
 Red. Mass:       1.0946                 3.2614                 3.2643
 IR Active:          YES                    YES                    YES
 IR Intens:        0.007                  0.953                  5.214
 Raman Active:       YES                    YES                    YES
               X      Y      Z        X      Y      Z        X      Y      Z
 C          0.006  0.000  0.000   -0.209 -0.003  0.000    0.000  0.001  0.091
 N         -0.008  0.000  0.000    0.154  0.003  0.000   -0.006  0.346  0.018
 O         -0.001 -0.052 -0.011    0.047 -0.008  0.216    0.033 -0.128 -0.052
 O         -0.003  0.052  0.011    0.047  0.009 -0.216   -0.029 -0.129 -0.051
 H          0.616  0.010  0.000   -0.298 -0.005  0.000    0.003 -0.203  0.746
 H         -0.245 -0.497 -0.024   -0.417 -0.096  0.436   -0.019 -0.259 -0.221
 H         -0.262  0.488  0.024   -0.420  0.082 -0.436    0.028 -0.259 -0.221
 TransDip   0.003  0.000  0.000   -0.031  0.000  0.000   -0.001  0.059  0.044

 Mode:                 4                      5                      6
 Frequency:       695.77                 982.29                1116.26
 Force Cnst:      1.7362                 4.6870                 1.0334
 Red. Mass:       6.0873                 8.2446                 1.4076
 IR Active:          YES                    YES                    YES
 IR Intens:       24.185                  7.753                  8.995
 Raman Active:       YES                    YES                    YES
               X      Y      Z        X      Y      Z        X      Y      Z
 C          0.000  0.005  0.427    0.000 -0.010 -0.369   -0.164 -0.003  0.000
 N          0.002 -0.142  0.080    0.000  0.017  0.364    0.008  0.000  0.000
 O          0.182  0.056 -0.234    0.365  0.000  0.016    0.040  0.001  0.042
 O         -0.183  0.050 -0.235   -0.365 -0.011  0.016    0.040  0.000 -0.042
 H         -0.001  0.079  0.192    0.000 -0.007 -0.389    0.281  0.005  0.000
 H          0.004  0.070  0.527    0.018  0.029 -0.393    0.134  0.108 -0.643
 H         -0.007  0.070  0.527   -0.019  0.029 -0.394    0.137 -0.103  0.644
 TransDip   0.000 -0.022  0.156    0.000  0.005  0.089   -0.096 -0.002  0.000

 Mode:                 7                      8                      9
 Frequency:      1146.77                1420.25                1465.26
 Force Cnst:      1.2406                 1.4324                 1.3295
 Red. Mass:       1.6011                 1.2053                 1.0510
 IR Active:          YES                    YES                    YES
 IR Intens:        2.254                  6.190                 38.010
 Raman Active:       YES                    YES                    YES
               X      Y      Z        X      Y      Z        X      Y      Z
 C         -0.003  0.158 -0.009    0.000 -0.002 -0.134   -0.053 -0.001  0.000
 N          0.002 -0.151  0.003    0.000 -0.004 -0.001    0.017  0.000  0.000
 O          0.001  0.028  0.003    0.004  0.001  0.001   -0.014  0.001 -0.009
 O         -0.001  0.028  0.003   -0.004  0.001  0.000   -0.014 -0.001  0.009
 H          0.001 -0.066  0.692    0.002 -0.206  0.551    0.712  0.011  0.003
 H         -0.113 -0.303 -0.360   -0.172  0.127  0.521    0.064  0.397  0.292
 H          0.123 -0.299 -0.359    0.167  0.134  0.522    0.073 -0.388 -0.293
 TransDip   0.000 -0.043 -0.021   -0.001  0.014  0.078    0.197  0.004  0.001

 Mode:                10                     11                     12
 Frequency:      1472.75                1525.00                1729.32
 Force Cnst:      1.3670                14.8181                19.2183
 Red. Mass:       1.0697                10.8144                10.9072
 IR Active:          YES                    YES                    YES
 IR Intens:       18.888                 86.777                425.208
 Raman Active:       YES                    YES                    YES
               X      Y      Z        X      Y      Z        X      Y      Z
 C          0.001 -0.049  0.003    0.000  0.021 -0.110   -0.050 -0.001  0.000
 N          0.000 -0.026  0.031    0.000  0.003  0.632    0.718  0.012  0.000
 O         -0.018  0.003 -0.012   -0.312 -0.001 -0.229   -0.294 -0.001 -0.140
 O          0.018  0.004 -0.013    0.312  0.009 -0.229   -0.294 -0.008  0.140
 H         -0.002 -0.143  0.363   -0.001  0.071 -0.288   -0.136 -0.002  0.001
 H          0.363  0.491 -0.217   -0.201 -0.242  0.040    0.042 -0.105 -0.336
 H         -0.380  0.483 -0.214    0.209 -0.235  0.039    0.038  0.107  0.336
 TransDip  -0.003  0.119  0.072    0.000 -0.020  0.298    0.660  0.011  0.000

 Mode:                13                     14                     15
 Frequency:      3123.54                3225.42                3251.26
 Force Cnst:      5.9276                 6.7731                 6.9204
 Red. Mass:       1.0312                 1.1050                 1.1112
 IR Active:          YES                    YES                    YES
 IR Intens:        0.220                  0.837                  0.169
 Raman Active:       YES                    YES                    YES
               X      Y      Z        X      Y      Z        X      Y      Z
 C          0.000 -0.012 -0.045    0.002 -0.094  0.007   -0.097 -0.002  0.000
 N          0.000  0.000  0.001    0.000  0.000 -0.001   -0.002  0.000  0.000
 O          0.000  0.000  0.000    0.000  0.000  0.000    0.001  0.000  0.000
 O          0.000  0.000  0.000    0.000  0.000  0.000    0.001  0.000  0.000
 H         -0.011  0.633  0.189   -0.012  0.708  0.216   -0.013  0.004  0.001
 H          0.445 -0.240  0.162   -0.405  0.202 -0.147    0.587 -0.315  0.213
 H         -0.435 -0.254  0.162    0.390  0.210 -0.144    0.583  0.339 -0.216
 TransDip   0.000  0.004 -0.015    0.000  0.005  0.029    0.013  0.000  0.000

 STANDARD THERMODYNAMIC QUANTITIES AT   298.18 K  AND     1.00 ATM

   This Molecule has  0 Imaginary Frequencies
   Zero point vibrational energy:       31.901 kcal/mol

   Atom    1 Element C  Has Mass   12.00000
   Atom    2 Element N  Has Mass   14.00307
   Atom    3 Element O  Has Mass   15.99491
   Atom    4 Element O  Has Mass   15.99491
   Atom    5 Element H  Has Mass    1.00783
   Atom    6 Element H  Has Mass    1.00783
   Atom    7 Element H  Has Mass    1.00783
   Molecular Mass:    61.016380 amu
   Principal axes and moments of inertia in atomic units:
                             1           2           3
    Eigenvalues --      143.40689   168.25133   300.30447
          X               0.00010     0.99987    -0.01627
          Y              -0.00708     0.01627     0.99984
          Z               0.99997     0.00001     0.00708
   Rotational Symmetry Number is   1
   The Molecule is an Asymmetric Top
   Translational Enthalpy:        0.889 kcal/mol
   Rotational Enthalpy:           0.889 kcal/mol
   Vibrational Enthalpy:         32.816 kcal/mol
   gas constant (RT):             0.593 kcal/mol
   Translational Entropy:        38.246  cal/mol.K
   Rotational Entropy:           23.498  cal/mol.K
   Vibrational Entropy:           7.028  cal/mol.K

   Total Enthalpy:               35.186 kcal/mol
   Total Entropy:                68.771  cal/mol.K
 Total job time:  7204.45s(wall), 7142.04s(cpu) 
 Wed Jul  3 22:38:28 2013

        *************************************************************
        *                                                           *
        *  Thank you very much for using Q-Chem.  Have a nice day.  *
        *                                                           *
        *************************************************************


0 sent ACK to 0 
now end server 0 ... 
