Process 0 of 1 is on cl118.stfx.acenet.ca - thread support 1
initial socket setup ...start
initial socket setup ...done 
now start server 0 ... 

cmd = /usr/bin/ssh clhead /usr/local/qchem/bin/get_hostid 855512118 > /scratch/tmp/6065232.1.short.q/qchem1459/lic.dat
                  Welcome to Q-Chem
     A Quantum Leap Into The Future Of Chemistry

 Y. Shao, L. Fusti-Molnar, Y. Jung, J. Kussmann, C. Ochsenfeld,
 S. T. Brown, A. T. B. Gilbert, L. V. Slipchenko,S. V. Levchenko,
 D. P. O'Neill, R. A. DiStasio Jr., R. C. Lochan, T. Wang,
 G. J. O. Beran, N. A. Besley, J. M. Herbert, C. Y. Lin,
 T. Van Voorhis, S. H. Chien, A. Sodt, R. P. Steele, 
 V. A. Rassolov, P. E. Maslen, P. P. Korambath, R. D. Adamson,
 B. Austin, J. Baker, E. F. C. Byrd, H. Dachsel, R. J. Doerksen,
 A. Dreuw, B. D. Dunietz, A. D. Dutoi, T. R. Furlani,
 S. R. Gwaltney, A. Heyden, S. Hirata, C.-P. Hsu, G. Kedziora,
 R. Z. Khaliullin, P. Klunzinger, A. M. Lee, M. S. Lee, W. Liang,
 I. Lotan, N. Nair, B. Peters, E. I. Proynov, P. A. Pieniazek, 
 Y. M. Rhee, J. Ritchie, E. Rosta, C. D. Sherrill, 
 A. C. Simmonett, J. E. Subotnik, H. L. Woodcock III,
 W. Zhang, A. T. Bell, A. K. Chakraborty, D. M. Chipman,
 F. J. Keil, A. Warshel, W. J. Hehre, H. F. Schaefer III,
 J. Kong, A. I. Krylov, P. M. W. Gill, M. Head-Gordon,
 Q-Chem, Version 3.1, Q-Chem, Inc., Pittsburgh, PA (2007).

 Additional authors for Version 3.1: 
 Z. Gan, Y. Zhao, N. E. Schultz, D. Truhlar, E. Epifanovsky and M. Oana.

 Additional authors for Version 3.2: 
 R. Baer, B. R. Brooks, D. Casanova, J.-D. Chai, C.-L. Cheng, 
 C. Cramer, D. Crittenden, A. Ghysels, G. Hawkins, E. G. Hohenstein, 
 C. Kelley, W. Kurlancheek, D. Liotard, E. Livshits, P. Manohar, 
 A. Marenich, D. Neuhauser, R. Olson, M. A. Rohrdanz, K. S. Thanthiriwatte, 
 A. J. W. Thom, V. Vanovschi, C. F. Williams, Q. Wu and Z.-Q. You. 


 Intel X86 Linux Version

 Q-chem begins on Mon Jul  8 16:57:04 2013  

 Parallel job on  1  processors
Processing $rem in /usr/local/qchem/config/preferences.

theFileMan(): MAXOPENFILES=974 MAX_SUB_FILE_NUM=16
Maximum size of a physical file is 2.0 GB, maximum size of a tmp-file is 32.0 GB


--------------------------------------------------------------
User input:
--------------------------------------------------------------

$molecule
-1,2
C          0.00153        0.00000       -0.00170
N          0.02691        0.00000        1.45040
H          0.98841        0.00000       -0.48072
H          0.49984       -0.81525        1.81295
H          0.49984        0.81525        1.81295
H         -0.54295       -0.87642       -0.35515
H         -0.54295        0.87642       -0.35515
$end

$comment
negative
$end

$xc_functional
C PBE   1.00
X wPBE  1.00
$end

$rem
SYMMETRY_DECOMPOSITION	0
exchange 		general
LRC_DFT                 true
BASIS                   g3large
omega			450
mem_static              760
max_scf_cycles          200
scf_final_print         1
sym_ignore              true
$end

--------------------------------------------------------------
 Writing REM_CC_EA            7
 ----------------------------------------------------
       Standard Nuclear Orientation (Angstroms)
    I     Atom         X            Y            Z
 ----------------------------------------------------
    1      C       0.001530     0.000000    -0.001700
    2      N       0.026910     0.000000     1.450400
    3      H       0.988410     0.000000    -0.480720
    4      H       0.499840    -0.815250     1.812950
    5      H       0.499840     0.815250     1.812950
    6      H      -0.542950    -0.876420    -0.355150
    7      H      -0.542950     0.876420    -0.355150
 ----------------------------------------------------
 Nuclear Repulsion Energy =    42.1716120230 hartrees
 There are       10 alpha and        9 beta electrons
 Requested basis set is G3large
 There are 50 shells and 134 basis functions

Total QAlloc Memory Limit   2000 MB
Mega-Array Size       743 MB
MEM_STATIC part       760 MB

                       Distance Matrix (Angstroms)
             C (  1)   N (  2)   H (  3)   H (  4)   H (  5)   H (  6)
   N (  2)  1.452322
   H (  3)  1.096992  2.157245
   H (  4)  2.050829  1.009821  2.482792
   H (  5)  2.050829  1.009821  2.482792  1.630500
   H (  6)  1.090641  2.086352  1.768882  2.406618  2.941057
   H (  7)  1.090641  2.086352  1.768882  2.941057  2.406618  1.752840

 
 A cutoff of  1.0D-08 yielded   1263 shell pairs
 There are   9135 function pairs ( 10882 Cartesian)
Evaluating contribution to one-electron hamiltonian from nuclear
 Smallest overlap matrix eigenvalue = 4.94E-04
 Multipole matrices computed through 2nd order

  Scale SEOQF with 1.000000e-01/1.000000e-01/1.000000e-01

 Standard Electronic Orientation quadrupole field applied
 Nucleus-field energy     =    -0.0000000021 hartrees
 Guess from superposition of atomic densities
 Warning:  Energy on first SCF cycle will be non-variational
 Long-range K will be added via erf
 Coulomb attenuation parameter = 0.45 bohr**(-1)
 An unrestricted Kohn-Sham SCF calculation will be
 performed using Pulay DIIS extrapolation
 Exchange:  wPBE + LR-HF      Correlation:  PBE
 Using SG-1 standard quadrature grid
 SCF converges when DIIS error is below 1.0E-05
 Requested basis set is G3large
 There are 50 shells and 134 basis functions
 A cutoff of  1.0D-08 yielded   1263 shell pairs
 There are   9135 function pairs ( 10882 Cartesian)
 Warning!  Inaccurate integrated density:
   Number of electrons =    19
   Numerical integral  =    18.000022500592
   Relative error      =    -5.2630394706 %
 ---------------------------------------
  Cycle       Energy         DIIS Error
 ---------------------------------------
    1     -96.1610184170      3.76E-02
    2     -95.7343388206      4.71E-03
    3     -95.7708422372      4.08E-03
    4     -95.8022055415      4.01E-04
    5     -95.8044002651      1.91E-04
    6     -95.8050621770      8.29E-05
    7     -95.8053321657      4.34E-05
    8     -95.8054784578      2.78E-05
    9     -95.8055723464      2.01E-05
   10     -95.8056466729      1.23E-05
   11     -95.8056796081      6.55E-06 Convergence criterion met
 ---------------------------------------
 One-Electron    Energy =  -214.5189828409
 Total Coulomb   Energy =    90.7904025902
 Alpha Exchange  Energy =    -2.0215615159
 Beta  Exchange  Energy =    -1.9557457653
 DFT   Exchange  Energy =    -9.6887810810
 DFT Correlation Energy =    -0.5826230161
 Nuclear Repu.   Energy =    42.1716120209
 Nuclear Attr.   Energy =  -309.9668320316
 Kinetic         Energy =    95.4478491907
 <S^2> = 0.7501
 SCF time:  CPU 53.65 s  wall 54.09 s
 Final Alpha MO Eigenvalues
            1           2           3           4           5           6
    1 -14.0557343  -9.9952454  -0.8985202  -0.6753451  -0.4900028  -0.4339680
            7           8           9          10          11          12
    1  -0.3967436  -0.3527926  -0.2233299   0.0291089   0.1423332   0.1473742
           13          14          15
    1   0.1619949   0.1913376   0.2272071
 Final Beta MO Eigenvalues
            1           2           3           4           5           6
    1 -14.0554157  -9.9948291  -0.8977559  -0.6734693  -0.4894684  -0.4321476
            7           8           9          10          11          12
    1  -0.3959481  -0.3524225  -0.2229498   0.1369503   0.1565348   0.1589315
           13          14
    1   0.1762141   0.1912714
 Analysis of SCF Wavefunction
 
 --------------------------------------------------------------
                    Orbital Energies (a.u.)
 --------------------------------------------------------------
 
 Alpha MOs
 -- Occupied --
-14.056  -9.995  -0.899  -0.675  -0.490  -0.434  -0.397  -0.353
 -0.223   0.029
 -- Virtual --
  0.142   0.147   0.162   0.191   0.227   0.266   0.269   0.287
  0.327   0.347   0.358   0.403   0.405   0.418   0.430   0.458
  0.467   0.525   0.665   0.671   0.731   0.750   0.796   0.817
  0.837   0.851   0.855   0.884   0.911   0.913   0.986   1.021
  1.118   1.129   1.184   1.189   1.283   1.344   1.345   1.379
  1.438   1.454   1.500   1.541   1.551   1.599   1.666   1.705
  1.718   1.749   1.789   1.908   1.917   2.001   2.142   2.146
  2.628   2.662   2.751   2.931   3.014   3.205   3.279   3.296
  3.312   3.386   3.410   3.501   3.529   3.562   3.619   3.648
  3.714   3.735   3.928   3.967   3.977   4.064   4.070   4.146
  4.165   4.185   4.326   4.399   4.411   4.509   4.531   4.561
  4.614   4.712   4.910   4.916   5.048   5.072   5.163   5.189
  5.426   5.476   5.551   5.640   5.792   5.908   5.983   6.046
  6.409   6.738  24.499  28.218  28.257  28.274  35.818  37.725
 38.362  38.428  40.763  40.845  40.882  40.908  40.991  41.124
 41.233  41.353  41.398  41.442
 
 Beta MOs
 -- Occupied --
-14.055  -9.995  -0.898  -0.673  -0.489  -0.432  -0.396  -0.352
 -0.223
 -- Virtual --
  0.137   0.157   0.159   0.176   0.191   0.224   0.263   0.263
  0.289   0.326   0.346   0.357   0.401   0.405   0.416   0.430
  0.455   0.463   0.523   0.662   0.670   0.728   0.748   0.794
  0.816   0.836   0.848   0.855   0.882   0.909   0.911   0.986
  1.020   1.119   1.130   1.185   1.190   1.284   1.344   1.345
  1.379   1.438   1.454   1.500   1.541   1.552   1.599   1.666
  1.704   1.717   1.749   1.789   1.908   1.917   2.001   2.142
  2.146   2.628   2.661   2.751   2.931   3.014   3.206   3.280
  3.296   3.312   3.387   3.410   3.501   3.529   3.563   3.620
  3.649   3.714   3.736   3.928   3.968   3.977   4.064   4.070
  4.146   4.165   4.185   4.326   4.399   4.411   4.510   4.531
  4.561   4.614   4.713   4.910   4.916   5.048   5.073   5.164
  5.189   5.426   5.477   5.552   5.642   5.792   5.909   5.984
  6.047   6.410   6.739  24.499  28.219  28.257  28.274  35.818
 37.726  38.362  38.428  40.763  40.846  40.882  40.908  40.991
 41.124  41.233  41.353  41.399  41.442
 --------------------------------------------------------------
 
          Ground-State Mulliken Net Atomic Charges

     Atom                 Charge (a.u.)    Spin (a.u.)
  --------------------------------------------------------
      1 C                     3.257126      -3.462554
      2 N                    -0.672227       0.326050
      3 H                    -1.387895       1.466447
      4 H                    -0.388087       0.555577
      5 H                    -0.387930       0.555361
      6 H                    -0.710922       0.780011
      7 H                    -0.710066       0.779107
  --------------------------------------------------------
  Sum of atomic charges =    -1.000000
  Sum of spin   charges =     1.000000

 -----------------------------------------------------------------
                    Cartesian Multipole Moments
 -----------------------------------------------------------------
    Charge (ESU x 10^10)
                -4.8032
    Dipole Moment (Debye)
         X      -3.4697      Y       0.0039      Z      -1.7649
       Tot       3.8928
    Quadrupole Moments (Debye-Ang)
        XX     -41.8550     XY      -0.0008     YY     -36.9932
        XZ       0.1952     YZ      -0.0013     ZZ     -43.7369
    Octapole Moments (Debye-Ang^2)
       XXX     -55.4159    XXY       0.0145    XYY     -14.1213
       YYY       0.0455    XXZ     -16.2634    XYZ       0.0012
       YYZ     -16.5858    XZZ     -19.4772    YZZ       0.0155
       ZZZ     -55.4499
    Hexadecapole Moments (Debye-Ang^3)
      XXXX    -350.1639   XXXY      -0.0066   XXYY    -107.3981
      XYYY      -0.0093   YYYY    -304.3847   XXXZ     -27.2154
      XXYZ      -0.0029   XYYZ     -11.6882   YYYZ      -0.0059
      XXZZ    -151.0988   XYZZ      -0.0014   YYZZ    -138.8740
      XZZZ     -30.3976   YZZZ      -0.0064   ZZZZ    -513.9623
 -----------------------------------------------------------------
 Total job time:  54.24s(wall), 53.79s(cpu) 
 Mon Jul  8 16:57:58 2013

        *************************************************************
        *                                                           *
        *  Thank you very much for using Q-Chem.  Have a nice day.  *
        *                                                           *
        *************************************************************


0 sent ACK to 0 
now end server 0 ... 
 
**********************************************************************
Job 2 of 3 
**********************************************************************
 
Process 0 of 1 is on cl118.stfx.acenet.ca - thread support 1
initial socket setup ...start
initial socket setup ...done 
now start server 0 ... 

cmd = /usr/bin/ssh clhead /usr/local/qchem/bin/get_hostid 1478404358 > /scratch/tmp/6065232.1.short.q/qchem1459/lic.dat
                  Welcome to Q-Chem
     A Quantum Leap Into The Future Of Chemistry

 Y. Shao, L. Fusti-Molnar, Y. Jung, J. Kussmann, C. Ochsenfeld,
 S. T. Brown, A. T. B. Gilbert, L. V. Slipchenko,S. V. Levchenko,
 D. P. O'Neill, R. A. DiStasio Jr., R. C. Lochan, T. Wang,
 G. J. O. Beran, N. A. Besley, J. M. Herbert, C. Y. Lin,
 T. Van Voorhis, S. H. Chien, A. Sodt, R. P. Steele, 
 V. A. Rassolov, P. E. Maslen, P. P. Korambath, R. D. Adamson,
 B. Austin, J. Baker, E. F. C. Byrd, H. Dachsel, R. J. Doerksen,
 A. Dreuw, B. D. Dunietz, A. D. Dutoi, T. R. Furlani,
 S. R. Gwaltney, A. Heyden, S. Hirata, C.-P. Hsu, G. Kedziora,
 R. Z. Khaliullin, P. Klunzinger, A. M. Lee, M. S. Lee, W. Liang,
 I. Lotan, N. Nair, B. Peters, E. I. Proynov, P. A. Pieniazek, 
 Y. M. Rhee, J. Ritchie, E. Rosta, C. D. Sherrill, 
 A. C. Simmonett, J. E. Subotnik, H. L. Woodcock III,
 W. Zhang, A. T. Bell, A. K. Chakraborty, D. M. Chipman,
 F. J. Keil, A. Warshel, W. J. Hehre, H. F. Schaefer III,
 J. Kong, A. I. Krylov, P. M. W. Gill, M. Head-Gordon,
 Q-Chem, Version 3.1, Q-Chem, Inc., Pittsburgh, PA (2007).

 Additional authors for Version 3.1: 
 Z. Gan, Y. Zhao, N. E. Schultz, D. Truhlar, E. Epifanovsky and M. Oana.

 Additional authors for Version 3.2: 
 R. Baer, B. R. Brooks, D. Casanova, J.-D. Chai, C.-L. Cheng, 
 C. Cramer, D. Crittenden, A. Ghysels, G. Hawkins, E. G. Hohenstein, 
 C. Kelley, W. Kurlancheek, D. Liotard, E. Livshits, P. Manohar, 
 A. Marenich, D. Neuhauser, R. Olson, M. A. Rohrdanz, K. S. Thanthiriwatte, 
 A. J. W. Thom, V. Vanovschi, C. F. Williams, Q. Wu and Z.-Q. You. 


 Intel X86 Linux Version

 Q-chem begins on Mon Jul  8 16:58:01 2013  

 Parallel job on  1  processors
Processing $rem in /usr/local/qchem/config/preferences.

theFileMan(): MAXOPENFILES=974 MAX_SUB_FILE_NUM=16
Maximum size of a physical file is 2.0 GB, maximum size of a tmp-file is 32.0 GB


--------------------------------------------------------------
User input:
--------------------------------------------------------------

$molecule
0,1
C          0.00153        0.00000       -0.00170
N          0.02691        0.00000        1.45040
H          0.98841        0.00000       -0.48072
H          0.49984       -0.81525        1.81295
H          0.49984        0.81525        1.81295
H         -0.54295       -0.87642       -0.35515
H         -0.54295        0.87642       -0.35515
$end

$comment
neutral
$end

$xc_functional
C PBE   1.00
X wPBE  1.00
$end


$rem
SYMMETRY_DECOMPOSITION	0
LRC_DFT                 true
exchange 		general
BASIS                   g3large
omega			450
mem_static              760
max_scf_cycles          200
scf_final_print         1
sym_ignore              true
$end

--------------------------------------------------------------
 Writing REM_CC_EA            7
 ----------------------------------------------------
       Standard Nuclear Orientation (Angstroms)
    I     Atom         X            Y            Z
 ----------------------------------------------------
    1      C       0.001530     0.000000    -0.001700
    2      N       0.026910     0.000000     1.450400
    3      H       0.988410     0.000000    -0.480720
    4      H       0.499840    -0.815250     1.812950
    5      H       0.499840     0.815250     1.812950
    6      H      -0.542950    -0.876420    -0.355150
    7      H      -0.542950     0.876420    -0.355150
 ----------------------------------------------------
 Nuclear Repulsion Energy =    42.1716120230 hartrees
 There are        9 alpha and        9 beta electrons
 Requested basis set is G3large
 There are 50 shells and 134 basis functions

Total QAlloc Memory Limit   2000 MB
Mega-Array Size       743 MB
MEM_STATIC part       760 MB

                       Distance Matrix (Angstroms)
             C (  1)   N (  2)   H (  3)   H (  4)   H (  5)   H (  6)
   N (  2)  1.452322
   H (  3)  1.096992  2.157245
   H (  4)  2.050829  1.009821  2.482792
   H (  5)  2.050829  1.009821  2.482792  1.630500
   H (  6)  1.090641  2.086352  1.768882  2.406618  2.941057
   H (  7)  1.090641  2.086352  1.768882  2.941057  2.406618  1.752840

 
 A cutoff of  1.0D-08 yielded   1263 shell pairs
 There are   9135 function pairs ( 10882 Cartesian)
Evaluating contribution to one-electron hamiltonian from nuclear
 Smallest overlap matrix eigenvalue = 4.94E-04
 Multipole matrices computed through 2nd order

  Scale SEOQF with 1.000000e-01/1.000000e-01/1.000000e-01

 Standard Electronic Orientation quadrupole field applied
 Nucleus-field energy     =    -0.0000000021 hartrees
 Guess from superposition of atomic densities
 Warning:  Energy on first SCF cycle will be non-variational
 Long-range K will be added via erf
 Coulomb attenuation parameter = 0.45 bohr**(-1)
 A restricted Kohn-Sham SCF calculation will be
 performed using Pulay DIIS extrapolation
 Exchange:  wPBE + LR-HF      Correlation:  PBE
 Using SG-1 standard quadrature grid
 SCF converges when DIIS error is below 1.0E-05
 Requested basis set is G3large
 There are 50 shells and 134 basis functions
 A cutoff of  1.0D-08 yielded   1263 shell pairs
 There are   9135 function pairs ( 10882 Cartesian)
 ---------------------------------------
  Cycle       Energy         DIIS Error
 ---------------------------------------
    1     -96.1610184170      3.76E-02
    2     -95.8006161459      4.17E-03
    3     -95.8218090634      3.08E-03
    4     -95.8377880829      3.76E-04
    5     -95.8381260665      1.05E-04
    6     -95.8381608099      3.42E-05
    7     -95.8381638177      9.21E-06 Convergence criterion met
 ---------------------------------------
 One-Electron    Energy =  -211.9663184456
 Total Coulomb   Energy =    88.1316152419
 Alpha Exchange  Energy =    -1.9573163031
 Beta  Exchange  Energy =    -1.9573163031
 DFT   Exchange  Energy =    -9.6848000833
 DFT Correlation Energy =    -0.5756399454
 Nuclear Repu.   Energy =    42.1716120209
 Nuclear Attr.   Energy =  -307.3578725828
 Kinetic         Energy =    95.3915541371
 SCF time:  CPU 27.05 s  wall 27.39 s
 Final Alpha MO Eigenvalues
            1           2           3           4           5           6
    1 -14.1994714 -10.1406084  -1.0421752  -0.8186526  -0.6335816  -0.5780680
            7           8           9          10          11          12
    1  -0.5399842  -0.4959290  -0.3657695   0.0381370   0.0598284   0.0646736
           13          14
    1   0.0742293   0.0968458
 Analysis of SCF Wavefunction
 
 --------------------------------------------------------------
                    Orbital Energies (a.u.)
 --------------------------------------------------------------
 
 Alpha MOs
 -- Occupied --
-14.199 -10.141  -1.042  -0.819  -0.634  -0.578  -0.540  -0.496
 -0.366
 -- Virtual --
  0.038   0.060   0.065   0.074   0.097   0.122   0.156   0.156
  0.178   0.207   0.230   0.240   0.271   0.273   0.288   0.298
  0.329   0.339   0.393   0.529   0.536   0.595   0.614   0.657
  0.680   0.697   0.711   0.713   0.746   0.771   0.779   0.848
  0.886   0.976   0.987   1.043   1.050   1.140   1.201   1.203
  1.239   1.294   1.313   1.357   1.399   1.409   1.457   1.526
  1.562   1.576   1.608   1.648   1.766   1.776   1.859   2.001
  2.006   2.486   2.517   2.608   2.786   2.871   3.061   3.136
  3.152   3.169   3.241   3.266   3.358   3.385   3.417   3.476
  3.504   3.570   3.592   3.785   3.823   3.834   3.920   3.926
  4.003   4.022   4.040   4.182   4.256   4.265   4.365   4.387
  4.418   4.469   4.568   4.766   4.772   4.904   4.929   5.020
  5.045   5.283   5.334   5.408   5.498   5.649   5.763   5.841
  5.903   6.266   6.594  24.353  28.073  28.112  28.128  35.674
 37.582  38.218  38.284  40.620  40.701  40.738  40.764  40.847
 40.978  41.088  41.208  41.253  41.297
 --------------------------------------------------------------
 
          Ground-State Mulliken Net Atomic Charges

     Atom                 Charge (a.u.)
  ----------------------------------------
      1 C                    -0.203352
      2 N                    -0.342581
      3 H                     0.060540
      4 H                     0.163902
      5 H                     0.163898
      6 H                     0.078871
      7 H                     0.078721
  ----------------------------------------
  Sum of atomic charges =     0.000000

 -----------------------------------------------------------------
                    Cartesian Multipole Moments
 -----------------------------------------------------------------
    Charge (ESU x 10^10)
                 0.0000
    Dipole Moment (Debye)
         X       1.3044      Y      -0.0002      Z      -0.3910
       Tot       1.3618
    Quadrupole Moments (Debye-Ang)
        XX     -14.8360     XY       0.0003     YY     -12.4643
        XZ       3.0877     YZ       0.0002     ZZ     -14.8072
    Octapole Moments (Debye-Ang^2)
       XXX      -1.1240    XXY      -0.0002    XYY      -0.2120
       YYY      -0.0006    XXZ     -10.7648    XYZ      -0.0004
       YYZ      -6.7562    XZZ       5.4694    YZZ       0.0001
       ZZZ     -28.5029
    Hexadecapole Moments (Debye-Ang^3)
      XXXX     -25.6657   XXXY       0.0007   XXYY      -7.7653
      XYYY       0.0008   YYYY     -23.3599   XXXZ      -2.1869
      XXYZ       0.0002   XYYZ       1.5215   YYYZ       0.0007
      XXZZ     -24.9427   XYZZ      -0.0001   YYZZ     -17.9681
      XZZZ       9.2957   YZZZ       0.0008   ZZZZ    -114.0879
 -----------------------------------------------------------------
 Total job time:  27.53s(wall), 27.18s(cpu) 
 Mon Jul  8 16:58:29 2013

        *************************************************************
        *                                                           *
        *  Thank you very much for using Q-Chem.  Have a nice day.  *
        *                                                           *
        *************************************************************


0 sent ACK to 0 
now end server 0 ... 
 
**********************************************************************
Job 3 of 3 
**********************************************************************
 
Process 0 of 1 is on cl118.stfx.acenet.ca - thread support 1
initial socket setup ...start
initial socket setup ...done 
now start server 0 ... 

cmd = /usr/bin/ssh clhead /usr/local/qchem/bin/get_hostid 934093877 > /scratch/tmp/6065232.1.short.q/qchem1459/lic.dat
                  Welcome to Q-Chem
     A Quantum Leap Into The Future Of Chemistry

 Y. Shao, L. Fusti-Molnar, Y. Jung, J. Kussmann, C. Ochsenfeld,
 S. T. Brown, A. T. B. Gilbert, L. V. Slipchenko,S. V. Levchenko,
 D. P. O'Neill, R. A. DiStasio Jr., R. C. Lochan, T. Wang,
 G. J. O. Beran, N. A. Besley, J. M. Herbert, C. Y. Lin,
 T. Van Voorhis, S. H. Chien, A. Sodt, R. P. Steele, 
 V. A. Rassolov, P. E. Maslen, P. P. Korambath, R. D. Adamson,
 B. Austin, J. Baker, E. F. C. Byrd, H. Dachsel, R. J. Doerksen,
 A. Dreuw, B. D. Dunietz, A. D. Dutoi, T. R. Furlani,
 S. R. Gwaltney, A. Heyden, S. Hirata, C.-P. Hsu, G. Kedziora,
 R. Z. Khaliullin, P. Klunzinger, A. M. Lee, M. S. Lee, W. Liang,
 I. Lotan, N. Nair, B. Peters, E. I. Proynov, P. A. Pieniazek, 
 Y. M. Rhee, J. Ritchie, E. Rosta, C. D. Sherrill, 
 A. C. Simmonett, J. E. Subotnik, H. L. Woodcock III,
 W. Zhang, A. T. Bell, A. K. Chakraborty, D. M. Chipman,
 F. J. Keil, A. Warshel, W. J. Hehre, H. F. Schaefer III,
 J. Kong, A. I. Krylov, P. M. W. Gill, M. Head-Gordon,
 Q-Chem, Version 3.1, Q-Chem, Inc., Pittsburgh, PA (2007).

 Additional authors for Version 3.1: 
 Z. Gan, Y. Zhao, N. E. Schultz, D. Truhlar, E. Epifanovsky and M. Oana.

 Additional authors for Version 3.2: 
 R. Baer, B. R. Brooks, D. Casanova, J.-D. Chai, C.-L. Cheng, 
 C. Cramer, D. Crittenden, A. Ghysels, G. Hawkins, E. G. Hohenstein, 
 C. Kelley, W. Kurlancheek, D. Liotard, E. Livshits, P. Manohar, 
 A. Marenich, D. Neuhauser, R. Olson, M. A. Rohrdanz, K. S. Thanthiriwatte, 
 A. J. W. Thom, V. Vanovschi, C. F. Williams, Q. Wu and Z.-Q. You. 


 Intel X86 Linux Version

 Q-chem begins on Mon Jul  8 16:58:32 2013  

 Parallel job on  1  processors
Processing $rem in /usr/local/qchem/config/preferences.

theFileMan(): MAXOPENFILES=974 MAX_SUB_FILE_NUM=16
Maximum size of a physical file is 2.0 GB, maximum size of a tmp-file is 32.0 GB


--------------------------------------------------------------
User input:
--------------------------------------------------------------

$molecule
1,2
C          0.00153        0.00000       -0.00170
N          0.02691        0.00000        1.45040
H          0.98841        0.00000       -0.48072
H          0.49984       -0.81525        1.81295
H          0.49984        0.81525        1.81295
H         -0.54295       -0.87642       -0.35515
H         -0.54295        0.87642       -0.35515
$end

$comment
positive
$end

$xc_functional
C PBE   1.00
X wPBE  1.00
$end

$rem
SYMMETRY_DECOMPOSITION	0
LRC_DFT                 true
exchange 		general
BASIS                   g3large
omega			450
mem_static              760
max_scf_cycles          200
scf_final_print         1
sym_ignore              true
$end

--------------------------------------------------------------
 Writing REM_CC_EA            7
 ----------------------------------------------------
       Standard Nuclear Orientation (Angstroms)
    I     Atom         X            Y            Z
 ----------------------------------------------------
    1      C       0.001530     0.000000    -0.001700
    2      N       0.026910     0.000000     1.450400
    3      H       0.988410     0.000000    -0.480720
    4      H       0.499840    -0.815250     1.812950
    5      H       0.499840     0.815250     1.812950
    6      H      -0.542950    -0.876420    -0.355150
    7      H      -0.542950     0.876420    -0.355150
 ----------------------------------------------------
 Nuclear Repulsion Energy =    42.1716120230 hartrees
 There are        9 alpha and        8 beta electrons
 Requested basis set is G3large
 There are 50 shells and 134 basis functions

Total QAlloc Memory Limit   2000 MB
Mega-Array Size       743 MB
MEM_STATIC part       760 MB

                       Distance Matrix (Angstroms)
             C (  1)   N (  2)   H (  3)   H (  4)   H (  5)   H (  6)
   N (  2)  1.452322
   H (  3)  1.096992  2.157245
   H (  4)  2.050829  1.009821  2.482792
   H (  5)  2.050829  1.009821  2.482792  1.630500
   H (  6)  1.090641  2.086352  1.768882  2.406618  2.941057
   H (  7)  1.090641  2.086352  1.768882  2.941057  2.406618  1.752840

 
 A cutoff of  1.0D-08 yielded   1263 shell pairs
 There are   9135 function pairs ( 10882 Cartesian)
Evaluating contribution to one-electron hamiltonian from nuclear
 Smallest overlap matrix eigenvalue = 4.94E-04
 Multipole matrices computed through 2nd order

  Scale SEOQF with 1.000000e-01/1.000000e-01/1.000000e-01

 Standard Electronic Orientation quadrupole field applied
 Nucleus-field energy     =    -0.0000000021 hartrees
 Guess from superposition of atomic densities
 Warning:  Energy on first SCF cycle will be non-variational
 Long-range K will be added via erf
 Coulomb attenuation parameter = 0.45 bohr**(-1)
 An unrestricted Kohn-Sham SCF calculation will be
 performed using Pulay DIIS extrapolation
 Exchange:  wPBE + LR-HF      Correlation:  PBE
 Using SG-1 standard quadrature grid
 SCF converges when DIIS error is below 1.0E-05
 Requested basis set is G3large
 There are 50 shells and 134 basis functions
 A cutoff of  1.0D-08 yielded   1263 shell pairs
 There are   9135 function pairs ( 10882 Cartesian)
 Warning!  Inaccurate integrated density:
   Number of electrons =    17
   Numerical integral  =    18.000022500592
   Relative error      =     5.8824852976 %
 ---------------------------------------
  Cycle       Energy         DIIS Error
 ---------------------------------------
    1     -96.1610184170      3.76E-02
    2     -95.4387521890      3.25E-03
    3     -95.4732002900      1.65E-03
    4     -95.4797916203      6.45E-04
    5     -95.4815719795      1.79E-04
    6     -95.4821118507      1.31E-04
    7     -95.4824514307      4.58E-05
    8     -95.4825301770      1.38E-05
    9     -95.4825380820      5.30E-06 Convergence criterion met
 ---------------------------------------
 One-Electron    Energy =  -206.1777742987
 Total Coulomb   Energy =    82.3723592498
 Alpha Exchange  Energy =    -1.9813865609
 Beta  Exchange  Energy =    -1.7494812042
 DFT   Exchange  Energy =    -9.5804575354
 DFT Correlation Energy =    -0.5374097536
 Nuclear Repu.   Energy =    42.1716120209
 Nuclear Attr.   Energy =  -301.2750954375
 Kinetic         Energy =    95.0973211389
 <S^2> = 0.7552
 SCF time:  CPU 43.07 s  wall 43.42 s
 Final Alpha MO Eigenvalues
            1           2           3           4           5           6
    1 -14.6243824 -10.4148244  -1.4117809  -1.1201557  -0.9812227  -0.9140257
            7           8           9          10          11          12
    1  -0.8649132  -0.7720589  -0.7522238  -0.1341428  -0.0907621  -0.0896193
           13          14
    1  -0.0711900  -0.0459410
 Final Beta MO Eigenvalues
            1           2           3           4           5           6
    1 -14.6060898 -10.4147869  -1.3694500  -1.1051899  -0.9667224  -0.8788385
            7           8           9          10          11          12
    1  -0.8027980  -0.7679332  -0.3418922  -0.1311880  -0.0891327  -0.0881316
           13
    1  -0.0696882
 Analysis of SCF Wavefunction
 
 --------------------------------------------------------------
                    Orbital Energies (a.u.)
 --------------------------------------------------------------
 
 Alpha MOs
 -- Occupied --
-14.624 -10.415  -1.412  -1.120  -0.981  -0.914  -0.865  -0.772
 -0.752
 -- Virtual --
 -0.134  -0.091  -0.090  -0.071  -0.046  -0.041  -0.021  -0.014
  0.006   0.019   0.027   0.038   0.056   0.061   0.071   0.088
  0.104   0.129   0.164   0.304   0.308   0.348   0.373   0.413
  0.431   0.447   0.456   0.460   0.480   0.509   0.522   0.591
  0.606   0.718   0.737   0.747   0.771   0.867   0.946   0.947
  0.966   1.050   1.063   1.102   1.127   1.132   1.168   1.248
  1.314   1.326   1.329   1.406   1.439   1.458   1.546   1.681
  1.694   2.209   2.237   2.346   2.477   2.562   2.794   2.835
  2.838   2.875   2.956   3.003   3.070   3.088   3.114   3.164
  3.181   3.248   3.278   3.467   3.490   3.506   3.566   3.597
  3.698   3.729   3.750   3.836   3.959   3.963   4.084   4.106
  4.116   4.188   4.235   4.444   4.445   4.596   4.597   4.664
  4.696   4.872   4.921   5.011   5.106   5.279   5.483   5.561
  5.568   5.901   6.230  24.078  27.797  27.837  27.856  35.252
 37.138  37.803  37.867  40.178  40.288  40.307  40.325  40.431
 40.705  40.810  40.933  40.977  41.023
 
 Beta MOs
 -- Occupied --
-14.606 -10.415  -1.369  -1.105  -0.967  -0.879  -0.803  -0.768
 -- Virtual --
 -0.342  -0.131  -0.089  -0.088  -0.070  -0.045  -0.039  -0.017
 -0.013   0.013   0.025   0.032   0.043   0.058   0.067   0.078
  0.091   0.112   0.135   0.170   0.310   0.314   0.353   0.378
  0.423   0.443   0.454   0.460   0.467   0.504   0.516   0.530
  0.608   0.614   0.720   0.753   0.774   0.786   0.874   0.949
  0.952   0.979   1.053   1.067   1.106   1.132   1.148   1.183
  1.263   1.320   1.328   1.338   1.414   1.468   1.484   1.565
  1.706   1.707   2.213   2.250   2.350   2.487   2.572   2.798
  2.838   2.857   2.882   2.968   3.004   3.073   3.101   3.126
  3.180   3.209   3.257   3.302   3.484   3.509   3.524   3.609
  3.616   3.722   3.735   3.758   3.865   3.972   3.985   4.096
  4.117   4.130   4.197   4.260   4.458   4.465   4.609   4.612
  4.702   4.712   4.937   4.986   5.071   5.160   5.307   5.497
  5.567   5.587   5.923   6.248  24.079  27.797  27.838  27.855
 35.273  37.187  37.816  37.880  40.222  40.297  40.337  40.366
 40.443  40.705  40.810  40.934  40.977  41.023
 --------------------------------------------------------------
 
          Ground-State Mulliken Net Atomic Charges

     Atom                 Charge (a.u.)    Spin (a.u.)
  --------------------------------------------------------
      1 C                    -0.202301      -0.011252
      2 N                     0.214961       0.897393
      3 H                     0.184953       0.100107
      4 H                     0.248479      -0.008151
      5 H                     0.248385      -0.008449
      6 H                     0.152754       0.015064
      7 H                     0.152769       0.015288
  --------------------------------------------------------
  Sum of atomic charges =     1.000000
  Sum of spin   charges =     1.000000

 -----------------------------------------------------------------
                    Cartesian Multipole Moments
 -----------------------------------------------------------------
    Charge (ESU x 10^10)
                 4.8032
    Dipole Moment (Debye)
         X       1.4452      Y       0.0002      Z       4.5476
       Tot       4.7717
    Quadrupole Moments (Debye-Ang)
        XX     -10.3197     XY      -0.0010     YY      -9.1813
        XZ       2.4913     YZ       0.0000     ZZ      -2.0970
    Octapole Moments (Debye-Ang^2)
       XXX      -0.1077    XXY      -0.0003    XYY      -0.1930
       YYY       0.0001    XXZ      -7.0079    XYZ      -0.0012
       YYZ      -3.9076    XZZ       4.7864    YZZ       0.0004
       ZZZ      -5.9057
    Hexadecapole Moments (Debye-Ang^3)
      XXXX     -15.9743   XXXY      -0.0007   XXYY      -4.8109
      XYYY      -0.0008   YYYY     -16.2934   XXXZ      -2.7224
      XXYZ      -0.0006   XYYZ       2.3597   YYYZ      -0.0002
      XXZZ     -14.1738   XYZZ      -0.0025   YYZZ      -9.7232
      XZZZ       6.5427   YZZZ       0.0012   ZZZZ     -57.8904
 -----------------------------------------------------------------
 Total job time:  43.56s(wall), 43.19s(cpu) 
 Mon Jul  8 16:59:15 2013

        *************************************************************
        *                                                           *
        *  Thank you very much for using Q-Chem.  Have a nice day.  *
        *                                                           *
        *************************************************************


0 sent ACK to 0 
now end server 0 ... 
