Process 0 of 1 is on cl257.stfx.acenet.ca - thread support 1
initial socket setup ...start
initial socket setup ...done 
now start server 0 ... 

cmd = /usr/bin/ssh clhead /usr/local/qchem/bin/get_hostid 743233359 > /globalscratch/itamblyn/bnl/g297_b3lyp_neut_g03Large_worked/g2g71020/omega900/qchem4720/lic.dat
                  Welcome to Q-Chem
     A Quantum Leap Into The Future Of Chemistry

 Y. Shao, L. Fusti-Molnar, Y. Jung, J. Kussmann, C. Ochsenfeld,
 S. T. Brown, A. T. B. Gilbert, L. V. Slipchenko,S. V. Levchenko,
 D. P. O'Neill, R. A. DiStasio Jr., R. C. Lochan, T. Wang,
 G. J. O. Beran, N. A. Besley, J. M. Herbert, C. Y. Lin,
 T. Van Voorhis, S. H. Chien, A. Sodt, R. P. Steele, 
 V. A. Rassolov, P. E. Maslen, P. P. Korambath, R. D. Adamson,
 B. Austin, J. Baker, E. F. C. Byrd, H. Dachsel, R. J. Doerksen,
 A. Dreuw, B. D. Dunietz, A. D. Dutoi, T. R. Furlani,
 S. R. Gwaltney, A. Heyden, S. Hirata, C.-P. Hsu, G. Kedziora,
 R. Z. Khaliullin, P. Klunzinger, A. M. Lee, M. S. Lee, W. Liang,
 I. Lotan, N. Nair, B. Peters, E. I. Proynov, P. A. Pieniazek, 
 Y. M. Rhee, J. Ritchie, E. Rosta, C. D. Sherrill, 
 A. C. Simmonett, J. E. Subotnik, H. L. Woodcock III,
 W. Zhang, A. T. Bell, A. K. Chakraborty, D. M. Chipman,
 F. J. Keil, A. Warshel, W. J. Hehre, H. F. Schaefer III,
 J. Kong, A. I. Krylov, P. M. W. Gill, M. Head-Gordon,
 Q-Chem, Version 3.1, Q-Chem, Inc., Pittsburgh, PA (2007).

 Additional authors for Version 3.1: 
 Z. Gan, Y. Zhao, N. E. Schultz, D. Truhlar, E. Epifanovsky and M. Oana.

 Additional authors for Version 3.2: 
 R. Baer, B. R. Brooks, D. Casanova, J.-D. Chai, C.-L. Cheng, 
 C. Cramer, D. Crittenden, A. Ghysels, G. Hawkins, E. G. Hohenstein, 
 C. Kelley, W. Kurlancheek, D. Liotard, E. Livshits, P. Manohar, 
 A. Marenich, D. Neuhauser, R. Olson, M. A. Rohrdanz, K. S. Thanthiriwatte, 
 A. J. W. Thom, V. Vanovschi, C. F. Williams, Q. Wu and Z.-Q. You. 


 Intel X86 Linux Version

 Q-chem begins on Tue Apr 12 20:39:41 2011  

 Parallel job on  1  processors
Processing $rem in /usr/local/qchem/config/preferences.

theFileMan(): MAXOPENFILES=974 MAX_SUB_FILE_NUM=16
Maximum size of a physical file is 2.0 GB, maximum size of a tmp-file is 32.0 GB


--------------------------------------------------------------
User input:
--------------------------------------------------------------

$molecule
-1,2
Cl
H,1,R

 R=1.28991833

$end

$comment
negative
$end

$xc_functional
   X HF 1.0
   X BNL 1.0
   C LYP 1.0
$end

$rem
SYMMETRY_DECOMPOSITION	0
exchange 		general
BASIS                   g3large
omega			900
separate_jk		true
mem_static              760
max_scf_cycles          200
scf_final_print         1
sym_ignore              true
$end

--------------------------------------------------------------
 Writing REM_CC_EA            2
 ----------------------------------------------------
       Standard Nuclear Orientation (Angstroms)
    I     Atom         X            Y            Z
 ----------------------------------------------------
    1      Cl      0.000000     0.000000     0.000000
    2      H       0.000000     0.000000     1.289918
 ----------------------------------------------------
 Nuclear Repulsion Energy =     6.9740946961 hartrees
 There are       10 alpha and        9 beta electrons
 Requested basis set is G3large
 There are 25 shells and 76 basis functions

Total QAlloc Memory Limit   2000 MB
Mega-Array Size       743 MB
MEM_STATIC part       760 MB

                       Distance Matrix (Angstroms)
             Cl(  1)
   H (  2)  1.289918
 
 A cutoff of  1.0D-08 yielded    325 shell pairs
 There are   3056 function pairs (  4227 Cartesian)
Evaluating contribution to one-electron hamiltonian from nuclear
 Smallest overlap matrix eigenvalue = 3.76E-03
 Multipole matrices computed through 2nd order

  Scale SEOQF with 1.000000e-01/1.000000e-01/1.000000e-01

 Standard Electronic Orientation quadrupole field applied
 Nucleus-field energy     =    -0.0000000002 hartrees
 Guess from superposition of atomic densities
 Warning:  Energy on first SCF cycle will be non-variational
 An unrestricted hybrid HF-DFT SCF calculation will be
 performed using Pulay DIIS extrapolation
 Exchange:     1.0000 Hartree-Fock + 1.0000 BNL
 Correlation:  1.0000 LYP
 Using SG-1 standard quadrature grid
 SCF converges when DIIS error is below 1.0E-05
 Warning!  Inaccurate integrated density:
   Number of electrons =    19
   Numerical integral  =    18.000009746852
   Relative error      =    -5.2631065955 %
 ---------------------------------------
  Cycle       Energy         DIIS Error
 ---------------------------------------
    1    -459.1537319410      3.55E-02
    2    -459.1616098315      3.74E-03
    3    -459.1800813218      2.44E-03
    4    -459.1841194563      5.33E-04
    5    -459.1856747963      2.64E-04
    6    -459.1864946361      9.53E-05
    7    -459.1866622157      2.72E-05
    8    -459.1866749063      6.95E-06 Convergence criterion met
 ---------------------------------------
 One-Electron    Energy =  -652.9934520304
 Total Coulomb   Energy =   213.8945116057
 Alpha Exchange  Energy =    -3.6916377014
 Beta  Exchange  Energy =    -3.5856479711
 DFT   Exchange  Energy =   -19.0504415871
 DFT Correlation Energy =    -0.7341019179
 Nuclear Repu.   Energy =     6.9740946959
 Nuclear Attr.   Energy = -1111.3272001887
 Kinetic         Energy =   458.3337481584
 <S^2> = 0.7503
 SCF time:  CPU 11.05 s  wall 13.17 s
 Final Alpha MO Eigenvalues
            1           2           3           4           5           6
    1-100.5875502  -9.4467090  -7.2658725  -7.2570820  -7.2570806  -0.9248927
            7           8           9          10          11          12
    1  -0.4608276  -0.3226381  -0.3226374   0.0298338   0.2280726   0.2480695
           13          14          15
    1   0.2480710   0.3030385   0.3332126
 Final Beta MO Eigenvalues
            1           2           3           4           5           6
    1-100.5868785  -9.4459724  -7.2648048  -7.2564588  -7.2564572  -0.9179130
            7           8           9          10          11          12
    1  -0.4556194  -0.3206702  -0.3206696   0.1720728   0.2334386   0.2451919
           13          14
    1   0.2451926   0.3041343
 Analysis of SCF Wavefunction
 
 --------------------------------------------------------------
                    Orbital Energies (a.u.)
 --------------------------------------------------------------
 
 Alpha MOs
 -- Occupied --
*******  -9.447  -7.266  -7.257  -7.257  -0.925  -0.461  -0.323
 -0.323   0.030
 -- Virtual --
  0.228   0.248   0.248   0.303   0.333   0.537   0.537   0.561
  0.567   0.567   0.722   0.758   0.758   0.885   1.165   1.165
  1.265   1.310   1.438   1.438   1.455   1.455   1.461   1.461
  1.476   1.476   1.724   1.762   1.762   1.942   2.526   2.526
  2.883   3.087   4.116   4.158   4.158   4.774   4.774   4.790
  4.790   4.885   4.885   5.180   5.442   5.445   5.459   5.459
  6.203   9.887  20.963  20.963  21.215  27.551  27.648  27.648
 27.651  27.818  37.314  37.314  37.315  37.316  37.322  37.322
 37.332 216.348
 
 Beta MOs
 -- Occupied --
*******  -9.446  -7.265  -7.256  -7.256  -0.918  -0.456  -0.321
 -0.321
 -- Virtual --
  0.172   0.233   0.245   0.245   0.304   0.347   0.537   0.537
  0.557   0.566   0.566   0.719   0.755   0.755   0.883   1.163
  1.163   1.265   1.309   1.440   1.440   1.455   1.455   1.461
  1.462   1.475   1.475   1.721   1.760   1.760   1.939   2.526
  2.526   2.883   3.086   4.116   4.158   4.158   4.776   4.776
  4.791   4.791   4.887   4.887   5.182   5.443   5.446   5.460
  5.460   6.204   9.888  20.964  20.964  21.216  27.552  27.649
 27.649  27.651  27.819  37.314  37.314  37.316  37.316  37.322
 37.322  37.332 216.349
 --------------------------------------------------------------
 
          Ground-State Mulliken Net Atomic Charges

     Atom                 Charge (a.u.)    Spin (a.u.)
  --------------------------------------------------------
      1 Cl                    0.693466      -0.992563
      2 H                    -1.693466       1.992563
  --------------------------------------------------------
  Sum of atomic charges =    -1.000000
  Sum of spin   charges =     1.000000

 -----------------------------------------------------------------
                    Cartesian Multipole Moments
 -----------------------------------------------------------------
    Charge (ESU x 10^10)
                -4.8032
    Dipole Moment (Debye)
         X      -0.0001      Y       0.0002      Z      -7.5088
       Tot       7.5088
    Quadrupole Moments (Debye-Ang)
        XX     -26.4608     XY       0.0000     YY     -26.4608
        XZ      -0.0001     YZ       0.0002     ZZ     -44.2964
    Octapole Moments (Debye-Ang^2)
       XXX      -0.0005    XXY       0.0006    XYY      -0.0002
       YYY       0.0018    XXZ     -22.8893    XYZ       0.0000
       YYZ     -22.8893    XZZ      -0.0001    YZZ       0.0006
       ZZZ    -103.5517
    Hexadecapole Moments (Debye-Ang^3)
      XXXX    -109.5609   XXXY      -0.0001   XXYY     -36.5203
      XYYY      -0.0001   YYYY    -109.5609   XXXZ      -0.0003
      XXYZ       0.0004   XYYZ      -0.0001   YYYZ       0.0011
      XXZZ     -83.3002   XYZZ       0.0000   YYZZ     -83.3002
      XZZZ      -0.0003   YZZZ       0.0012   ZZZZ    -448.3114
 -----------------------------------------------------------------
 Total job time:  13.82s(wall), 11.15s(cpu) 
 Tue Apr 12 20:39:55 2011

        *************************************************************
        *                                                           *
        *  Thank you very much for using Q-Chem.  Have a nice day.  *
        *                                                           *
        *************************************************************


0 sent ACK to 0 
now end server 0 ... 
 
**********************************************************************
Job 2 of 3 
**********************************************************************
 
Process 0 of 1 is on cl257.stfx.acenet.ca - thread support 1
initial socket setup ...start
initial socket setup ...done 
now start server 0 ... 

cmd = /usr/bin/ssh clhead /usr/local/qchem/bin/get_hostid 160210476 > /globalscratch/itamblyn/bnl/g297_b3lyp_neut_g03Large_worked/g2g71020/omega900/qchem4720/lic.dat
                  Welcome to Q-Chem
     A Quantum Leap Into The Future Of Chemistry

 Y. Shao, L. Fusti-Molnar, Y. Jung, J. Kussmann, C. Ochsenfeld,
 S. T. Brown, A. T. B. Gilbert, L. V. Slipchenko,S. V. Levchenko,
 D. P. O'Neill, R. A. DiStasio Jr., R. C. Lochan, T. Wang,
 G. J. O. Beran, N. A. Besley, J. M. Herbert, C. Y. Lin,
 T. Van Voorhis, S. H. Chien, A. Sodt, R. P. Steele, 
 V. A. Rassolov, P. E. Maslen, P. P. Korambath, R. D. Adamson,
 B. Austin, J. Baker, E. F. C. Byrd, H. Dachsel, R. J. Doerksen,
 A. Dreuw, B. D. Dunietz, A. D. Dutoi, T. R. Furlani,
 S. R. Gwaltney, A. Heyden, S. Hirata, C.-P. Hsu, G. Kedziora,
 R. Z. Khaliullin, P. Klunzinger, A. M. Lee, M. S. Lee, W. Liang,
 I. Lotan, N. Nair, B. Peters, E. I. Proynov, P. A. Pieniazek, 
 Y. M. Rhee, J. Ritchie, E. Rosta, C. D. Sherrill, 
 A. C. Simmonett, J. E. Subotnik, H. L. Woodcock III,
 W. Zhang, A. T. Bell, A. K. Chakraborty, D. M. Chipman,
 F. J. Keil, A. Warshel, W. J. Hehre, H. F. Schaefer III,
 J. Kong, A. I. Krylov, P. M. W. Gill, M. Head-Gordon,
 Q-Chem, Version 3.1, Q-Chem, Inc., Pittsburgh, PA (2007).

 Additional authors for Version 3.1: 
 Z. Gan, Y. Zhao, N. E. Schultz, D. Truhlar, E. Epifanovsky and M. Oana.

 Additional authors for Version 3.2: 
 R. Baer, B. R. Brooks, D. Casanova, J.-D. Chai, C.-L. Cheng, 
 C. Cramer, D. Crittenden, A. Ghysels, G. Hawkins, E. G. Hohenstein, 
 C. Kelley, W. Kurlancheek, D. Liotard, E. Livshits, P. Manohar, 
 A. Marenich, D. Neuhauser, R. Olson, M. A. Rohrdanz, K. S. Thanthiriwatte, 
 A. J. W. Thom, V. Vanovschi, C. F. Williams, Q. Wu and Z.-Q. You. 


 Intel X86 Linux Version

 Q-chem begins on Tue Apr 12 20:39:58 2011  

 Parallel job on  1  processors
Processing $rem in /usr/local/qchem/config/preferences.

theFileMan(): MAXOPENFILES=974 MAX_SUB_FILE_NUM=16
Maximum size of a physical file is 2.0 GB, maximum size of a tmp-file is 32.0 GB


--------------------------------------------------------------
User input:
--------------------------------------------------------------

$molecule
0,1
Cl
H,1,R

 R=1.28991833

$end

$comment
neutral
$end

$xc_functional
   X HF 1.0
   X BNL 1.0
   C LYP 1.0
$end

$rem
SYMMETRY_DECOMPOSITION	0
exchange 		general
BASIS                   g3large
omega			900
separate_jk		true
mem_static              760
max_scf_cycles          200
scf_final_print         1
sym_ignore              true
$end

--------------------------------------------------------------
 Writing REM_CC_EA            2
 ----------------------------------------------------
       Standard Nuclear Orientation (Angstroms)
    I     Atom         X            Y            Z
 ----------------------------------------------------
    1      Cl      0.000000     0.000000     0.000000
    2      H       0.000000     0.000000     1.289918
 ----------------------------------------------------
 Nuclear Repulsion Energy =     6.9740946961 hartrees
 There are        9 alpha and        9 beta electrons
 Requested basis set is G3large
 There are 25 shells and 76 basis functions

Total QAlloc Memory Limit   2000 MB
Mega-Array Size       743 MB
MEM_STATIC part       760 MB

                       Distance Matrix (Angstroms)
             Cl(  1)
   H (  2)  1.289918
 
 A cutoff of  1.0D-08 yielded    325 shell pairs
 There are   3056 function pairs (  4227 Cartesian)
Evaluating contribution to one-electron hamiltonian from nuclear
 Smallest overlap matrix eigenvalue = 3.76E-03
 Multipole matrices computed through 2nd order

  Scale SEOQF with 1.000000e-01/1.000000e-01/1.000000e-01

 Standard Electronic Orientation quadrupole field applied
 Nucleus-field energy     =    -0.0000000002 hartrees
 Guess from superposition of atomic densities
 Warning:  Energy on first SCF cycle will be non-variational
 A restricted hybrid HF-DFT SCF calculation will be
 performed using Pulay DIIS extrapolation
 Exchange:     1.0000 Hartree-Fock + 1.0000 BNL
 Correlation:  1.0000 LYP
 Using SG-1 standard quadrature grid
 SCF converges when DIIS error is below 1.0E-05
 ---------------------------------------
  Cycle       Energy         DIIS Error
 ---------------------------------------
    1    -459.1537319410      3.55E-02
    2    -459.2017619818      4.10E-03
    3    -459.2161727469      2.03E-03
    4    -459.2181756750      3.74E-04
    5    -459.2183501472      1.31E-04
    6    -459.2183853663      3.63E-05
    7    -459.2183882507      9.09E-06 Convergence criterion met
 ---------------------------------------
 One-Electron    Energy =  -649.7535588695
 Total Coulomb   Energy =   210.5155239530
 Alpha Exchange  Energy =    -3.5914935940
 Beta  Exchange  Energy =    -3.5914935940
 DFT   Exchange  Energy =   -19.0439339519
 DFT Correlation Energy =    -0.7275268900
 Nuclear Repu.   Energy =     6.9740946959
 Nuclear Attr.   Energy = -1107.9768327168
 Kinetic         Energy =   458.2232738472
 SCF time:  CPU 9.28 s  wall 11.03 s
 Final Alpha MO Eigenvalues
            1           2           3           4           5           6
    1-100.7724786  -9.6302534  -7.4505109  -7.4402238  -7.4402196  -1.1023266
            7           8           9          10          11          12
    1  -0.6407880  -0.4991240  -0.4991134   0.0305012   0.1097517   0.1187881
           13          14
    1   0.1187904   0.1403600
 Analysis of SCF Wavefunction
 
 --------------------------------------------------------------
                    Orbital Energies (a.u.)
 --------------------------------------------------------------
 
 Alpha MOs
 -- Occupied --
*******  -9.630  -7.451  -7.440  -7.440  -1.102  -0.641  -0.499
 -0.499
 -- Virtual --
  0.031   0.110   0.119   0.119   0.140   0.188   0.362   0.362
  0.388   0.398   0.398   0.562   0.597   0.597   0.704   0.974
  0.974   1.083   1.136   1.261   1.261   1.282   1.282   1.285
  1.285   1.305   1.305   1.539   1.580   1.580   1.757   2.350
  2.350   2.705   2.893   3.921   3.960   3.960   4.595   4.595
  4.613   4.613   4.703   4.703   4.994   5.263   5.265   5.277
  5.277   6.017   9.705  20.781  20.781  21.031  27.368  27.464
 27.464  27.468  27.633  37.131  37.131  37.132  37.132  37.138
 37.138  37.147 216.164
 --------------------------------------------------------------
 
          Ground-State Mulliken Net Atomic Charges

     Atom                 Charge (a.u.)
  ----------------------------------------
      1 Cl                   -0.234874
      2 H                     0.234874
  ----------------------------------------
  Sum of atomic charges =     0.000000

 -----------------------------------------------------------------
                    Cartesian Multipole Moments
 -----------------------------------------------------------------
    Charge (ESU x 10^10)
                 0.0000
    Dipole Moment (Debye)
         X      -0.0001      Y       0.0001      Z       1.2584
       Tot       1.2584
    Quadrupole Moments (Debye-Ang)
        XX     -13.9977     XY      -0.0001     YY     -13.9976
        XZ       0.0000     YZ       0.0000     ZZ     -10.0505
    Octapole Moments (Debye-Ang^2)
       XXX       0.0000    XXY       0.0000    XYY       0.0000
       YYY       0.0001    XXZ      -0.9121    XYZ       0.0000
       YYZ      -0.9121    XZZ      -0.0003    YZZ       0.0007
       ZZZ       0.7195
    Hexadecapole Moments (Debye-Ang^3)
      XXXX     -16.3312   XXXY      -0.0003   XXYY      -5.4438
      XYYY      -0.0003   YYYY     -16.3312   XXXZ       0.0000
      XXYZ       0.0000   XYYZ       0.0000   YYYZ       0.0000
      XXZZ      -5.8711   XYZZ      -0.0001   YYZZ      -5.8711
      XZZZ      -0.0002   YZZZ       0.0003   ZZZZ     -12.8442
 -----------------------------------------------------------------
 Total job time:  11.81s(wall), 9.39s(cpu) 
 Tue Apr 12 20:40:10 2011

        *************************************************************
        *                                                           *
        *  Thank you very much for using Q-Chem.  Have a nice day.  *
        *                                                           *
        *************************************************************


0 sent ACK to 0 
now end server 0 ... 
 
**********************************************************************
Job 3 of 3 
**********************************************************************
 
Process 0 of 1 is on cl257.stfx.acenet.ca - thread support 1
initial socket setup ...start
initial socket setup ...done 
now start server 0 ... 

cmd = /usr/bin/ssh clhead /usr/local/qchem/bin/get_hostid 976436132 > /globalscratch/itamblyn/bnl/g297_b3lyp_neut_g03Large_worked/g2g71020/omega900/qchem4720/lic.dat
                  Welcome to Q-Chem
     A Quantum Leap Into The Future Of Chemistry

 Y. Shao, L. Fusti-Molnar, Y. Jung, J. Kussmann, C. Ochsenfeld,
 S. T. Brown, A. T. B. Gilbert, L. V. Slipchenko,S. V. Levchenko,
 D. P. O'Neill, R. A. DiStasio Jr., R. C. Lochan, T. Wang,
 G. J. O. Beran, N. A. Besley, J. M. Herbert, C. Y. Lin,
 T. Van Voorhis, S. H. Chien, A. Sodt, R. P. Steele, 
 V. A. Rassolov, P. E. Maslen, P. P. Korambath, R. D. Adamson,
 B. Austin, J. Baker, E. F. C. Byrd, H. Dachsel, R. J. Doerksen,
 A. Dreuw, B. D. Dunietz, A. D. Dutoi, T. R. Furlani,
 S. R. Gwaltney, A. Heyden, S. Hirata, C.-P. Hsu, G. Kedziora,
 R. Z. Khaliullin, P. Klunzinger, A. M. Lee, M. S. Lee, W. Liang,
 I. Lotan, N. Nair, B. Peters, E. I. Proynov, P. A. Pieniazek, 
 Y. M. Rhee, J. Ritchie, E. Rosta, C. D. Sherrill, 
 A. C. Simmonett, J. E. Subotnik, H. L. Woodcock III,
 W. Zhang, A. T. Bell, A. K. Chakraborty, D. M. Chipman,
 F. J. Keil, A. Warshel, W. J. Hehre, H. F. Schaefer III,
 J. Kong, A. I. Krylov, P. M. W. Gill, M. Head-Gordon,
 Q-Chem, Version 3.1, Q-Chem, Inc., Pittsburgh, PA (2007).

 Additional authors for Version 3.1: 
 Z. Gan, Y. Zhao, N. E. Schultz, D. Truhlar, E. Epifanovsky and M. Oana.

 Additional authors for Version 3.2: 
 R. Baer, B. R. Brooks, D. Casanova, J.-D. Chai, C.-L. Cheng, 
 C. Cramer, D. Crittenden, A. Ghysels, G. Hawkins, E. G. Hohenstein, 
 C. Kelley, W. Kurlancheek, D. Liotard, E. Livshits, P. Manohar, 
 A. Marenich, D. Neuhauser, R. Olson, M. A. Rohrdanz, K. S. Thanthiriwatte, 
 A. J. W. Thom, V. Vanovschi, C. F. Williams, Q. Wu and Z.-Q. You. 


 Intel X86 Linux Version

 Q-chem begins on Tue Apr 12 20:40:12 2011  

 Parallel job on  1  processors
Processing $rem in /usr/local/qchem/config/preferences.

theFileMan(): MAXOPENFILES=974 MAX_SUB_FILE_NUM=16
Maximum size of a physical file is 2.0 GB, maximum size of a tmp-file is 32.0 GB


--------------------------------------------------------------
User input:
--------------------------------------------------------------

$molecule
1,2
Cl
H,1,R

 R=1.28991833

$end

$comment
positive
$end

$xc_functional
   X HF 1.0
   X BNL 1.0
   C LYP 1.0
$end

$rem
SYMMETRY_DECOMPOSITION	0
exchange 		general
BASIS                   g3large
omega			900
separate_jk		true
mem_static              760
max_scf_cycles          200
scf_final_print         1
sym_ignore              true
$end

--------------------------------------------------------------
 Writing REM_CC_EA            2
 ----------------------------------------------------
       Standard Nuclear Orientation (Angstroms)
    I     Atom         X            Y            Z
 ----------------------------------------------------
    1      Cl      0.000000     0.000000     0.000000
    2      H       0.000000     0.000000     1.289918
 ----------------------------------------------------
 Nuclear Repulsion Energy =     6.9740946961 hartrees
 There are        9 alpha and        8 beta electrons
 Requested basis set is G3large
 There are 25 shells and 76 basis functions

Total QAlloc Memory Limit   2000 MB
Mega-Array Size       743 MB
MEM_STATIC part       760 MB

                       Distance Matrix (Angstroms)
             Cl(  1)
   H (  2)  1.289918
 
 A cutoff of  1.0D-08 yielded    325 shell pairs
 There are   3056 function pairs (  4227 Cartesian)
Evaluating contribution to one-electron hamiltonian from nuclear
 Smallest overlap matrix eigenvalue = 3.76E-03
 Multipole matrices computed through 2nd order

  Scale SEOQF with 1.000000e-01/1.000000e-01/1.000000e-01

 Standard Electronic Orientation quadrupole field applied
 Nucleus-field energy     =    -0.0000000002 hartrees
 Guess from superposition of atomic densities
 Warning:  Energy on first SCF cycle will be non-variational
 An unrestricted hybrid HF-DFT SCF calculation will be
 performed using Pulay DIIS extrapolation
 Exchange:     1.0000 Hartree-Fock + 1.0000 BNL
 Correlation:  1.0000 LYP
 Using SG-1 standard quadrature grid
 SCF converges when DIIS error is below 1.0E-05
 Warning!  Inaccurate integrated density:
   Number of electrons =    17
   Numerical integral  =    18.000009746852
   Relative error      =     5.8824102756 %
 ---------------------------------------
  Cycle       Energy         DIIS Error
 ---------------------------------------
    1    -459.1537319410      3.55E-02
    2    -458.7014468555      6.70E-03
    3    -458.7474017564      2.92E-03
    4    -458.7504614883      4.63E-04
    5    -458.7511286137      1.94E-04
    6    -458.7513950174      1.12E-04
    7    -458.7515446317      6.38E-05
    8    -458.7516109401      2.53E-05
    9    -458.7516205574      4.41E-06 Convergence criterion met
 ---------------------------------------
 One-Electron    Energy =  -642.1653052822
 Total Coulomb   Energy =   203.0686115017
 Alpha Exchange  Energy =    -3.6425979002
 Beta  Exchange  Energy =    -3.3071955095
 DFT   Exchange  Energy =   -18.9890501404
 DFT Correlation Energy =    -0.6901779226
 Nuclear Repu.   Energy =     6.9740946959
 Nuclear Attr.   Energy = -1100.0088226779
 Kinetic         Energy =   457.8435173957
 <S^2> = 0.7562
 SCF time:  CPU 13.00 s  wall 15.54 s
 Final Alpha MO Eigenvalues
            1           2           3           4           5           6
    1-101.2273759 -10.0780122  -7.9062832  -7.8920496  -7.8814888  -1.5305628
            7           8           9          10          11          12
    1  -1.0232371  -0.9562605  -0.8907543  -0.1958373  -0.1148753  -0.0792334
           13          14
    1  -0.0735765  -0.0680139
 Final Beta MO Eigenvalues
            1           2           3           4           5           6
    1-101.2197822 -10.0700579  -7.8878184  -7.8868310  -7.8753272  -1.4452779
            7           8           9          10          11          12
    1  -1.0060572  -0.8716426  -0.4430654  -0.1873759  -0.1120670  -0.0786715
           13
    1  -0.0679092
 Analysis of SCF Wavefunction
 
 --------------------------------------------------------------
                    Orbital Energies (a.u.)
 --------------------------------------------------------------
 
 Alpha MOs
 -- Occupied --
******* -10.078  -7.906  -7.892  -7.881  -1.531  -1.023  -0.956
 -0.891
 -- Virtual --
 -0.196  -0.115  -0.079  -0.074  -0.068  -0.009   0.017   0.043
  0.055   0.056   0.135   0.294   0.298   0.318   0.409   0.659
  0.673   0.741   0.805   0.850   0.875   0.880   0.886   0.933
  0.933   0.947   0.947   1.209   1.238   1.261   1.406   1.933
  1.976   2.335   2.561   3.556   3.611   3.619   4.162   4.162
  4.162   4.162   4.269   4.308   4.592   4.820   4.823   4.835
  4.864   5.604   9.269  20.316  20.343  20.592  26.913  27.009
 27.013  27.027  27.191  36.678  36.680  36.682  36.685  36.685
 36.703  36.710 215.711
 
 Beta MOs
 -- Occupied --
******* -10.070  -7.888  -7.887  -7.875  -1.445  -1.006  -0.872
 -- Virtual --
 -0.443  -0.187  -0.112  -0.079  -0.068  -0.066  -0.008   0.045
  0.058   0.092   0.095   0.140   0.295   0.321   0.325   0.411
  0.663   0.673   0.756   0.813   0.889   0.892   0.913   0.914
  0.942   0.945   0.959   0.961   1.213   1.247   1.263   1.415
  1.975   1.984   2.341   2.558   3.562   3.612   3.617   4.191
  4.192   4.202   4.204   4.301   4.315   4.604   4.839   4.841
  4.854   4.868   5.614   9.283  20.337  20.352  20.598  26.928
 27.023  27.027  27.032  27.199  36.685  36.688  36.688  36.691
 36.691  36.705  36.712 215.719
 --------------------------------------------------------------
 
          Ground-State Mulliken Net Atomic Charges

     Atom                 Charge (a.u.)    Spin (a.u.)
  --------------------------------------------------------
      1 Cl                    0.663854       1.018173
      2 H                     0.336146      -0.018173
  --------------------------------------------------------
  Sum of atomic charges =     1.000000
  Sum of spin   charges =     1.000000

 -----------------------------------------------------------------
                    Cartesian Multipole Moments
 -----------------------------------------------------------------
    Charge (ESU x 10^10)
                 4.8032
    Dipole Moment (Debye)
         X       0.0000      Y       0.0000      Z       1.9209
       Tot       1.9209
    Quadrupole Moments (Debye-Ang)
        XX     -10.4943     XY      -0.9070     YY     -10.4171
        XZ       0.0000     YZ       0.0000     ZZ      -6.8961
    Octapole Moments (Debye-Ang^2)
       XXX       0.0000    XXY       0.0000    XYY       0.0000
       YYY       0.0000    XXZ      -0.6875    XYZ      -0.0444
       YYZ      -0.6837    XZZ       0.0000    YZZ      -0.0001
       ZZZ       2.7086
    Hexadecapole Moments (Debye-Ang^3)
      XXXX      -9.4437   XXXY      -0.7532   XXYY      -3.1245
      XYYY      -0.7534   YYYY      -9.3154   XXXZ       0.0000
      XXYZ       0.0000   XYYZ       0.0000   YYYZ       0.0000
      XXZZ      -3.7993   XYZZ      -0.2712   YYZZ      -3.7762
      XZZZ       0.0000   YZZZ       0.0000   ZZZZ      -5.6847
 -----------------------------------------------------------------
 Total job time:  16.33s(wall), 13.10s(cpu) 
 Tue Apr 12 20:40:29 2011

        *************************************************************
        *                                                           *
        *  Thank you very much for using Q-Chem.  Have a nice day.  *
        *                                                           *
        *************************************************************


0 sent ACK to 0 
now end server 0 ... 
