Process 0 of 1 is on cl230.stfx.acenet.ca - thread support 1
initial socket setup ...start
initial socket setup ...done 
now start server 0 ... 

cmd = /usr/bin/ssh clhead /usr/local/qchem/bin/get_hostid 1698440590 > /scratch/tmp/6062146.1.long.q/qchem6464/lic.dat
                  Welcome to Q-Chem
     A Quantum Leap Into The Future Of Chemistry

 Y. Shao, L. Fusti-Molnar, Y. Jung, J. Kussmann, C. Ochsenfeld,
 S. T. Brown, A. T. B. Gilbert, L. V. Slipchenko,S. V. Levchenko,
 D. P. O'Neill, R. A. DiStasio Jr., R. C. Lochan, T. Wang,
 G. J. O. Beran, N. A. Besley, J. M. Herbert, C. Y. Lin,
 T. Van Voorhis, S. H. Chien, A. Sodt, R. P. Steele, 
 V. A. Rassolov, P. E. Maslen, P. P. Korambath, R. D. Adamson,
 B. Austin, J. Baker, E. F. C. Byrd, H. Dachsel, R. J. Doerksen,
 A. Dreuw, B. D. Dunietz, A. D. Dutoi, T. R. Furlani,
 S. R. Gwaltney, A. Heyden, S. Hirata, C.-P. Hsu, G. Kedziora,
 R. Z. Khaliullin, P. Klunzinger, A. M. Lee, M. S. Lee, W. Liang,
 I. Lotan, N. Nair, B. Peters, E. I. Proynov, P. A. Pieniazek, 
 Y. M. Rhee, J. Ritchie, E. Rosta, C. D. Sherrill, 
 A. C. Simmonett, J. E. Subotnik, H. L. Woodcock III,
 W. Zhang, A. T. Bell, A. K. Chakraborty, D. M. Chipman,
 F. J. Keil, A. Warshel, W. J. Hehre, H. F. Schaefer III,
 J. Kong, A. I. Krylov, P. M. W. Gill, M. Head-Gordon,
 Q-Chem, Version 3.1, Q-Chem, Inc., Pittsburgh, PA (2007).

 Additional authors for Version 3.1: 
 Z. Gan, Y. Zhao, N. E. Schultz, D. Truhlar, E. Epifanovsky and M. Oana.

 Additional authors for Version 3.2: 
 R. Baer, B. R. Brooks, D. Casanova, J.-D. Chai, C.-L. Cheng, 
 C. Cramer, D. Crittenden, A. Ghysels, G. Hawkins, E. G. Hohenstein, 
 C. Kelley, W. Kurlancheek, D. Liotard, E. Livshits, P. Manohar, 
 A. Marenich, D. Neuhauser, R. Olson, M. A. Rohrdanz, K. S. Thanthiriwatte, 
 A. J. W. Thom, V. Vanovschi, C. F. Williams, Q. Wu and Z.-Q. You. 


 Intel X86 Linux Version

 Q-chem begins on Thu Jul  4 23:58:34 2013  

 Parallel job on  1  processors
Processing $rem in /usr/local/qchem/config/preferences.

theFileMan(): MAXOPENFILES=974 MAX_SUB_FILE_NUM=16
Maximum size of a physical file is 2.0 GB, maximum size of a tmp-file is 32.0 GB


--------------------------------------------------------------
User input:
--------------------------------------------------------------

$molecule
0,1
C          0.74122        0.79408        0.00000
S          0.00000       -0.83559        0.00000
C         -0.74122        0.79408        0.00000
H          1.24913        1.08085       -0.91495
H          1.24913        1.08085        0.91495
H         -1.24913        1.08085        0.91495
H         -1.24913        1.08085       -0.91495
$end

$comment
neutral
$end

$xc_functional
C PBE   1.00
X wPBE  1.00
$end


$rem
SYMMETRY_DECOMPOSITION	0
LRC_DFT                 true
exchange 		general
BASIS                   g3large
omega			340 
JOBTYPE                 opt
mem_static              760
max_scf_cycles          200
scf_final_print         1
sym_ignore              true
$end


--------------------------------------------------------------
 Writing REM_CC_EA            7
 ----------------------------------------------------
       Standard Nuclear Orientation (Angstroms)
    I     Atom         X            Y            Z
 ----------------------------------------------------
    1      C       0.741220     0.794080     0.000000
    2      S       0.000000    -0.835590     0.000000
    3      C      -0.741220     0.794080     0.000000
    4      H       1.249130     1.080850    -0.914950
    5      H       1.249130     1.080850     0.914950
    6      H      -1.249130     1.080850     0.914950
    7      H      -1.249130     1.080850    -0.914950
 ----------------------------------------------------
 Nuclear Repulsion Energy =   102.1447906238 hartrees
 There are       16 alpha and       16 beta electrons
 Requested basis set is G3large
 There are 63 shells and 190 basis functions

Total QAlloc Memory Limit   2000 MB
Mega-Array Size       743 MB
MEM_STATIC part       760 MB
 A cutoff of  1.0D-11 yielded   1980 shell pairs
 There are  18073 function pairs ( 23193 Cartesian)
Evaluating contribution to one-electron hamiltonian from nuclear
 Smallest overlap matrix eigenvalue = 7.59E-05
 Multipole matrices computed through 2nd order

  Scale SEOQF with 1.000000e-01/1.000000e-01/1.000000e-01

 Standard Electronic Orientation quadrupole field applied
 Nucleus-field energy     =     0.0000000018 hartrees
 Guess from superposition of atomic densities
 Warning:  Energy on first SCF cycle will be non-variational
 Long-range K will be added via erf
 Coulomb attenuation parameter = 0.34 bohr**(-1)
 A restricted Kohn-Sham SCF calculation will be
 performed using Pulay DIIS extrapolation
 Exchange:  wPBE + LR-HF      Correlation:  PBE
 Using SG-1 standard quadrature grid
 SCF converges when DIIS error is below 1.0E-08
 Requested basis set is G3large
 There are 63 shells and 190 basis functions
 A cutoff of  1.0D-11 yielded   1980 shell pairs
 There are  18073 function pairs ( 23193 Cartesian)
 ---------------------------------------
  Cycle       Energy         DIIS Error
 ---------------------------------------
    1    -477.3986280664      3.21E-02
    2    -476.5889317658      2.26E-03
    3    -476.6155156051      1.19E-03
    4    -476.6209283262      3.80E-04
    5    -476.6217756808      1.19E-04
    6    -476.6218963720      3.42E-05
    7    -476.6219072934      9.66E-06
    8    -476.6219082276      2.68E-06
    9    -476.6219082948      6.55E-07
   10    -476.6219082927      3.24E-07
   11    -476.6219083080      1.26E-07
   12    -476.6219082943      3.87E-08
   13    -476.6219082972      1.32E-08
   14    -476.6219082957      4.00E-09 Convergence criterion met
 ---------------------------------------
 One-Electron    Energy =  -857.6342268270
 Total Coulomb   Energy =   316.7166007423
 Alpha Exchange  Energy =    -2.8131996303
 Beta  Exchange  Energy =    -2.8131996303
 DFT   Exchange  Energy =   -31.0834524188
 DFT Correlation Energy =    -1.1392211571
 Nuclear Repu.   Energy =   102.1447906256
 Nuclear Attr.   Energy = -1333.3338142874
 Kinetic         Energy =   475.6995874604
 SCF time:  CPU 184.07 s  wall 185.09 s
 Final Alpha MO Eigenvalues
            1           2           3           4           5           6
    1 -88.2203988 -10.1121897 -10.1120255  -7.8561561  -5.8741169  -5.8719447
            7           8           9          10          11          12
    1  -5.8630924  -0.9962275  -0.7416033  -0.7375621  -0.6123081  -0.5631569
           13          14          15          16          17          18
    1  -0.4913396  -0.4284833  -0.4261306  -0.3330742   0.0416430   0.0488401
           19          20          21
    1   0.0563767   0.0756447   0.0853483
 Analysis of SCF Wavefunction
 
 --------------------------------------------------------------
                    Orbital Energies (a.u.)
 --------------------------------------------------------------
 
 Alpha MOs
 -- Occupied --
-88.220 -10.112 -10.112  -7.856  -5.874  -5.872  -5.863  -0.996
 -0.742  -0.738  -0.612  -0.563  -0.491  -0.428  -0.426  -0.333
 -- Virtual --
  0.042   0.049   0.056   0.076   0.085   0.090   0.124   0.126
  0.131   0.133   0.166   0.168   0.187   0.189   0.195   0.199
  0.201   0.215   0.240   0.278   0.294   0.321   0.346   0.383
  0.397   0.423   0.424   0.447   0.488   0.493   0.521   0.544
  0.569   0.632   0.638   0.653   0.655   0.673   0.673   0.696
  0.724   0.769   0.827   0.877   0.885   0.951   0.960   0.975
  0.981   1.021   1.071   1.074   1.085   1.104   1.113   1.149
  1.164   1.225   1.264   1.292   1.301   1.338   1.345   1.375
  1.402   1.402   1.441   1.443   1.472   1.509   1.525   1.550
  1.563   1.599   1.604   1.638   1.680   1.706   2.006   2.207
  2.270   2.576   2.582   2.751   2.753   2.862   2.897   2.906
  2.957   2.991   3.054   3.125   3.127   3.174   3.202   3.207
  3.221   3.236   3.347   3.406   3.444   3.460   3.474   3.495
  3.597   3.608   3.632   3.652   3.729   3.742   3.745   3.750
  3.839   3.883   3.913   4.058   4.065   4.080   4.170   4.261
  4.292   4.296   4.313   4.387   4.391   4.505   4.598   4.602
  4.724   4.766   4.881   5.054   5.167   5.204   5.408   5.468
  5.634   5.691   5.731   8.497  17.145  17.349  17.513  23.449
 23.563  23.608  23.642  23.712  24.052  24.234  27.434  27.746
 27.975  28.046  28.104  28.416  30.889  30.889  30.895  30.902
 30.907  30.917  30.940  40.839  40.904  40.925  41.025  41.107
 41.122  41.129  41.132  41.209  41.229 189.044
 --------------------------------------------------------------
 
          Ground-State Mulliken Net Atomic Charges

     Atom                 Charge (a.u.)
  ----------------------------------------
      1 C                    -0.007426
      2 S                    -0.324102
      3 C                    -0.007426
      4 H                     0.084739
      5 H                     0.084739
      6 H                     0.084739
      7 H                     0.084739
  ----------------------------------------
  Sum of atomic charges =     0.000000

 -----------------------------------------------------------------
                    Cartesian Multipole Moments
 -----------------------------------------------------------------
    Charge (ESU x 10^10)
                 0.0000
    Dipole Moment (Debye)
         X       0.0000      Y       1.8757      Z       0.0000
       Tot       1.8757
    Quadrupole Moments (Debye-Ang)
        XX     -24.3642     XY       0.0000     YY     -26.2111
        XZ       0.0000     YZ       0.0000     ZZ     -26.0839
    Octapole Moments (Debye-Ang^2)
       XXX       0.0000    XXY       1.4026    XYY       0.0000
       YYY      -3.0308    XXZ       0.0000    XYZ       0.0000
       YYZ       0.0000    XZZ       0.0000    YZZ       3.6215
       ZZZ       0.0000
    Hexadecapole Moments (Debye-Ang^3)
      XXXX     -90.0506   XXXY       0.0000   XXYY     -36.5413
      XYYY       0.0000   YYYY    -146.0161   XXXZ       0.0000
      XXYZ       0.0000   XYYZ       0.0000   YYYZ       0.0000
      XXZZ     -19.6775   XYZZ       0.0000   YYZZ     -32.4417
      XZZZ       0.0000   YZZZ       0.0000   ZZZZ     -46.7473
 -----------------------------------------------------------------
 Calculating analytic gradient of the SCF energy
 Gradient of AOints
            1           2           3           4           5           6
    1  -6.1694857  -0.0000003   6.1694862  -2.3453036  -2.3453036   2.3453036
    2  -5.7879436  18.1089179  -5.7879439  -1.6332579  -1.6332575  -1.6332577
    3   0.0000017  -0.0000005  -0.0000012   3.3414196  -3.3414196  -3.3414196
            7
    1   2.3453035
    2  -1.6332575
    3   3.3414196
 Gradient of XC Energy
            1           2           3           4           5           6
    1   0.0489395   0.0000000  -0.0489395   0.0913216   0.0913216  -0.0913216
    2   0.0148810  -0.2573534   0.0148810   0.0568979   0.0568978   0.0568979
    3  -0.0000000   0.0000000   0.0000000  -0.1558687   0.1558687   0.1558687
            7
    1  -0.0913216
    2   0.0568978
    3  -0.1558687
 Gradient of SCF Energy
            1           2           3           4           5           6
    1   0.0002881   0.0000000  -0.0002881   0.0001062   0.0001062  -0.0001062
    2   0.0002623  -0.0007843   0.0002623   0.0000649   0.0000649   0.0000649
    3  -0.0000000   0.0000000   0.0000000  -0.0002157   0.0002157   0.0002157
            7
    1  -0.0001062
    2   0.0000649
    3  -0.0002157
 Max gradient component =       7.843E-04
 RMS gradient           =       2.357E-04
 Gradient time:  CPU 73.28 s  wall 73.40 s
 Geometry Optimization Parameters
   NAtoms,    NIC,     NZ,  NCons,   NDum,   NFix, NCnnct, MaxDiis
        7      46       0       0       0       0       0       0


** GEOMETRY OPTIMIZATION IN DELOCALIZED INTERNAL COORDINATES **
   Searching for a Minimum

   Optimization Cycle:   1

                       Coordinates (Angstroms)
     ATOM              X           Y           Z
    1  C           0.741220    0.794080    0.000000
    2  S           0.000000   -0.835590    0.000000
    3  C          -0.741220    0.794080    0.000000
    4  H           1.249130    1.080850   -0.914950
    5  H           1.249130    1.080850    0.914950
    6  H          -1.249130    1.080850    0.914950
    7  H          -1.249130    1.080850   -0.914950
   Point Group: c1    Number of degrees of freedom:  15


   Energy is   -476.621908296


 Attempting to Generate Delocalized Internal Coordinates

  9 Hessian modes will be used to form the next step
  Hessian Eigenvalues:
     0.036316    0.080715    0.115427    0.266509    0.326930    0.353905
     0.353905    0.353905    0.353905

 Minimum Search - Taking Simple RFO Step
 Searching for Lamda that Minimizes Along All modes
 Value Taken    Lamda =  -0.00000238
 Step Taken.  Stepsize is  0.002836

                             Maximum     Tolerance    Cnvgd?
         Gradient           0.000545      0.000300      NO
         Displacement       0.001907      0.001200      NO
         Energy change     *********      0.000001      NO


 New Cartesian Coordinates Obtained by Inverse Iteration

 Displacement from previous Coordinates is:  0.002560
 Writing REM_CC_EA            7
 ----------------------------------------------------
       Standard Nuclear Orientation (Angstroms)
    I     Atom         X            Y            Z
 ----------------------------------------------------
    1      C       0.740961     0.794054     0.000000
    2      S       0.000000    -0.834814     0.000000
    3      C      -0.740961     0.794054     0.000000
    4      H       1.248773     1.080669    -0.914612
    5      H       1.248773     1.080669     0.914612
    6      H      -1.248773     1.080669     0.914612
    7      H      -1.248773     1.080669    -0.914612
 ----------------------------------------------------
 Nuclear Repulsion Energy =   102.1880030631 hartrees
 There are       16 alpha and       16 beta electrons
 Applying Cartesian multipole field
    Component          Value
    ---------          -----
     (2,0,0)        1.00000E-11
     (0,2,0)        2.00000E-11
     (0,0,2)       -3.00000E-11
 Nucleus-field energy     =     0.0000000018 hartrees
 Requested basis set is G3large
 There are 63 shells and 190 basis functions
 A cutoff of  1.0D-11 yielded   1980 shell pairs
 There are  18073 function pairs ( 23193 Cartesian)
Evaluating contribution to one-electron hamiltonian from nuclear
 Smallest overlap matrix eigenvalue = 7.57E-05
 Multipole matrices computed through 2nd order
 Guess MOs from SCF MO coefficient file
Reading MOs from coefficient file
Reading MOs from coefficient file
 Long-range K will be added via erf
 Coulomb attenuation parameter = 0.34 bohr**(-1)
 A restricted Kohn-Sham SCF calculation will be
 performed using Pulay DIIS extrapolation
 Exchange:  wPBE + LR-HF      Correlation:  PBE
 Using SG-1 standard quadrature grid
 SCF converges when DIIS error is below 1.0E-08
 Requested basis set is G3large
 There are 63 shells and 190 basis functions
 A cutoff of  1.0D-11 yielded   1980 shell pairs
 There are  18073 function pairs ( 23193 Cartesian)
 ---------------------------------------
  Cycle       Energy         DIIS Error
 ---------------------------------------
    1    -476.6226682960      2.38E-05
    2    -476.6219095890      5.13E-06
    3    -476.6219096479      4.41E-06
    4    -476.6219097174      4.50E-07
    5    -476.6219097084      2.17E-07
    6    -476.6219097052      3.89E-08
    7    -476.6219097051      1.15E-08
    8    -476.6219097065      3.35E-09 Convergence criterion met
 ---------------------------------------
 One-Electron    Energy =  -857.7193916374
 Total Coulomb   Energy =   316.7598829337
 Alpha Exchange  Energy =    -2.8132709055
 Beta  Exchange  Energy =    -2.8132709055
 DFT   Exchange  Energy =   -31.0845550907
 DFT Correlation Energy =    -1.1393071658
 Nuclear Repu.   Energy =   102.1880030648
 Nuclear Attr.   Energy = -1333.4240467866
 Kinetic         Energy =   475.7046551492
 SCF time:  CPU 103.49 s  wall 104.13 s
 Final Alpha MO Eigenvalues
            1           2           3           4           5           6
    1 -88.2203241 -10.1120170 -10.1118520  -7.8561088  -5.8740644  -5.8718953
            7           8           9          10          11          12
    1  -5.8630442  -0.9965472  -0.7417009  -0.7375715  -0.6124799  -0.5632880
           13          14          15          16          17          18
    1  -0.4913666  -0.4285294  -0.4262323  -0.3330450   0.0416523   0.0488599
           19          20          21
    1   0.0563771   0.0756828   0.0853515
 Analysis of SCF Wavefunction
 
 --------------------------------------------------------------
                    Orbital Energies (a.u.)
 --------------------------------------------------------------
 
 Alpha MOs
 -- Occupied --
-88.220 -10.112 -10.112  -7.856  -5.874  -5.872  -5.863  -0.997
 -0.742  -0.738  -0.612  -0.563  -0.491  -0.429  -0.426  -0.333
 -- Virtual --
  0.042   0.049   0.056   0.076   0.085   0.090   0.124   0.126
  0.131   0.133   0.166   0.169   0.187   0.189   0.195   0.199
  0.201   0.215   0.240   0.278   0.294   0.321   0.346   0.383
  0.397   0.423   0.424   0.447   0.488   0.493   0.521   0.544
  0.569   0.632   0.638   0.653   0.656   0.673   0.673   0.696
  0.724   0.769   0.827   0.877   0.885   0.951   0.960   0.975
  0.981   1.022   1.071   1.075   1.085   1.104   1.113   1.149
  1.164   1.225   1.264   1.292   1.301   1.338   1.345   1.375
  1.402   1.402   1.441   1.443   1.472   1.509   1.525   1.550
  1.563   1.599   1.605   1.638   1.680   1.706   2.006   2.207
  2.271   2.576   2.582   2.751   2.752   2.862   2.897   2.906
  2.957   2.991   3.055   3.125   3.127   3.174   3.202   3.207
  3.221   3.236   3.347   3.406   3.445   3.460   3.474   3.495
  3.597   3.609   3.632   3.651   3.730   3.742   3.746   3.751
  3.840   3.884   3.914   4.058   4.066   4.081   4.170   4.261
  4.293   4.297   4.313   4.388   4.391   4.506   4.600   4.603
  4.724   4.767   4.882   5.055   5.169   5.204   5.410   5.470
  5.635   5.692   5.733   8.498  17.145  17.349  17.513  23.449
 23.563  23.608  23.642  23.712  24.054  24.236  27.435  27.747
 27.977  28.046  28.105  28.416  30.889  30.889  30.895  30.902
 30.907  30.917  30.940  40.839  40.905  40.925  41.025  41.108
 41.123  41.130  41.132  41.209  41.229 189.045
 --------------------------------------------------------------
 
          Ground-State Mulliken Net Atomic Charges

     Atom                 Charge (a.u.)
  ----------------------------------------
      1 C                    -0.007699
      2 S                    -0.323785
      3 C                    -0.007699
      4 H                     0.084796
      5 H                     0.084796
      6 H                     0.084796
      7 H                     0.084796
  ----------------------------------------
  Sum of atomic charges =     0.000000

 -----------------------------------------------------------------
                    Cartesian Multipole Moments
 -----------------------------------------------------------------
    Charge (ESU x 10^10)
                 0.0000
    Dipole Moment (Debye)
         X       0.0000      Y       1.8745      Z       0.0000
       Tot       1.8745
    Quadrupole Moments (Debye-Ang)
        XX     -24.3617     XY       0.0000     YY     -26.2106
        XZ       0.0000     YZ       0.0000     ZZ     -26.0822
    Octapole Moments (Debye-Ang^2)
       XXX       0.0000    XXY       1.3900    XYY       0.0000
       YYY      -3.0523    XXZ       0.0000    XYZ       0.0000
       YYZ       0.0000    XZZ       0.0000    YZZ       3.6095
       ZZZ       0.0000
    Hexadecapole Moments (Debye-Ang^3)
      XXXX     -89.9907   XXXY       0.0000   XXYY     -36.5162
      XYYY       0.0000   YYYY    -145.9023   XXXZ       0.0000
      XXYZ       0.0000   XYYZ       0.0000   YYYZ       0.0000
      XXZZ     -19.6706   XYZZ       0.0000   YYZZ     -32.4206
      XZZZ       0.0000   YZZZ       0.0000   ZZZZ     -46.7302
 -----------------------------------------------------------------
 Calculating analytic gradient of the SCF energy
 Gradient of AOints
            1           2           3           4           5           6
    1  -6.1701555  -0.0000000   6.1701556  -2.3462796  -2.3462799   2.3462795
    2  -5.7915656  18.1171286  -5.7915656  -1.6334994  -1.6334993  -1.6334994
    3  -0.0000007   0.0000000   0.0000007   3.3419366  -3.3419366  -3.3419366
            7
    1   2.3462799
    2  -1.6334993
    3   3.3419365
 Gradient of XC Energy
            1           2           3           4           5           6
    1   0.0488724   0.0000000  -0.0488724   0.0913583   0.0913583  -0.0913583
    2   0.0149340  -0.2574752   0.0149340   0.0569018   0.0569018   0.0569018
    3   0.0000000  -0.0000000  -0.0000000  -0.1558895   0.1558895   0.1558895
            7
    1  -0.0913583
    2   0.0569018
    3  -0.1558895
 Gradient of SCF Energy
            1           2           3           4           5           6
    1   0.0000550  -0.0000000  -0.0000550  -0.0000138  -0.0000138   0.0000138
    2   0.0001489  -0.0002039   0.0001489  -0.0000235  -0.0000235  -0.0000235
    3   0.0000000   0.0000000  -0.0000000  -0.0000006   0.0000006   0.0000006
            7
    1   0.0000138
    2  -0.0000235
    3  -0.0000006
 Max gradient component =       2.039E-04
 RMS gradient           =       6.724E-05
 Gradient time:  CPU 72.14 s  wall 72.27 s
 Geometry Optimization Parameters
   NAtoms,    NIC,     NZ,  NCons,   NDum,   NFix, NCnnct, MaxDiis
        7      46       0       0       0       0       0       0

 Cartesian Hessian Update
 Hessian Updated using BFGS Update


** GEOMETRY OPTIMIZATION IN DELOCALIZED INTERNAL COORDINATES **
   Searching for a Minimum

   Optimization Cycle:   2

                       Coordinates (Angstroms)
     ATOM              X           Y           Z
    1  C           0.740961    0.794054    0.000000
    2  S           0.000000   -0.834814    0.000000
    3  C          -0.740961    0.794054    0.000000
    4  H           1.248773    1.080669   -0.914612
    5  H           1.248773    1.080669    0.914612
    6  H          -1.248773    1.080669    0.914612
    7  H          -1.248773    1.080669   -0.914612
   Point Group: c1    Number of degrees of freedom:  15


   Energy is   -476.621909707

 Hessian Updated using BFGS Update

  6 Hessian modes will be used to form the next step
  Hessian Eigenvalues:
     0.036493    0.080715    0.114805    0.210705    0.330677    0.387156

 Minimum Search - Taking Simple RFO Step
 Searching for Lamda that Minimizes Along All modes
 Value Taken    Lamda =   0.00000000
 Step Taken.  Stepsize is  0.001187

                             Maximum     Tolerance    Cnvgd?
         Gradient           0.000108      0.000300     YES
         Displacement       0.000864      0.001200     YES
         Energy change     -0.000001      0.000001      NO


                       Distance Matrix (Angstroms)
             C (  1)   S (  2)   C (  3)   H (  4)   H (  5)   H (  6)
   S (  2)  1.789479
   C (  3)  1.481923  1.789479
   H (  4)  1.084682  2.462727  2.208553
   H (  5)  1.084682  2.462727  2.208553  1.829224
   H (  6)  2.208553  2.462727  1.084682  3.095771  2.497546
   H (  7)  2.208553  2.462727  1.084682  2.497546  3.095771  1.829224

 


 ******************************
 **  OPTIMIZATION CONVERGED  **
 ******************************
 Analysis of SCF Wavefunction
 
 --------------------------------------------------------------
                    Orbital Energies (a.u.)
 --------------------------------------------------------------
 
 Alpha MOs
 -- Occupied --
-88.220 -10.112 -10.112  -7.856  -5.874  -5.872  -5.863  -0.997
 -0.742  -0.738  -0.612  -0.563  -0.491  -0.429  -0.426  -0.333
 -- Virtual --
  0.042   0.049   0.056   0.076   0.085   0.090   0.124   0.126
  0.131   0.133   0.166   0.169   0.187   0.189   0.195   0.199
  0.201   0.215   0.240   0.278   0.294   0.321   0.346   0.383
  0.397   0.423   0.424   0.447   0.488   0.493   0.521   0.544
  0.569   0.632   0.638   0.653   0.656   0.673   0.673   0.696
  0.724   0.769   0.827   0.877   0.885   0.951   0.960   0.975
  0.981   1.022   1.071   1.075   1.085   1.104   1.113   1.149
  1.164   1.225   1.264   1.292   1.301   1.338   1.345   1.375
  1.402   1.402   1.441   1.443   1.472   1.509   1.525   1.550
  1.563   1.599   1.605   1.638   1.680   1.706   2.006   2.207
  2.271   2.576   2.582   2.751   2.752   2.862   2.897   2.906
  2.957   2.991   3.055   3.125   3.127   3.174   3.202   3.207
  3.221   3.236   3.347   3.406   3.445   3.460   3.474   3.495
  3.597   3.609   3.632   3.651   3.730   3.742   3.746   3.751
  3.840   3.884   3.914   4.058   4.066   4.081   4.170   4.261
  4.293   4.297   4.313   4.388   4.391   4.506   4.600   4.603
  4.724   4.767   4.882   5.055   5.169   5.204   5.410   5.470
  5.635   5.692   5.733   8.498  17.145  17.349  17.513  23.449
 23.563  23.608  23.642  23.712  24.054  24.236  27.435  27.747
 27.977  28.046  28.105  28.416  30.889  30.889  30.895  30.902
 30.907  30.917  30.940  40.839  40.905  40.925  41.025  41.108
 41.123  41.130  41.132  41.209  41.229 189.045
 --------------------------------------------------------------
 
          Ground-State Mulliken Net Atomic Charges

     Atom                 Charge (a.u.)
  ----------------------------------------
      1 C                    -0.007699
      2 S                    -0.323785
      3 C                    -0.007699
      4 H                     0.084796
      5 H                     0.084796
      6 H                     0.084796
      7 H                     0.084796
  ----------------------------------------
  Sum of atomic charges =     0.000000

 -----------------------------------------------------------------
                    Cartesian Multipole Moments
 -----------------------------------------------------------------
    Charge (ESU x 10^10)
                 0.0000
    Dipole Moment (Debye)
         X       0.0000      Y       1.8745      Z       0.0000
       Tot       1.8745
    Quadrupole Moments (Debye-Ang)
        XX     -24.3617     XY       0.0000     YY     -26.2106
        XZ       0.0000     YZ       0.0000     ZZ     -26.0822
    Octapole Moments (Debye-Ang^2)
       XXX       0.0000    XXY       1.3900    XYY       0.0000
       YYY      -3.0523    XXZ       0.0000    XYZ       0.0000
       YYZ       0.0000    XZZ       0.0000    YZZ       3.6095
       ZZZ       0.0000
    Hexadecapole Moments (Debye-Ang^3)
      XXXX     -89.9907   XXXY       0.0000   XXYY     -36.5162
      XYYY       0.0000   YYYY    -145.9023   XXXZ       0.0000
      XXYZ       0.0000   XYYZ       0.0000   YYYZ       0.0000
      XXZZ     -19.6706   XYZZ       0.0000   YYZZ     -32.4206
      XZZZ       0.0000   YZZZ       0.0000   ZZZZ     -46.7302
 -----------------------------------------------------------------
 Total job time:  435.38s(wall), 433.44s(cpu) 
 Fri Jul  5 00:05:49 2013

        *************************************************************
        *                                                           *
        *  Thank you very much for using Q-Chem.  Have a nice day.  *
        *                                                           *
        *************************************************************


0 sent ACK to 0 
now end server 0 ... 
 
**********************************************************************
Job 2 of 2 
**********************************************************************
 
Process 0 of 1 is on cl230.stfx.acenet.ca - thread support 1
initial socket setup ...start
initial socket setup ...done 
now start server 0 ... 

cmd = /usr/bin/ssh clhead /usr/local/qchem/bin/get_hostid 571960193 > /scratch/tmp/6062146.1.long.q/qchem6464/lic.dat
                  Welcome to Q-Chem
     A Quantum Leap Into The Future Of Chemistry

 Y. Shao, L. Fusti-Molnar, Y. Jung, J. Kussmann, C. Ochsenfeld,
 S. T. Brown, A. T. B. Gilbert, L. V. Slipchenko,S. V. Levchenko,
 D. P. O'Neill, R. A. DiStasio Jr., R. C. Lochan, T. Wang,
 G. J. O. Beran, N. A. Besley, J. M. Herbert, C. Y. Lin,
 T. Van Voorhis, S. H. Chien, A. Sodt, R. P. Steele, 
 V. A. Rassolov, P. E. Maslen, P. P. Korambath, R. D. Adamson,
 B. Austin, J. Baker, E. F. C. Byrd, H. Dachsel, R. J. Doerksen,
 A. Dreuw, B. D. Dunietz, A. D. Dutoi, T. R. Furlani,
 S. R. Gwaltney, A. Heyden, S. Hirata, C.-P. Hsu, G. Kedziora,
 R. Z. Khaliullin, P. Klunzinger, A. M. Lee, M. S. Lee, W. Liang,
 I. Lotan, N. Nair, B. Peters, E. I. Proynov, P. A. Pieniazek, 
 Y. M. Rhee, J. Ritchie, E. Rosta, C. D. Sherrill, 
 A. C. Simmonett, J. E. Subotnik, H. L. Woodcock III,
 W. Zhang, A. T. Bell, A. K. Chakraborty, D. M. Chipman,
 F. J. Keil, A. Warshel, W. J. Hehre, H. F. Schaefer III,
 J. Kong, A. I. Krylov, P. M. W. Gill, M. Head-Gordon,
 Q-Chem, Version 3.1, Q-Chem, Inc., Pittsburgh, PA (2007).

 Additional authors for Version 3.1: 
 Z. Gan, Y. Zhao, N. E. Schultz, D. Truhlar, E. Epifanovsky and M. Oana.

 Additional authors for Version 3.2: 
 R. Baer, B. R. Brooks, D. Casanova, J.-D. Chai, C.-L. Cheng, 
 C. Cramer, D. Crittenden, A. Ghysels, G. Hawkins, E. G. Hohenstein, 
 C. Kelley, W. Kurlancheek, D. Liotard, E. Livshits, P. Manohar, 
 A. Marenich, D. Neuhauser, R. Olson, M. A. Rohrdanz, K. S. Thanthiriwatte, 
 A. J. W. Thom, V. Vanovschi, C. F. Williams, Q. Wu and Z.-Q. You. 


 Intel X86 Linux Version

 Q-chem begins on Fri Jul  5 00:05:52 2013  

 Parallel job on  1  processors
Processing $rem in /usr/local/qchem/config/preferences.

theFileMan(): MAXOPENFILES=974 MAX_SUB_FILE_NUM=16
Maximum size of a physical file is 2.0 GB, maximum size of a tmp-file is 32.0 GB


--------------------------------------------------------------
User input:
--------------------------------------------------------------

$molecule 
READ 
$end 

$xc_functional
C PBE   1.00
X wPBE  1.00
$end


$rem
SYMMETRY_DECOMPOSITION	0
LRC_DFT                 true
exchange 		general
BASIS                   g3large
omega			340 
JOBTYPE                 freq
IDERIV 1
SCF_GUESS READ
mem_static              760
max_scf_cycles          200
scf_final_print         1
sym_ignore              true
$end

--------------------------------------------------------------
 Writing REM_CC_EA            7
 ----------------------------------------------------
       Standard Nuclear Orientation (Angstroms)
    I     Atom         X            Y            Z
 ----------------------------------------------------
    1      C       0.740961     0.794054     0.000000
    2      S       0.000000    -0.834814     0.000000
    3      C      -0.740961     0.794054     0.000000
    4      H       1.248773     1.080669    -0.914612
    5      H       1.248773     1.080669     0.914612
    6      H      -1.248773     1.080669     0.914612
    7      H      -1.248773     1.080669    -0.914612
 ----------------------------------------------------
 Nuclear Repulsion Energy =   102.1880030631 hartrees
 There are       16 alpha and       16 beta electrons
 Requested basis set is G3large
 There are 63 shells and 190 basis functions

Total QAlloc Memory Limit   2000 MB
Mega-Array Size       759 MB
MEM_STATIC part       760 MB

                       Distance Matrix (Angstroms)
             C (  1)   S (  2)   C (  3)   H (  4)   H (  5)   H (  6)
   S (  2)  1.789479
   C (  3)  1.481923  1.789479
   H (  4)  1.084682  2.462727  2.208553
   H (  5)  1.084682  2.462727  2.208553  1.829224
   H (  6)  2.208553  2.462727  1.084682  3.095771  2.497546
   H (  7)  2.208553  2.462727  1.084682  2.497546  3.095771  1.829224

 
 A cutoff of  1.0D-11 yielded   1980 shell pairs
 There are  18073 function pairs ( 23193 Cartesian)
Evaluating contribution to one-electron hamiltonian from nuclear
 Smallest overlap matrix eigenvalue = 7.57E-05
 Multipole matrices computed through 2nd order
 Guess MOs from SCF MO coefficient file
Reading MOs from coefficient file
Reading MOs from coefficient file
 Long-range K will be added via erf
 Coulomb attenuation parameter = 0.34 bohr**(-1)
 A restricted Kohn-Sham SCF calculation will be
 performed using Pulay DIIS extrapolation
 Exchange:  wPBE + LR-HF      Correlation:  PBE
 Using SG-1 standard quadrature grid
 SCF converges when DIIS error is below 1.0E-08
 ---------------------------------------
  Cycle       Energy         DIIS Error
 ---------------------------------------
    1    -476.6219097094      6.35E-10
    2    -476.6219097084      2.46E-10 Convergence criterion met
 ---------------------------------------
 One-Electron    Energy =  -857.7193906223
 Total Coulomb   Energy =   316.7598818431
 Alpha Exchange  Energy =    -2.8132709054
 Beta  Exchange  Energy =    -2.8132709054
 DFT   Exchange  Energy =   -31.0845550194
 DFT Correlation Energy =    -1.1393071622
 Nuclear Repu.   Energy =   102.1880030631
 Nuclear Attr.   Energy = -1333.4240450753
 Kinetic         Energy =   475.7046544530
 SCF time:  CPU 29.02 s  wall 29.22 s
 Final Alpha MO Eigenvalues
            1           2           3           4           5           6
    1 -88.2203241 -10.1120170 -10.1118520  -7.8561088  -5.8740644  -5.8718953
            7           8           9          10          11          12
    1  -5.8630442  -0.9965472  -0.7417009  -0.7375715  -0.6124799  -0.5632880
           13          14          15          16          17          18
    1  -0.4913666  -0.4285294  -0.4262323  -0.3330450   0.0416523   0.0488599
           19          20          21
    1   0.0563771   0.0756828   0.0853515
 Analysis of SCF Wavefunction
 
 --------------------------------------------------------------
                    Orbital Energies (a.u.)
 --------------------------------------------------------------
 
 Alpha MOs
 -- Occupied --
-88.220 -10.112 -10.112  -7.856  -5.874  -5.872  -5.863  -0.997
 -0.742  -0.738  -0.612  -0.563  -0.491  -0.429  -0.426  -0.333
 -- Virtual --
  0.042   0.049   0.056   0.076   0.085   0.090   0.124   0.126
  0.131   0.133   0.166   0.169   0.187   0.189   0.195   0.199
  0.201   0.215   0.240   0.278   0.294   0.321   0.346   0.383
  0.397   0.423   0.424   0.447   0.488   0.493   0.521   0.544
  0.569   0.632   0.638   0.653   0.656   0.673   0.673   0.696
  0.724   0.769   0.827   0.877   0.885   0.951   0.960   0.975
  0.981   1.022   1.071   1.075   1.085   1.104   1.113   1.149
  1.164   1.225   1.264   1.292   1.301   1.338   1.345   1.375
  1.402   1.402   1.441   1.443   1.472   1.509   1.525   1.550
  1.563   1.599   1.605   1.638   1.680   1.706   2.006   2.207
  2.271   2.576   2.582   2.751   2.752   2.862   2.897   2.906
  2.957   2.991   3.055   3.125   3.127   3.174   3.202   3.207
  3.221   3.236   3.347   3.406   3.445   3.460   3.474   3.495
  3.597   3.609   3.632   3.651   3.730   3.742   3.746   3.751
  3.840   3.884   3.914   4.058   4.066   4.081   4.170   4.261
  4.293   4.297   4.313   4.388   4.391   4.506   4.600   4.603
  4.724   4.767   4.882   5.055   5.169   5.204   5.410   5.470
  5.635   5.692   5.733   8.498  17.145  17.349  17.513  23.449
 23.563  23.608  23.642  23.712  24.054  24.236  27.435  27.747
 27.977  28.046  28.105  28.416  30.889  30.889  30.895  30.902
 30.907  30.917  30.940  40.839  40.905  40.925  41.025  41.108
 41.123  41.130  41.132  41.209  41.229 189.045
 --------------------------------------------------------------
 
          Ground-State Mulliken Net Atomic Charges

     Atom                 Charge (a.u.)
  ----------------------------------------
      1 C                    -0.007699
      2 S                    -0.323785
      3 C                    -0.007699
      4 H                     0.084796
      5 H                     0.084796
      6 H                     0.084796
      7 H                     0.084796
  ----------------------------------------
  Sum of atomic charges =     0.000000

 -----------------------------------------------------------------
                    Cartesian Multipole Moments
 -----------------------------------------------------------------
    Charge (ESU x 10^10)
                 0.0000
    Dipole Moment (Debye)
         X       0.0000      Y       1.8745      Z       0.0000
       Tot       1.8745
    Quadrupole Moments (Debye-Ang)
        XX     -24.3617     XY       0.0000     YY     -26.2106
        XZ       0.0000     YZ       0.0000     ZZ     -26.0822
    Octapole Moments (Debye-Ang^2)
       XXX       0.0000    XXY       1.3900    XYY       0.0000
       YYY      -3.0523    XXZ       0.0000    XYZ       0.0000
       YYZ       0.0000    XZZ       0.0000    YZZ       3.6095
       ZZZ       0.0000
    Hexadecapole Moments (Debye-Ang^3)
      XXXX     -89.9907   XXXY       0.0000   XXYY     -36.5162
      XYYY       0.0000   YYYY    -145.9023   XXXZ       0.0000
      XXYZ       0.0000   XYYZ       0.0000   YYYZ       0.0000
      XXZZ     -19.6706   XYZZ       0.0000   YYZZ     -32.4206
      XZZZ       0.0000   YZZZ       0.0000   ZZZZ     -46.7302
 -----------------------------------------------------------------
 Calculating analytic gradient of the SCF energy
 Gradient of AOints
            1           2           3           4           5           6
    1  -6.1701558  -0.0000000   6.1701558  -2.3462797  -2.3462800   2.3462797
    2  -5.7915655  18.1171285  -5.7915655  -1.6334994  -1.6334994  -1.6334994
    3  -0.0000007   0.0000000   0.0000007   3.3419368  -3.3419367  -3.3419368
            7
    1   2.3462800
    2  -1.6334993
    3   3.3419367
 Gradient of XC Energy
            1           2           3           4           5           6
    1   0.0488724   0.0000000  -0.0488724   0.0913583   0.0913583  -0.0913583
    2   0.0149340  -0.2574752   0.0149340   0.0569018   0.0569018   0.0569018
    3   0.0000000  -0.0000000  -0.0000000  -0.1558895   0.1558895   0.1558895
            7
    1  -0.0913583
    2   0.0569018
    3  -0.1558895
 Gradient of SCF Energy
            1           2           3           4           5           6
    1   0.0000550  -0.0000000  -0.0000550  -0.0000138  -0.0000138   0.0000138
    2   0.0001489  -0.0002039   0.0001489  -0.0000235  -0.0000235  -0.0000235
    3   0.0000000   0.0000000  -0.0000000  -0.0000006   0.0000006   0.0000006
            7
    1   0.0000138
    2  -0.0000235
    3  -0.0000006
 Max gradient component =       2.039E-04
 RMS gradient           =       6.724E-05
 Gradient time:  CPU 67.56 s  wall 67.78 s
 ######################################################
 ######################################################
 # Starting finite difference calculation for IDERIV  #
 Finite diff step size: 1.89e-03 a.u.
 Writing REM_CC_EA            7
 ----------------------------------------------------
       Standard Nuclear Orientation (Angstroms)
    I     Atom         X            Y            Z
 ----------------------------------------------------
    1      C       0.741961     0.794054     0.000000
    2      S       0.000000    -0.834814     0.000000
    3      C      -0.740961     0.794054     0.000000
    4      H       1.248773     1.080669    -0.914612
    5      H       1.248773     1.080669     0.914612
    6      H      -1.248773     1.080669     0.914612
    7      H      -1.248773     1.080669    -0.914612
 ----------------------------------------------------
 Nuclear Repulsion Energy =   102.1741167933 hartrees
 There are       16 alpha and       16 beta electrons

                       Distance Matrix (Angstroms)
             C (  1)   S (  2)   C (  3)   H (  4)   H (  5)   H (  6)
   S (  2)  1.789893
   C (  3)  1.482923  1.789479
   H (  4)  1.084215  2.462727  2.208553
   H (  5)  1.084215  2.462727  2.208553  1.829224
   H (  6)  2.209454  2.462727  1.084682  3.095771  2.497546
   H (  7)  2.209454  2.462727  1.084682  2.497546  3.095771  1.829224

 
 Requested basis set is G3large
 There are 63 shells and 190 basis functions
 A cutoff of  1.0D-11 yielded   1980 shell pairs
 There are  18073 function pairs ( 23193 Cartesian)
Evaluating contribution to one-electron hamiltonian from nuclear
 Smallest overlap matrix eigenvalue = 7.59E-05
 Multipole matrices computed through 2nd order
 Guess MOs from SCF MO coefficient file
Reading MOs from coefficient file
Reading MOs from coefficient file
 Long-range K will be added via erf
 Coulomb attenuation parameter = 0.34 bohr**(-1)
 A restricted Kohn-Sham SCF calculation will be
 performed using Pulay DIIS extrapolation
 Exchange:  wPBE + LR-HF      Correlation:  PBE
 Using SG-1 standard quadrature grid
 SCF converges when DIIS error is below 1.0E-08
 ---------------------------------------
  Cycle       Energy         DIIS Error
 ---------------------------------------
    1    -476.6220483307      2.85E-05
    2    -476.6219085528      3.52E-06
    3    -476.6219086154      2.08E-06
    4    -476.6219086026      5.17E-07
    5    -476.6219086310      1.46E-07
    6    -476.6219086363      6.23E-08
    7    -476.6219086359      1.34E-08
    8    -476.6219086358      6.86E-09 Convergence criterion met
 ---------------------------------------
 One-Electron    Energy =  -857.6917635031
 Total Coulomb   Energy =   316.7459389947
 Alpha Exchange  Energy =    -2.8132635700
 Beta  Exchange  Energy =    -2.8132635700
 DFT   Exchange  Energy =   -31.0843923185
 DFT Correlation Energy =    -1.1392814622
 Nuclear Repu.   Energy =   102.1741167933
 Nuclear Attr.   Energy = -1333.3954419069
 Kinetic         Energy =   475.7036784038
 SCF time:  CPU 102.94 s  wall 103.73 s
 Final Alpha MO Eigenvalues
            1           2           3           4           5           6
    1 -88.2203599 -10.1120381 -10.1118703  -7.8561352  -5.8740867  -5.8719282
            7           8           9          10          11          12
    1  -5.8630709  -0.9963553  -0.7417835  -0.7375393  -0.6124650  -0.5631381
           13          14          15          16          17          18
    1  -0.4915506  -0.4283649  -0.4263001  -0.3330646   0.0416545   0.0488594
           19          20          21
    1   0.0563844   0.0756809   0.0853487
 Analysis of SCF Wavefunction
 
 --------------------------------------------------------------
                    Orbital Energies (a.u.)
 --------------------------------------------------------------
 
 Alpha MOs
 -- Occupied --
-88.220 -10.112 -10.112  -7.856  -5.874  -5.872  -5.863  -0.996
 -0.742  -0.738  -0.612  -0.563  -0.492  -0.428  -0.426  -0.333
 -- Virtual --
  0.042   0.049   0.056   0.076   0.085   0.090   0.124   0.126
  0.131   0.133   0.166   0.169   0.187   0.189   0.195   0.199
  0.201   0.215   0.240   0.278   0.294   0.321   0.346   0.383
  0.397   0.423   0.424   0.447   0.488   0.493   0.521   0.544
  0.569   0.632   0.638   0.653   0.656   0.673   0.673   0.696
  0.724   0.769   0.827   0.877   0.885   0.951   0.960   0.975
  0.981   1.022   1.071   1.075   1.085   1.104   1.113   1.149
  1.164   1.225   1.264   1.292   1.301   1.338   1.345   1.375
  1.402   1.402   1.441   1.443   1.472   1.509   1.525   1.550
  1.563   1.599   1.605   1.638   1.680   1.706   2.006   2.207
  2.271   2.575   2.582   2.750   2.752   2.862   2.898   2.905
  2.957   2.992   3.054   3.124   3.127   3.175   3.203   3.207
  3.221   3.235   3.347   3.406   3.445   3.459   3.474   3.495
  3.597   3.609   3.633   3.651   3.730   3.742   3.746   3.751
  3.840   3.884   3.913   4.058   4.065   4.080   4.170   4.261
  4.293   4.297   4.314   4.387   4.391   4.506   4.599   4.603
  4.724   4.766   4.881   5.055   5.168   5.205   5.410   5.470
  5.636   5.693   5.732   8.497  17.145  17.349  17.513  23.449
 23.563  23.608  23.643  23.712  24.054  24.235  27.434  27.747
 27.976  28.046  28.105  28.416  30.889  30.889  30.895  30.902
 30.907  30.917  30.940  40.840  40.905  40.925  41.024  41.108
 41.122  41.130  41.132  41.209  41.229 189.044
 --------------------------------------------------------------
 
          Ground-State Mulliken Net Atomic Charges

     Atom                 Charge (a.u.)
  ----------------------------------------
      1 C                    -0.008103
      2 S                    -0.323742
      3 C                    -0.007686
      4 H                     0.084955
      5 H                     0.084955
      6 H                     0.084811
      7 H                     0.084811
  ----------------------------------------
  Sum of atomic charges =     0.000000

 -----------------------------------------------------------------
                    Cartesian Multipole Moments
 -----------------------------------------------------------------
    Charge (ESU x 10^10)
                 0.0000
    Dipole Moment (Debye)
         X      -0.0003      Y       1.8741      Z       0.0000
       Tot       1.8741
    Quadrupole Moments (Debye-Ang)
        XX     -24.3618     XY       0.0016     YY     -26.2119
        XZ       0.0000     YZ       0.0000     ZZ     -26.0813
    Octapole Moments (Debye-Ang^2)
       XXX      -0.0182    XXY       1.3898    XYY      -0.0034
       YYY      -3.0529    XXZ       0.0000    XYZ       0.0000
       YYZ       0.0000    XZZ      -0.0034    YZZ       3.6111
       ZZZ       0.0000
    Hexadecapole Moments (Debye-Ang^3)
      XXXX     -90.0387   XXXY      -0.0094   XXYY     -36.5210
      XYYY      -0.0057   YYYY    -145.9120   XXXZ       0.0000
      XXYZ       0.0000   XYYZ       0.0000   YYYZ       0.0000
      XXZZ     -19.6763   XYZZ      -0.0006   YYZZ     -32.4180
      XZZZ       0.0000   YZZZ       0.0000   ZZZZ     -46.7239
 -----------------------------------------------------------------
 Calculating analytic gradient of the SCF energy
 Gradient of AOints
            1           2           3           4           5           6
    1  -6.1807113   0.0057098   6.1654381  -2.3421492  -2.3421496   2.3469309
    2  -5.7866242  18.1132474  -5.7917396  -1.6342404  -1.6342404  -1.6332014
    3  -0.0000006   0.0000000   0.0000007   3.3444163  -3.3444162  -3.3414000
            7
    1   2.3469312
    2  -1.6332014
    3   3.3414000
 Gradient of XC Energy
            1           2           3           4           5           6
    1   0.0491157  -0.0000984  -0.0486661   0.0912073   0.0912073  -0.0913828
    2   0.0147894  -0.2574361   0.0149647   0.0569469   0.0569469   0.0568941
    3   0.0000000  -0.0000000  -0.0000000  -0.1560243   0.1560243   0.1558790
            7
    1  -0.0913829
    2   0.0568941
    3  -0.1558790
 Gradient of SCF Energy
            1           2           3           4           5           6
    1   0.0010946  -0.0000951  -0.0005473  -0.0002174  -0.0002174  -0.0000086
    2   0.0004376  -0.0003787   0.0001955  -0.0000948  -0.0000948  -0.0000324
    3   0.0000000   0.0000000  -0.0000000   0.0002157  -0.0002157  -0.0000044
            7
    1  -0.0000086
    2  -0.0000324
    3   0.0000044
 Max gradient component =       1.095E-03
 RMS gradient           =       3.153E-04
 Gradient time:  CPU 67.53 s  wall 67.64 s
 Writing REM_CC_EA            7
 ----------------------------------------------------
       Standard Nuclear Orientation (Angstroms)
    I     Atom         X            Y            Z
 ----------------------------------------------------
    1      C       0.739961     0.794054     0.000000
    2      S       0.000000    -0.834814     0.000000
    3      C      -0.740961     0.794054     0.000000
    4      H       1.248773     1.080669    -0.914612
    5      H       1.248773     1.080669     0.914612
    6      H      -1.248773     1.080669     0.914612
    7      H      -1.248773     1.080669    -0.914612
 ----------------------------------------------------
 Nuclear Repulsion Energy =   102.2018958765 hartrees
 There are       16 alpha and       16 beta electrons

                       Distance Matrix (Angstroms)
             C (  1)   S (  2)   C (  3)   H (  4)   H (  5)   H (  6)
   S (  2)  1.789065
   C (  3)  1.480923  1.789479
   H (  4)  1.085151  2.462727  2.208553
   H (  5)  1.085151  2.462727  2.208553  1.829224
   H (  6)  2.207652  2.462727  1.084682  3.095771  2.497546
   H (  7)  2.207652  2.462727  1.084682  2.497546  3.095771  1.829224

 
 Requested basis set is G3large
 There are 63 shells and 190 basis functions
 A cutoff of  1.0D-11 yielded   1980 shell pairs
 There are  18073 function pairs ( 23193 Cartesian)
Evaluating contribution to one-electron hamiltonian from nuclear
 Smallest overlap matrix eigenvalue = 7.55E-05
 Multipole matrices computed through 2nd order
 Guess MOs from SCF MO coefficient file
Reading MOs from coefficient file
Reading MOs from coefficient file
 Long-range K will be added via erf
 Coulomb attenuation parameter = 0.34 bohr**(-1)
 A restricted Kohn-Sham SCF calculation will be
 performed using Pulay DIIS extrapolation
 Exchange:  wPBE + LR-HF      Correlation:  PBE
 Using SG-1 standard quadrature grid
 SCF converges when DIIS error is below 1.0E-08
 ---------------------------------------
  Cycle       Energy         DIIS Error
 ---------------------------------------
    1    -476.6216324458      5.70E-05
    2    -476.6219085401      7.03E-06
    3    -476.6219087476      4.15E-06
    4    -476.6219088443      1.03E-06
    5    -476.6219088149      2.92E-07
    6    -476.6219088104      1.24E-07
    7    -476.6219088115      2.68E-08
    8    -476.6219088120      1.37E-08
    9    -476.6219088119      3.75E-09 Convergence criterion met
 ---------------------------------------
 One-Electron    Energy =  -857.7470281283
 Total Coulomb   Energy =   316.7738310563
 Alpha Exchange  Energy =    -2.8132781840
 Beta  Exchange  Energy =    -2.8132781840
 DFT   Exchange  Energy =   -31.0847184001
 DFT Correlation Energy =    -1.1393328483
 Nuclear Repu.   Energy =   102.2018958765
 Nuclear Attr.   Energy = -1333.4526657903
 Kinetic         Energy =   475.7056376621
 SCF time:  CPU 115.30 s  wall 116.22 s
 Final Alpha MO Eigenvalues
            1           2           3           4           5           6
    1 -88.2202882 -10.1119998 -10.1118294  -7.8560824  -5.8740421  -5.8718624
            7           8           9          10          11          12
    1  -5.8630175  -0.9967393  -0.7416205  -0.7376016  -0.6124953  -0.5634378
           13          14          15          16          17          18
    1  -0.4911822  -0.4286942  -0.4261640  -0.3330254   0.0416500   0.0488603
           19          20          21
    1   0.0563697   0.0756846   0.0853542
 Analysis of SCF Wavefunction
 
 --------------------------------------------------------------
                    Orbital Energies (a.u.)
 --------------------------------------------------------------
 
 Alpha MOs
 -- Occupied --
-88.220 -10.112 -10.112  -7.856  -5.874  -5.872  -5.863  -0.997
 -0.742  -0.738  -0.612  -0.563  -0.491  -0.429  -0.426  -0.333
 -- Virtual --
  0.042   0.049   0.056   0.076   0.085   0.090   0.124   0.126
  0.131   0.133   0.166   0.168   0.187   0.189   0.195   0.199
  0.201   0.215   0.240   0.278   0.294   0.321   0.347   0.383
  0.397   0.423   0.424   0.447   0.488   0.493   0.521   0.544
  0.569   0.632   0.638   0.653   0.656   0.673   0.673   0.696
  0.724   0.769   0.827   0.877   0.885   0.951   0.960   0.975
  0.981   1.021   1.071   1.075   1.085   1.104   1.113   1.149
  1.165   1.225   1.264   1.292   1.301   1.338   1.345   1.375
  1.402   1.402   1.441   1.443   1.472   1.509   1.525   1.550
  1.563   1.599   1.605   1.637   1.680   1.707   2.006   2.207
  2.271   2.576   2.582   2.751   2.753   2.862   2.897   2.906
  2.957   2.991   3.056   3.126   3.127   3.174   3.202   3.207
  3.221   3.236   3.347   3.406   3.445   3.460   3.474   3.496
  3.597   3.609   3.632   3.651   3.730   3.742   3.746   3.751
  3.840   3.883   3.915   4.058   4.067   4.081   4.170   4.262
  4.293   4.297   4.313   4.389   4.392   4.507   4.600   4.604
  4.724   4.767   4.883   5.055   5.169   5.203   5.410   5.470
  5.634   5.692   5.734   8.498  17.145  17.349  17.513  23.449
 23.563  23.608  23.642  23.712  24.053  24.238  27.436  27.748
 27.978  28.046  28.105  28.416  30.889  30.889  30.895  30.902
 30.907  30.917  30.940  40.839  40.905  40.925  41.027  41.108
 41.123  41.130  41.132  41.209  41.229 189.045
 --------------------------------------------------------------
 
          Ground-State Mulliken Net Atomic Charges

     Atom                 Charge (a.u.)
  ----------------------------------------
      1 C                    -0.007296
      2 S                    -0.323827
      3 C                    -0.007713
      4 H                     0.084637
      5 H                     0.084637
      6 H                     0.084781
      7 H                     0.084781
  ----------------------------------------
  Sum of atomic charges =     0.000000

 -----------------------------------------------------------------
                    Cartesian Multipole Moments
 -----------------------------------------------------------------
    Charge (ESU x 10^10)
                 0.0000
    Dipole Moment (Debye)
         X       0.0003      Y       1.8749      Z       0.0000
       Tot       1.8749
    Quadrupole Moments (Debye-Ang)
        XX     -24.3615     XY      -0.0016     YY     -26.2093
        XZ       0.0000     YZ       0.0000     ZZ     -26.0832
    Octapole Moments (Debye-Ang^2)
       XXX       0.0182    XXY       1.3903    XYY       0.0034
       YYY      -3.0517    XXZ       0.0000    XYZ       0.0000
       YYZ       0.0000    XZZ       0.0034    YZZ       3.6078
       ZZZ       0.0000
    Hexadecapole Moments (Debye-Ang^3)
      XXXX     -89.9428   XXXY       0.0094   XXYY     -36.5115
      XYYY       0.0056   YYYY    -145.8927   XXXZ       0.0000
      XXYZ       0.0000   XYYZ       0.0000   YYYZ       0.0000
      XXZZ     -19.6649   XYZZ       0.0006   YYZZ     -32.4232
      XZZZ       0.0000   YZZZ       0.0000   ZZZZ     -46.7366
 -----------------------------------------------------------------
 Calculating analytic gradient of the SCF energy
 Gradient of AOints
            1           2           3           4           5           6
    1  -6.1595983  -0.0057204   6.1748741  -2.3504032  -2.3504035   2.3456255
    2  -5.7965090  18.1210040  -5.7913887  -1.6327552  -1.6327552  -1.6337980
    3  -0.0000007   0.0000000   0.0000007   3.3394547  -3.3394546  -3.3424758
            7
    1   2.3456259
    2  -1.6337980
    3   3.3424757
 Gradient of XC Energy
            1           2           3           4           5           6
    1   0.0486295   0.0000986  -0.0490787   0.0915090   0.0915090  -0.0913337
    2   0.0150786  -0.2575141   0.0149031   0.0568566   0.0568566   0.0569096
    3   0.0000000  -0.0000000  -0.0000000  -0.1557546   0.1557546   0.1559001
            7
    1  -0.0913337
    2   0.0569096
    3  -0.1559001
 Gradient of SCF Energy
            1           2           3           4           5           6
    1  -0.0009881   0.0000951   0.0004404   0.0001900   0.0001900   0.0000363
    2  -0.0001395  -0.0000290   0.0001024   0.0000476   0.0000476  -0.0000145
    3   0.0000000  -0.0000000  -0.0000000  -0.0002164   0.0002164   0.0000057
            7
    1   0.0000363
    2  -0.0000145
    3  -0.0000057
 Max gradient component =       9.881E-04
 RMS gradient           =       2.567E-04
 Gradient time:  CPU 68.85 s  wall 68.96 s
 Writing REM_CC_EA            7
 ----------------------------------------------------
       Standard Nuclear Orientation (Angstroms)
    I     Atom         X            Y            Z
 ----------------------------------------------------
    1      C       0.740961     0.795054     0.000000
    2      S       0.000000    -0.834814     0.000000
    3      C      -0.740961     0.794054     0.000000
    4      H       1.248773     1.080669    -0.914612
    5      H       1.248773     1.080669     0.914612
    6      H      -1.248773     1.080669     0.914612
    7      H      -1.248773     1.080669    -0.914612
 ----------------------------------------------------
 Nuclear Repulsion Energy =   102.1751592236 hartrees
 There are       16 alpha and       16 beta electrons

                       Distance Matrix (Angstroms)
             C (  1)   S (  2)   C (  3)   H (  4)   H (  5)   H (  6)
   S (  2)  1.790389
   C (  3)  1.481923  1.789479
   H (  4)  1.084419  2.462727  2.208553
   H (  5)  1.084419  2.462727  2.208553  1.829224
   H (  6)  2.208423  2.462727  1.084682  3.095771  2.497546
   H (  7)  2.208423  2.462727  1.084682  2.497546  3.095771  1.829224

 
 Requested basis set is G3large
 There are 63 shells and 190 basis functions
 A cutoff of  1.0D-11 yielded   1980 shell pairs
 There are  18073 function pairs ( 23193 Cartesian)
Evaluating contribution to one-electron hamiltonian from nuclear
 Smallest overlap matrix eigenvalue = 7.57E-05
 Multipole matrices computed through 2nd order
 Guess MOs from SCF MO coefficient file
Reading MOs from coefficient file
Reading MOs from coefficient file
 Long-range K will be added via erf
 Coulomb attenuation parameter = 0.34 bohr**(-1)
 A restricted Kohn-Sham SCF calculation will be
 performed using Pulay DIIS extrapolation
 Exchange:  wPBE + LR-HF      Correlation:  PBE
 Using SG-1 standard quadrature grid
 SCF converges when DIIS error is below 1.0E-08
 ---------------------------------------
  Cycle       Energy         DIIS Error
 ---------------------------------------
    1    -476.6219308978      4.27E-05
    2    -476.6219087848      5.54E-06
    3    -476.6219089419      3.33E-06
    4    -476.6219090294      7.71E-07
    5    -476.6219090302      2.45E-07
    6    -476.6219090426      9.44E-08
    7    -476.6219090414      2.38E-08
    8    -476.6219090397      1.05E-08
    9    -476.6219090409      4.26E-09 Convergence criterion met
 ---------------------------------------
 One-Electron    Energy =  -857.6939044174
 Total Coulomb   Energy =   316.7471316932
 Alpha Exchange  Energy =    -2.8132622085
 Beta  Exchange  Energy =    -2.8132622085
 DFT   Exchange  Energy =   -31.0844840122
 DFT Correlation Energy =    -1.1392871110
 Nuclear Repu.   Energy =   102.1751592236
 Nuclear Attr.   Energy = -1333.3982335628
 Kinetic         Energy =   475.7043291454
 SCF time:  CPU 114.38 s  wall 115.14 s
 Final Alpha MO Eigenvalues
            1           2           3           4           5           6
    1 -88.2203183 -10.1120392 -10.1118742  -7.8560926  -5.8740535  -5.8718767
            7           8           9          10          11          12
    1  -5.8630282  -0.9964391  -0.7417381  -0.7375803  -0.6125198  -0.5632661
           13          14          15          16          17          18
    1  -0.4914516  -0.4285759  -0.4260975  -0.3330409   0.0416517   0.0488538
           19          20          21
    1   0.0563799   0.0756637   0.0853346
 Analysis of SCF Wavefunction
 
 --------------------------------------------------------------
                    Orbital Energies (a.u.)
 --------------------------------------------------------------
 
 Alpha MOs
 -- Occupied --
-88.220 -10.112 -10.112  -7.856  -5.874  -5.872  -5.863  -0.996
 -0.742  -0.738  -0.613  -0.563  -0.491  -0.429  -0.426  -0.333
 -- Virtual --
  0.042   0.049   0.056   0.076   0.085   0.090   0.124   0.126
  0.131   0.133   0.166   0.168   0.187   0.189   0.195   0.199
  0.201   0.215   0.240   0.278   0.294   0.321   0.346   0.383
  0.397   0.423   0.424   0.447   0.488   0.493   0.521   0.544
  0.569   0.632   0.638   0.653   0.656   0.673   0.673   0.696
  0.724   0.769   0.827   0.877   0.885   0.951   0.960   0.975
  0.981   1.021   1.071   1.075   1.085   1.104   1.113   1.149
  1.165   1.225   1.264   1.292   1.301   1.338   1.345   1.375
  1.402   1.402   1.441   1.443   1.472   1.509   1.525   1.550
  1.563   1.599   1.605   1.638   1.680   1.707   2.006   2.207
  2.271   2.575   2.582   2.751   2.752   2.862   2.897   2.906
  2.957   2.991   3.055   3.125   3.127   3.174   3.202   3.207
  3.221   3.236   3.347   3.406   3.445   3.459   3.474   3.496
  3.597   3.609   3.632   3.651   3.729   3.742   3.745   3.750
  3.839   3.884   3.914   4.058   4.066   4.081   4.170   4.262
  4.293   4.297   4.313   4.388   4.392   4.506   4.600   4.603
  4.724   4.766   4.882   5.055   5.169   5.205   5.409   5.469
  5.636   5.693   5.733   8.497  17.145  17.349  17.513  23.449
 23.563  23.608  23.643  23.712  24.054  24.237  27.435  27.747
 27.976  28.046  28.105  28.416  30.889  30.889  30.895  30.902
 30.907  30.917  30.940  40.839  40.905  40.925  41.025  41.108
 41.122  41.130  41.132  41.209  41.229 189.044
 --------------------------------------------------------------
 
          Ground-State Mulliken Net Atomic Charges

     Atom                 Charge (a.u.)
  ----------------------------------------
      1 C                    -0.008222
      2 S                    -0.324054
      3 C                    -0.007289
      4 H                     0.085021
      5 H                     0.085021
      6 H                     0.084762
      7 H                     0.084762
  ----------------------------------------
  Sum of atomic charges =     0.000000

 -----------------------------------------------------------------
                    Cartesian Multipole Moments
 -----------------------------------------------------------------
    Charge (ESU x 10^10)
                 0.0000
    Dipole Moment (Debye)
         X       0.0002      Y       1.8757      Z       0.0000
       Tot       1.8757
    Quadrupole Moments (Debye-Ang)
        XX     -24.3612     XY       0.0012     YY     -26.2107
        XZ       0.0000     YZ       0.0000     ZZ     -26.0821
    Octapole Moments (Debye-Ang^2)
       XXX       0.0018    XXY       1.3879    XYY       0.0001
       YYY      -3.0690    XXZ       0.0000    XYZ       0.0000
       YYZ       0.0000    XZZ       0.0016    YZZ       3.6067
       ZZZ       0.0000
    Hexadecapole Moments (Debye-Ang^3)
      XXXX     -89.9845   XXXY      -0.0055   XXYY     -36.5265
      XYYY      -0.0122   YYYY    -145.9506   XXXZ       0.0000
      XXYZ       0.0000   XYYZ       0.0000   YYYZ       0.0000
      XXZZ     -19.6677   XYZZ      -0.0016   YYZZ     -32.4288
      XZZZ       0.0000   YZZZ       0.0000   ZZZZ     -46.7287
 -----------------------------------------------------------------
 Calculating analytic gradient of the SCF energy
 Gradient of AOints
            1           2           3           4           5           6
    1  -6.1662504  -0.0029577   6.1692071  -2.3464899  -2.3464902   2.3464904
    2  -5.7992154  18.1106571  -5.7867413  -1.6290234  -1.6290234  -1.6333268
    3  -0.0000006   0.0000000   0.0000006   3.3438170  -3.3438170  -3.3419875
            7
    1   2.3464907
    2  -1.6333268
    3   3.3419874
 Gradient of XC Energy
            1           2           3           4           5           6
    1   0.0487533   0.0000648  -0.0488705   0.0913890   0.0913890  -0.0913628
    2   0.0152871  -0.2573170   0.0148064   0.0567100   0.0567100   0.0569017
    3   0.0000000  -0.0000000  -0.0000000  -0.1559797   0.1559797   0.1558939
            7
    1  -0.0913628
    2   0.0569017
    3  -0.1558939
 Gradient of SCF Energy
            1           2           3           4           5           6
    1   0.0003433  -0.0001285  -0.0001016  -0.0000852  -0.0000852   0.0000286
    2   0.0006516  -0.0004486   0.0000789  -0.0001202  -0.0001202  -0.0000207
    3   0.0000000  -0.0000000  -0.0000000   0.0001191  -0.0001191   0.0000037
            7
    1   0.0000286
    2  -0.0000207
    3  -0.0000037
 Max gradient component =       6.516E-04
 RMS gradient           =       2.013E-04
 Gradient time:  CPU 67.20 s  wall 67.35 s
 Writing REM_CC_EA            7
 ----------------------------------------------------
       Standard Nuclear Orientation (Angstroms)
    I     Atom         X            Y            Z
 ----------------------------------------------------
    1      C       0.740961     0.793054     0.000000
    2      S       0.000000    -0.834814     0.000000
    3      C      -0.740961     0.794054     0.000000
    4      H       1.248773     1.080669    -0.914612
    5      H       1.248773     1.080669     0.914612
    6      H      -1.248773     1.080669     0.914612
    7      H      -1.248773     1.080669    -0.914612
 ----------------------------------------------------
 Nuclear Repulsion Energy =   102.2008497263 hartrees
 There are       16 alpha and       16 beta electrons

                       Distance Matrix (Angstroms)
             C (  1)   S (  2)   C (  3)   H (  4)   H (  5)   H (  6)
   S (  2)  1.788569
   C (  3)  1.481923  1.789479
   H (  4)  1.084947  2.462727  2.208553
   H (  5)  1.084947  2.462727  2.208553  1.829224
   H (  6)  2.208683  2.462727  1.084682  3.095771  2.497546
   H (  7)  2.208683  2.462727  1.084682  2.497546  3.095771  1.829224

 
 Requested basis set is G3large
 There are 63 shells and 190 basis functions
 A cutoff of  1.0D-11 yielded   1980 shell pairs
 There are  18073 function pairs ( 23193 Cartesian)
Evaluating contribution to one-electron hamiltonian from nuclear
 Smallest overlap matrix eigenvalue = 7.57E-05
 Multipole matrices computed through 2nd order
 Guess MOs from SCF MO coefficient file
Reading MOs from coefficient file
Reading MOs from coefficient file
 Long-range K will be added via erf
 Coulomb attenuation parameter = 0.34 bohr**(-1)
 A restricted Kohn-Sham SCF calculation will be
 performed using Pulay DIIS extrapolation
 Exchange:  wPBE + LR-HF      Correlation:  PBE
 Using SG-1 standard quadrature grid
 SCF converges when DIIS error is below 1.0E-08
 ---------------------------------------
  Cycle       Energy         DIIS Error
 ---------------------------------------
    1    -476.6221490907      4.88E-05
    2    -476.6219092482      6.49E-06
    3    -476.6219094266      4.39E-06
    4    -476.6219095190      1.11E-06
    5    -476.6219095490      3.40E-07
    6    -476.6219095391      1.15E-07
    7    -476.6219095450      3.34E-08
    8    -476.6219095436      1.13E-08
    9    -476.6219095445      5.64E-09 Convergence criterion met
 ---------------------------------------
 One-Electron    Energy =  -857.7448802140
 Total Coulomb   Energy =   316.7726331556
 Alpha Exchange  Energy =    -2.8132795276
 Beta  Exchange  Energy =    -2.8132795276
 DFT   Exchange  Energy =   -31.0846259549
 DFT Correlation Energy =    -1.1393272023
 Nuclear Repu.   Energy =   102.2008497263
 Nuclear Attr.   Energy = -1333.4498610768
 Kinetic         Energy =   475.7049808628
 SCF time:  CPU 116.07 s  wall 116.90 s
 Final Alpha MO Eigenvalues
            1           2           3           4           5           6
    1 -88.2203298 -10.1119949 -10.1118299  -7.8561251  -5.8740753  -5.8719139
            7           8           9          10          11          12
    1  -5.8630602  -0.9966554  -0.7416656  -0.7375609  -0.6124400  -0.5633097
           13          14          15          16          17          18
    1  -0.4912815  -0.4284951  -0.4263548  -0.3330491   0.0416528   0.0488659
           19          20          21
    1   0.0563743   0.0757014   0.0853683
 Analysis of SCF Wavefunction
 
 --------------------------------------------------------------
                    Orbital Energies (a.u.)
 --------------------------------------------------------------
 
 Alpha MOs
 -- Occupied --
-88.220 -10.112 -10.112  -7.856  -5.874  -5.872  -5.863  -0.997
 -0.742  -0.738  -0.612  -0.563  -0.491  -0.428  -0.426  -0.333
 -- Virtual --
  0.042   0.049   0.056   0.076   0.085   0.090   0.124   0.126
  0.131   0.133   0.166   0.169   0.187   0.189   0.195   0.199
  0.201   0.215   0.240   0.278   0.294   0.321   0.346   0.383
  0.397   0.423   0.424   0.447   0.488   0.493   0.521   0.544
  0.569   0.632   0.638   0.653   0.656   0.673   0.673   0.696
  0.724   0.769   0.827   0.877   0.885   0.951   0.960   0.975
  0.981   1.022   1.071   1.075   1.085   1.104   1.113   1.149
  1.164   1.225   1.264   1.292   1.301   1.338   1.345   1.375
  1.402   1.402   1.441   1.443   1.472   1.509   1.525   1.550
  1.563   1.599   1.605   1.637   1.680   1.706   2.006   2.208
  2.271   2.576   2.582   2.751   2.752   2.861   2.897   2.906
  2.957   2.991   3.055   3.125   3.126   3.175   3.202   3.207
  3.221   3.236   3.347   3.406   3.445   3.460   3.474   3.495
  3.597   3.609   3.632   3.652   3.730   3.743   3.746   3.751
  3.840   3.884   3.914   4.058   4.066   4.081   4.170   4.261
  4.293   4.297   4.314   4.388   4.391   4.506   4.599   4.603
  4.724   4.767   4.881   5.056   5.168   5.204   5.411   5.470
  5.635   5.692   5.732   8.498  17.145  17.350  17.514  23.449
 23.563  23.608  23.642  23.712  24.054  24.236  27.435  27.748
 27.977  28.046  28.105  28.416  30.889  30.889  30.895  30.902
 30.907  30.917  30.940  40.839  40.905  40.925  41.025  41.108
 41.123  41.130  41.132  41.209  41.229 189.045
 --------------------------------------------------------------
 
          Ground-State Mulliken Net Atomic Charges

     Atom                 Charge (a.u.)
  ----------------------------------------
      1 C                    -0.007178
      2 S                    -0.323515
      3 C                    -0.008108
      4 H                     0.084572
      5 H                     0.084571
      6 H                     0.084830
      7 H                     0.084830
  ----------------------------------------
  Sum of atomic charges =     0.000000

 -----------------------------------------------------------------
                    Cartesian Multipole Moments
 -----------------------------------------------------------------
    Charge (ESU x 10^10)
                 0.0000
    Dipole Moment (Debye)
         X      -0.0002      Y       1.8733      Z       0.0000
       Tot       1.8733
    Quadrupole Moments (Debye-Ang)
        XX     -24.3621     XY      -0.0013     YY     -26.2105
        XZ       0.0000     YZ       0.0000     ZZ     -26.0824
    Octapole Moments (Debye-Ang^2)
       XXX      -0.0019    XXY       1.3921    XYY      -0.0001
       YYY      -3.0356    XXZ       0.0000    XYZ       0.0000
       YYZ       0.0000    XZZ      -0.0016    YZZ       3.6122
       ZZZ       0.0000
    Hexadecapole Moments (Debye-Ang^3)
      XXXX     -89.9970   XXXY       0.0054   XXYY     -36.5060
      XYYY       0.0122   YYYY    -145.8542   XXXZ       0.0000
      XXYZ       0.0000   XYYZ       0.0000   YYYZ       0.0000
      XXZZ     -19.6735   XYZZ       0.0016   YYZZ     -32.4125
      XZZZ       0.0000   YZZZ       0.0000   ZZZZ     -46.7318
 -----------------------------------------------------------------
 Calculating analytic gradient of the SCF energy
 Gradient of AOints
            1           2           3           4           5           6
    1  -6.1740730   0.0029609   6.1710967  -2.3460638  -2.3460641   2.3460714
    2  -5.7839263  18.1236038  -5.7963862  -1.6379722  -1.6379722  -1.6336735
    3  -0.0000006   0.0000000   0.0000006   3.3400524  -3.3400523  -3.3418852
            7
    1   2.3460718
    2  -1.6336734
    3   3.3418852
 Gradient of XC Energy
            1           2           3           4           5           6
    1   0.0489919  -0.0000649  -0.0488740   0.0913274   0.0913274  -0.0913540
    2   0.0145816  -0.2576336   0.0150615   0.0570933   0.0570933   0.0569019
    3   0.0000000  -0.0000000  -0.0000000  -0.1557992   0.1557991   0.1558851
            7
    1  -0.0913540
    2   0.0569019
    3  -0.1558851
 Gradient of SCF Energy
            1           2           3           4           5           6
    1  -0.0002339   0.0001292  -0.0000085   0.0000576   0.0000576  -0.0000010
    2  -0.0003558   0.0000419   0.0002190   0.0000736   0.0000736  -0.0000262
    3   0.0000000   0.0000000  -0.0000000  -0.0001204   0.0001204  -0.0000024
            7
    1  -0.0000010
    2  -0.0000262
    3   0.0000024
 Max gradient component =       3.558E-04
 RMS gradient           =       1.186E-04
 Gradient time:  CPU 67.66 s  wall 67.82 s
 Writing REM_CC_EA            7
 ----------------------------------------------------
       Standard Nuclear Orientation (Angstroms)
    I     Atom         X            Y            Z
 ----------------------------------------------------
    1      C       0.740961     0.794054     0.001000
    2      S       0.000000    -0.834814     0.000000
    3      C      -0.740961     0.794054     0.000000
    4      H       1.248773     1.080669    -0.914612
    5      H       1.248773     1.080669     0.914612
    6      H      -1.248773     1.080669     0.914612
    7      H      -1.248773     1.080669    -0.914612
 ----------------------------------------------------
 Nuclear Repulsion Energy =   102.1879983789 hartrees
 There are       16 alpha and       16 beta electrons

                       Distance Matrix (Angstroms)
             C (  1)   S (  2)   C (  3)   H (  4)   H (  5)   H (  6)
   S (  2)  1.789479
   C (  3)  1.481923  1.789479
   H (  4)  1.085526  2.462727  2.208553
   H (  5)  1.083839  2.462727  2.208553  1.829224
   H (  6)  2.208139  2.462727  1.084682  3.095771  2.497546
   H (  7)  2.208967  2.462727  1.084682  2.497546  3.095771  1.829224

 
 Requested basis set is G3large
 There are 63 shells and 190 basis functions
 A cutoff of  1.0D-11 yielded   1980 shell pairs
 There are  18073 function pairs ( 23193 Cartesian)
Evaluating contribution to one-electron hamiltonian from nuclear
 Smallest overlap matrix eigenvalue = 7.57E-05
 Multipole matrices computed through 2nd order
 Guess MOs from SCF MO coefficient file
Reading MOs from coefficient file
Reading MOs from coefficient file
 Long-range K will be added via erf
 Coulomb attenuation parameter = 0.34 bohr**(-1)
 A restricted Kohn-Sham SCF calculation will be
 performed using Pulay DIIS extrapolation
 Exchange:  wPBE + LR-HF      Correlation:  PBE
 Using SG-1 standard quadrature grid
 SCF converges when DIIS error is below 1.0E-08
 ---------------------------------------
  Cycle       Energy         DIIS Error
 ---------------------------------------
    1    -476.6217876909      3.41E-05
    2    -476.6219085016      4.96E-06
    3    -476.6219085123      2.61E-06
    4    -476.6219086251      8.22E-07
    5    -476.6219086022      2.80E-07
    6    -476.6219086133      1.09E-07
    7    -476.6219086098      3.92E-08
    8    -476.6219086105      1.68E-08
    9    -476.6219086095      6.48E-09 Convergence criterion met
 ---------------------------------------
 One-Electron    Energy =  -857.7193781483
 Total Coulomb   Energy =   316.7598751777
 Alpha Exchange  Energy =    -2.8132708772
 Beta  Exchange  Energy =    -2.8132708772
 DFT   Exchange  Energy =   -31.0845551217
 DFT Correlation Energy =    -1.1393071416
 Nuclear Repu.   Energy =   102.1879983789
 Nuclear Attr.   Energy = -1333.4240339600
 Kinetic         Energy =   475.7046558117
 SCF time:  CPU 116.95 s  wall 117.85 s
 Final Alpha MO Eigenvalues
            1           2           3           4           5           6
    1 -88.2203242 -10.1120171 -10.1118521  -7.8561089  -5.8740645  -5.8718954
            7           8           9          10          11          12
    1  -5.8630443  -0.9965471  -0.7417012  -0.7375717  -0.6124798  -0.5632884
           13          14          15          16          17          18
    1  -0.4913662  -0.4285293  -0.4262323  -0.3330450   0.0416522   0.0488599
           19          20          21
    1   0.0563771   0.0756828   0.0853514
 Analysis of SCF Wavefunction
 
 --------------------------------------------------------------
                    Orbital Energies (a.u.)
 --------------------------------------------------------------
 
 Alpha MOs
 -- Occupied --
-88.220 -10.112 -10.112  -7.856  -5.874  -5.872  -5.863  -0.997
 -0.742  -0.738  -0.612  -0.563  -0.491  -0.429  -0.426  -0.333
 -- Virtual --
  0.042   0.049   0.056   0.076   0.085   0.090   0.124   0.126
  0.131   0.133   0.166   0.169   0.187   0.189   0.195   0.199
  0.201   0.215   0.240   0.278   0.294   0.321   0.346   0.383
  0.397   0.423   0.424   0.447   0.488   0.493   0.521   0.544
  0.569   0.632   0.638   0.653   0.656   0.673   0.673   0.696
  0.724   0.769   0.827   0.877   0.885   0.951   0.960   0.975
  0.981   1.022   1.071   1.075   1.085   1.104   1.113   1.149
  1.164   1.225   1.264   1.292   1.301   1.338   1.345   1.375
  1.402   1.402   1.441   1.443   1.472   1.509   1.525   1.550
  1.563   1.599   1.605   1.638   1.680   1.707   2.006   2.207
  2.271   2.576   2.582   2.751   2.752   2.862   2.897   2.906
  2.957   2.991   3.055   3.125   3.127   3.174   3.202   3.207
  3.221   3.236   3.347   3.406   3.445   3.460   3.474   3.495
  3.597   3.609   3.632   3.651   3.730   3.742   3.746   3.751
  3.840   3.884   3.914   4.058   4.066   4.081   4.170   4.261
  4.293   4.297   4.313   4.388   4.391   4.506   4.599   4.603
  4.724   4.767   4.882   5.055   5.169   5.204   5.410   5.470
  5.635   5.692   5.733   8.498  17.145  17.349  17.513  23.449
 23.563  23.608  23.642  23.712  24.054  24.236  27.435  27.747
 27.977  28.046  28.105  28.416  30.889  30.889  30.895  30.902
 30.907  30.917  30.940  40.839  40.905  40.925  41.025  41.108
 41.123  41.130  41.132  41.209  41.229 189.045
 --------------------------------------------------------------
 
          Ground-State Mulliken Net Atomic Charges

     Atom                 Charge (a.u.)
  ----------------------------------------
      1 C                    -0.007701
      2 S                    -0.323784
      3 C                    -0.007699
      4 H                     0.084656
      5 H                     0.084937
      6 H                     0.084772
      7 H                     0.084820
  ----------------------------------------
  Sum of atomic charges =     0.000000

 -----------------------------------------------------------------
                    Cartesian Multipole Moments
 -----------------------------------------------------------------
    Charge (ESU x 10^10)
                 0.0000
    Dipole Moment (Debye)
         X       0.0000      Y       1.8745      Z       0.0003
       Tot       1.8745
    Quadrupole Moments (Debye-Ang)
        XX     -24.3617     XY       0.0000     YY     -26.2106
        XZ       0.0040     YZ       0.0024     ZZ     -26.0822
    Octapole Moments (Debye-Ang^2)
       XXX       0.0000    XXY       1.3900    XYY       0.0000
       YYY      -3.0523    XXZ      -0.0032    XYZ       0.0010
       YYZ      -0.0041    XZZ       0.0000    YZZ       3.6095
       ZZZ      -0.0135
    Hexadecapole Moments (Debye-Ang^3)
      XXXX     -89.9907   XXXY       0.0000   XXYY     -36.5162
      XYYY       0.0000   YYYY    -145.9024   XXXZ       0.0045
      XXYZ       0.0007   XYYZ       0.0042   YYYZ       0.0004
      XXZZ     -19.6706   XYZZ       0.0000   YYZZ     -32.4206
      XZZZ      -0.0037   YZZZ      -0.0069   ZZZZ     -46.7303
 -----------------------------------------------------------------
 Calculating analytic gradient of the SCF energy
 Gradient of AOints
            1           2           3           4           5           6
    1  -6.1701503   0.0000000   6.1701497  -2.3422868  -2.3502714   2.3448687
    2  -5.7915583  18.1171221  -5.7915643  -1.6308018  -1.6361991  -1.6340522
    3  -0.0178645   0.0070988   0.0090582   3.3427717  -3.3410981  -3.3419196
            7
    1   2.3476901
    2  -1.6329464
    3   3.3419536
 Gradient of XC Energy
            1           2           3           4           5           6
    1   0.0488722  -0.0000000  -0.0488722   0.0911845   0.0915322  -0.0913158
    2   0.0149338  -0.2574750   0.0149340   0.0567961   0.0570076   0.0569188
    3   0.0003117  -0.0001245  -0.0002378  -0.1558649   0.1559138   0.1558904
            7
    1  -0.0914008
    2   0.0568848
    3  -0.1558887
 Gradient of SCF Energy
[...]
    1  -0.1078030  -0.0376861  -0.1143472  -0.0118844  -0.0047269  -0.0026595
    2  -0.0377768  -0.0512959  -0.0633507   0.0078462   0.0014385   0.0016262
    3  -0.1099061  -0.0683600  -0.2666092   0.0237092   0.0136113   0.0028589
    4  -0.0020344  -0.0154009   0.0022887  -0.0020343   0.0153993  -0.0022881
    5  -0.0003090  -0.0139875   0.0016701   0.0003126  -0.0139861   0.0016677
    6   0.0003984  -0.0175623   0.0049280  -0.0004020  -0.0175640   0.0049281
    7  -0.0118804   0.0047226   0.0026587  -0.1078045   0.0376841   0.1143457
    8  -0.0078474   0.0014368   0.0016264   0.0377799  -0.0512938  -0.0633510
    9  -0.0237063   0.0136166   0.0028589   0.1099095  -0.0683550  -0.2666092
   10   0.0084221   0.0048878  -0.0119178  -0.0028754  -0.0024413  -0.0005676
   11   0.0048890   0.0040671  -0.0062387   0.0024394   0.0009584   0.0001145
   12   0.0119188   0.0062344  -0.0153077  -0.0005662  -0.0001096   0.0003562
   13   0.1146662   0.0422600   0.1207392   0.0015061   0.0012257  -0.0000094
   14   0.0422600   0.0590878   0.0665824  -0.0012250  -0.0002692  -0.0004016
   15   0.1207392   0.0665824   0.2730293   0.0000096  -0.0004019   0.0007439
   16   0.0015061  -0.0012250   0.0000096   0.1146734  -0.0422613  -0.1207433
   17   0.0012257  -0.0002692  -0.0004019  -0.0422613   0.0590861   0.0665796
   18  -0.0000094  -0.0004016   0.0007439  -0.1207433   0.0665796   0.2730293
   19  -0.0028789   0.0024392   0.0005655   0.0084224  -0.0048857   0.0119189
   20  -0.0024400   0.0009584   0.0001132  -0.0048877   0.0040593  -0.0062426
   21   0.0005649  -0.0001109   0.0003562  -0.0119163   0.0062384  -0.0153077
           19          20          21
    1  -0.0118802  -0.0047268   0.0026599
    2   0.0078476   0.0014385  -0.0016253
    3  -0.0237077  -0.0136093   0.0028752
    4  -0.0020339   0.0154034   0.0022894
    5   0.0003110  -0.0139861  -0.0016676
    6   0.0003987   0.0175639   0.0049308
    7  -0.1078020   0.0376874  -0.1143467
    8   0.0377772  -0.0512939   0.0633524
    9  -0.1099044   0.0683550  -0.2666275
   10   0.0015076   0.0012250   0.0000109
   11  -0.0012254  -0.0002692   0.0003973
   12  -0.0000091   0.0003976   0.0007452
   13  -0.0028789  -0.0024400   0.0005649
   14   0.0024392   0.0009584  -0.0001109
   15   0.0005655   0.0001132   0.0003562
   16   0.0084224  -0.0048877  -0.0119163
   17  -0.0048857   0.0040593   0.0062384
   18   0.0119189  -0.0062426  -0.0153077
   19   0.1146663  -0.0422598   0.1207397
   20  -0.0422598   0.0590861  -0.0665773
   21   0.1207397  -0.0665773   0.2730310
 Writing REM_CC_EA            7
 ----------------------------------------------------
       Standard Nuclear Orientation (Angstroms)
    I     Atom         X            Y            Z
 ----------------------------------------------------
    1      C       0.740961     0.794054     0.000000
    2      S       0.000000    -0.834814     0.000000
    3      C      -0.740961     0.794054     0.000000
    4      H       1.248773     1.080669    -0.914612
    5      H       1.248773     1.080669     0.914612
    6      H      -1.248773     1.080669     0.914612
    7      H      -1.248773     1.080669    -0.914612
 ----------------------------------------------------
 Nuclear Repulsion Energy =   102.1880030631 hartrees
 There are       16 alpha and       16 beta electrons
 old dipole drv.
            1           2           3           4           5           6
    1  -0.0561173   0.0356695  -0.0000359  -0.0160432   0.0000842   0.0000002
    2  -0.0786261   0.2520274   0.0000653  -0.0000482  -0.5254035  -0.0000428
    3   0.0000001  -0.0000001   0.0642421   0.0000093  -0.0000013  -0.1573179
            7           8           9          10          11          12
    1  -0.0560975  -0.0356585   0.0000352   0.0320937  -0.0762287   0.0504668
    2   0.0785958   0.2519942   0.0000641  -0.0565819   0.0053175   0.0361924
    3  -0.0000540  -0.0000000   0.0642420   0.0241998   0.0344263   0.0070822
           13          14          15          16          17          18
    1   0.0319924  -0.0762280  -0.0504658   0.0321295   0.0763128   0.0504654
    2  -0.0565245   0.0053164  -0.0362428   0.0564493   0.0051552  -0.0362425
    3  -0.0243631  -0.0344262   0.0070855   0.0240965  -0.0343744   0.0070859
           19          20          21
    1   0.0319919   0.0763138  -0.0504675
    2   0.0565235   0.0051571   0.0361913
    3  -0.0243629   0.0343741   0.0070826
 New transposed dipole drv.
            1           2           3
    1  -0.0561173  -0.0786261   0.0000001
    2   0.0356695   0.2520274  -0.0000001
    3  -0.0000359   0.0000653   0.0642421
    4  -0.0160432  -0.0000482   0.0000093
    5   0.0000842  -0.5254035  -0.0000013
    6   0.0000002  -0.0000428  -0.1573179
    7  -0.0560975   0.0785958  -0.0000540
    8  -0.0356585   0.2519942  -0.0000000
    9   0.0000352   0.0000641   0.0642420
   10   0.0320937  -0.0565819   0.0241998
   11  -0.0762287   0.0053175   0.0344263
   12   0.0504668   0.0361924   0.0070822
   13   0.0319924  -0.0565245  -0.0243631
   14  -0.0762280   0.0053164  -0.0344262
   15  -0.0504658  -0.0362428   0.0070855
   16   0.0321295   0.0564493   0.0240965
   17   0.0763128   0.0051552  -0.0343744
   18   0.0504654  -0.0362425   0.0070859
   19   0.0319919   0.0565235  -0.0243629
   20   0.0763138   0.0051571   0.0343741
   21  -0.0504675   0.0361913   0.0070826
FINAL TENSOR RESULT:
Order 2, Length 21
Order 1, Length 21
   0.5510553   0.1526993   0.0000019  -0.0503384  -0.0925243  -0.0000013  -0.2613371   0.0246416   0.0000001  -0.1078054  -0.0376861   0.1143477  -0.1078030  -0.0376861  -0.1143472  -0.0118844  -0.0047269  -0.0026595  -0.0118802  -0.0047268   0.0026599
Order 1, Length 21
   0.1526993   0.2665577  -0.0000037  -0.0681895  -0.1297695   0.0000014  -0.0246416  -0.0370687  -0.0000026  -0.0377778  -0.0512959   0.0633521  -0.0377768  -0.0512959  -0.0633507   0.0078462   0.0014385   0.0016262   0.0078476   0.0014385  -0.0016253
Order 1, Length 21
   0.0000019  -0.0000037   0.6274389   0.0000055   0.0000043  -0.0314139  -0.0000014  -0.0000026  -0.0685246   0.1099002   0.0683601  -0.2666275  -0.1099061  -0.0683600  -0.2666092   0.0237092   0.0136113   0.0028589  -0.0237077  -0.0136093   0.0028752
Order 1, Length 21
  -0.0503384  -0.0681895   0.0000055   0.1088017  -0.0000004   0.0000033  -0.0503353   0.0681913  -0.0000119  -0.0020347  -0.0154042  -0.0022869  -0.0020344  -0.0154009   0.0022887  -0.0020343   0.0153993  -0.0022881  -0.0020339   0.0154034   0.0022894
Order 1, Length 21
  -0.0925243  -0.1297695   0.0000043  -0.0000004   0.3154894  -0.0000025   0.0925246  -0.1297684   0.0000044  -0.0003097  -0.0139874  -0.0016700  -0.0003090  -0.0139875   0.0016701   0.0003126  -0.0139861   0.0016677   0.0003110  -0.0139861  -0.0016676
Order 1, Length 21
  -0.0000013   0.0000014  -0.0314139   0.0000033  -0.0000025   0.0431098   0.0000051   0.0000014  -0.0314139  -0.0003972   0.0175622   0.0049308   0.0003984  -0.0175623   0.0049280  -0.0004020  -0.0175640   0.0049281   0.0003987   0.0175639   0.0049308
Order 1, Length 21
  -0.2613371  -0.0246416  -0.0000014  -0.0503353   0.0925246   0.0000051   0.5510449  -0.1527037  -0.0000032  -0.0118833   0.0047259  -0.0026597  -0.0118804   0.0047226   0.0026587  -0.1078045   0.0376841   0.1143457  -0.1078020   0.0376874  -0.1143467
Order 1, Length 21
   0.0246416  -0.0370687  -0.0000026   0.0681913  -0.1297684   0.0000014  -0.1527037   0.2665602  -0.0000037  -0.0078445   0.0014368  -0.0016254  -0.0078474   0.0014368   0.0016264   0.0377799  -0.0512938  -0.0633510   0.0377772  -0.0512939   0.0633524
Order 1, Length 21
   0.0000001  -0.0000026  -0.0685246  -0.0000119   0.0000044  -0.0314139  -0.0000032  -0.0000037   0.6274388   0.0237102  -0.0136147   0.0028752  -0.0237063   0.0136166   0.0028589   0.1099095  -0.0683550  -0.2666092  -0.1099044   0.0683550  -0.2666275
Order 1, Length 21
  -0.1078054  -0.0377778   0.1099002  -0.0020347  -0.0003097  -0.0003972  -0.0118833  -0.0078445   0.0237102   0.1146674   0.0422620  -0.1207402   0.0084221   0.0048878  -0.0119178  -0.0028754  -0.0024413  -0.0005676   0.0015076   0.0012250   0.0000109
Order 1, Length 21
  -0.0376861  -0.0512959   0.0683601  -0.0154042  -0.0139874   0.0175622   0.0047259   0.0014368  -0.0136147   0.0422620   0.0590879  -0.0665801   0.0048890   0.0040671  -0.0062387   0.0024394   0.0009584   0.0001145  -0.0012254  -0.0002692   0.0003973
Order 1, Length 21
   0.1143477   0.0633521  -0.2666275  -0.0022869  -0.0016700   0.0049308  -0.0026597  -0.0016254   0.0028752  -0.1207402  -0.0665801   0.2730310   0.0119188   0.0062344  -0.0153077  -0.0005662  -0.0001096   0.0003562  -0.0000091   0.0003976   0.0007452
Order 1, Length 21
  -0.1078030  -0.0377768  -0.1099061  -0.0020344  -0.0003090   0.0003984  -0.0118804  -0.0078474  -0.0237063   0.0084221   0.0048890   0.0119188   0.1146662   0.0422600   0.1207392   0.0015061   0.0012257  -0.0000094  -0.0028789  -0.0024400   0.0005649
Order 1, Length 21
  -0.0376861  -0.0512959  -0.0683600  -0.0154009  -0.0139875  -0.0175623   0.0047226   0.0014368   0.0136166   0.0048878   0.0040671   0.0062344   0.0422600   0.0590878   0.0665824  -0.0012250  -0.0002692  -0.0004016   0.0024392   0.0009584  -0.0001109
Order 1, Length 21
  -0.1143472  -0.0633507  -0.2666092   0.0022887   0.0016701   0.0049280   0.0026587   0.0016264   0.0028589  -0.0119178  -0.0062387  -0.0153077   0.1207392   0.0665824   0.2730293   0.0000096  -0.0004019   0.0007439   0.0005655   0.0001132   0.0003562
Order 1, Length 21
  -0.0118844   0.0078462   0.0237092  -0.0020343   0.0003126  -0.0004020  -0.1078045   0.0377799   0.1099095  -0.0028754   0.0024394  -0.0005662   0.0015061  -0.0012250   0.0000096   0.1146734  -0.0422613  -0.1207433   0.0084224  -0.0048877  -0.0119163
Order 1, Length 21
  -0.0047269   0.0014385   0.0136113   0.0153993  -0.0139861  -0.0175640   0.0376841  -0.0512938  -0.0683550  -0.0024413   0.0009584  -0.0001096   0.0012257  -0.0002692  -0.0004019  -0.0422613   0.0590861   0.0665796  -0.0048857   0.0040593   0.0062384
Order 1, Length 21
  -0.0026595   0.0016262   0.0028589  -0.0022881   0.0016677   0.0049281   0.1143457  -0.0633510  -0.2666092  -0.0005676   0.0001145   0.0003562  -0.0000094  -0.0004016   0.0007439  -0.1207433   0.0665796   0.2730293   0.0119189  -0.0062426  -0.0153077
Order 1, Length 21
  -0.0118802   0.0078476  -0.0237077  -0.0020339   0.0003110   0.0003987  -0.1078020   0.0377772  -0.1099044   0.0015076  -0.0012254  -0.0000091  -0.0028789   0.0024392   0.0005655   0.0084224  -0.0048857   0.0119189   0.1146663  -0.0422598   0.1207397
Order 1, Length 21
  -0.0047268   0.0014385  -0.0136093   0.0154034  -0.0139861   0.0175639   0.0376874  -0.0512939   0.0683550   0.0012250  -0.0002692   0.0003976  -0.0024400   0.0009584   0.0001132  -0.0048877   0.0040593  -0.0062426  -0.0422598   0.0590861  -0.0665773
Order 1, Length 21
   0.0026599  -0.0016253   0.0028752   0.0022894  -0.0016676   0.0049308  -0.1143467   0.0633524  -0.2666275   0.0000109   0.0003973   0.0007452   0.0005649  -0.0001109   0.0003562  -0.0119163   0.0062384  -0.0153077   0.1207397  -0.0665773   0.2730310


 # Finishing finite difference calculation for IDERIV #
 ######################################################
 ######################################################
 Requested basis set is G3large
 There are 63 shells and 190 basis functions
 **********************************************************************
 **                                                                  **
 **                       VIBRATIONAL ANALYSIS                       **
 **                       --------------------                       **
 **                                                                  **
 **        VIBRATIONAL FREQUENCIES (CM**-1) AND NORMAL MODES         **
 **     FORCE CONSTANTS (mDYN/ANGSTROM) AND REDUCED MASSES (AMU)     **
 **                  INFRARED INTENSITIES (KM/MOL)                   **
 **                                                                  **
 **********************************************************************
 

 Mode:                 1                      2                      3
 Frequency:       693.15                 756.35                 835.48
 Force Cnst:      2.8301                 1.8753                 0.4217
 Red. Mass:       9.9977                 5.5639                 1.0253
 IR Active:          YES                    YES                    YES
 IR Intens:       21.542                  1.844                  0.923
 Raman Active:       YES                    YES                    YES
               X      Y      Z        X      Y      Z        X      Y      Z
 C          0.178 -0.435  0.000    0.193  0.366  0.000    0.000  0.000  0.028
 S          0.000  0.365  0.000   -0.159  0.000  0.000    0.000  0.000  0.003
 C         -0.178 -0.435  0.000    0.193 -0.366  0.000    0.000  0.000  0.028
 H          0.107 -0.308 -0.001    0.111  0.379 -0.040   -0.448  0.107 -0.192
 H          0.107 -0.308  0.001    0.111  0.379  0.040    0.448 -0.107 -0.192
 H         -0.107 -0.308  0.001    0.111 -0.379 -0.040   -0.448 -0.107 -0.192
 H         -0.107 -0.308 -0.001    0.111 -0.379  0.040    0.449  0.107 -0.192
 TransDip   0.000 -0.149  0.000   -0.043  0.000  0.000    0.000  0.000 -0.031

 Mode:                 4                      5                      6
 Frequency:       905.44                 969.32                1045.24
 Force Cnst:      0.5228                 0.6347                 0.7361
 Red. Mass:       1.0823                 1.1466                 1.1435
 IR Active:          YES                    YES                    YES
 IR Intens:        0.000                  3.050                  1.686
 Raman Active:       YES                    YES                    YES
               X      Y      Z        X      Y      Z        X      Y      Z
 C          0.000  0.000  0.058    0.000  0.000 -0.066   -0.035 -0.070  0.000
 S          0.000  0.000  0.000    0.000  0.000  0.037    0.000  0.003  0.000
 C          0.000  0.000 -0.058    0.000  0.000 -0.067    0.035 -0.070  0.000
 H         -0.093 -0.470 -0.138    0.048  0.483  0.106   -0.300  0.396 -0.001
 H          0.093  0.470 -0.138   -0.048 -0.483  0.106   -0.300  0.396  0.001
 H          0.093 -0.470  0.138    0.048 -0.484  0.106    0.300  0.396  0.001
 H         -0.093  0.470  0.138   -0.048  0.484  0.106    0.300  0.396 -0.001
 TransDip   0.000  0.000  0.000    0.000  0.000  0.056    0.000  0.042  0.000

 Mode:                 7                      8                      9
 Frequency:      1091.27                1165.91                1181.53
 Force Cnst:      0.9139                 2.4277                 1.0609
 Red. Mass:       1.3026                 3.0313                 1.2899
 IR Active:          YES                    YES                    YES
 IR Intens:       22.263                  0.684                  0.000
 Raman Active:       YES                    YES                    YES
               X      Y      Z        X      Y      Z        X      Y      Z
 C          0.053 -0.102  0.000    0.294  0.019  0.000    0.000  0.000  0.113
 S         -0.013  0.000  0.000    0.000 -0.061  0.000    0.000  0.000  0.000
 C          0.053  0.102  0.000   -0.294  0.019  0.000    0.000  0.000 -0.113
 H         -0.214  0.444  0.017    0.254  0.371  0.060   -0.449  0.193 -0.072
 H         -0.214  0.444 -0.017    0.255  0.371 -0.060    0.448 -0.193 -0.072
 H         -0.213 -0.444  0.017   -0.255  0.370 -0.060    0.449  0.193  0.072
 H         -0.213 -0.444 -0.017   -0.255  0.370  0.060   -0.448 -0.193  0.072
 TransDip  -0.151  0.000  0.000    0.000 -0.026  0.000    0.000  0.000  0.000

 Mode:                10                     11                     12
 Frequency:      1458.60                1489.88                3143.95
 Force Cnst:      1.3612                 1.6169                 6.1118
 Red. Mass:       1.0859                 1.2363                 1.0495
 IR Active:          YES                    YES                    YES
 IR Intens:        2.628                  1.206                  7.910
 Raman Active:       YES                    YES                    YES
               X      Y      Z        X      Y      Z        X      Y      Z
 C         -0.057 -0.017  0.000    0.094  0.038  0.000   -0.038 -0.021  0.000
 S         -0.004  0.000  0.000    0.000 -0.006  0.000    0.000  0.000  0.000
 C         -0.057  0.017  0.000   -0.094  0.038  0.000   -0.038  0.021  0.000
 H          0.367  0.182  0.284   -0.349 -0.176 -0.303    0.227  0.125 -0.426
 H          0.367  0.182 -0.284   -0.349 -0.176  0.303    0.227  0.125  0.426
 H          0.367 -0.182  0.284    0.349 -0.176  0.303    0.227 -0.125 -0.427
 H          0.367 -0.182 -0.284    0.349 -0.176 -0.303    0.227 -0.125  0.427
 TransDip   0.052  0.000  0.000    0.000  0.035  0.000   -0.090  0.000  0.000

 Mode:                13                     14                     15
 Frequency:      3148.07                3228.02                3239.79
 Force Cnst:      6.1809                 6.8746                 6.9151
 Red. Mass:       1.0586                 1.1198                 1.1182
 IR Active:          YES                    YES                    YES
 IR Intens:       12.173                  0.000                  1.234
 Raman Active:       YES                    YES                    YES
               X      Y      Z        X      Y      Z        X      Y      Z
 C         -0.043 -0.022  0.000    0.000  0.000 -0.071    0.000  0.000 -0.071
 S          0.000  0.001  0.000    0.000  0.000  0.000    0.000  0.000  0.000
 C          0.043 -0.022  0.000    0.000  0.000  0.071    0.000  0.000 -0.071
 H          0.225  0.124 -0.428   -0.231 -0.130  0.421   -0.236 -0.127  0.419
 H          0.225  0.124  0.428    0.231  0.130  0.421    0.236  0.127  0.419
 H         -0.225  0.124  0.427    0.231 -0.130 -0.421   -0.236  0.127  0.419
 H         -0.225  0.124 -0.427   -0.231  0.130 -0.421    0.236 -0.127  0.419
 TransDip   0.000 -0.112  0.000    0.000  0.000  0.000    0.000  0.000 -0.036

 STANDARD THERMODYNAMIC QUANTITIES AT   298.18 K  AND     1.00 ATM

   This Molecule has  0 Imaginary Frequencies
   Zero point vibrational energy:       34.813 kcal/mol

   Atom    1 Element C  Has Mass   12.00000
   Atom    2 Element S  Has Mass   31.97207
   Atom    3 Element C  Has Mass   12.00000
   Atom    4 Element H  Has Mass    1.00783
   Atom    5 Element H  Has Mass    1.00783
   Atom    6 Element H  Has Mass    1.00783
   Atom    7 Element H  Has Mass    1.00783
   Molecular Mass:    60.003390 amu
   Principal axes and moments of inertia in atomic units:
                             1           2           3
    Eigenvalues --       81.54672   161.82489   219.28649
          X               0.00000     1.00000     0.00000
          Y               1.00000     0.00000     0.00000
          Z               0.00000     0.00000     1.00000
   Rotational Symmetry Number is   1
   The Molecule is an Asymmetric Top
   Translational Enthalpy:        0.889 kcal/mol
   Rotational Enthalpy:           0.889 kcal/mol
   Vibrational Enthalpy:         35.111 kcal/mol
   gas constant (RT):             0.593 kcal/mol
   Translational Entropy:        38.196  cal/mol.K
   Rotational Entropy:           22.586  cal/mol.K
   Vibrational Entropy:           1.244  cal/mol.K

   Total Enthalpy:               37.482 kcal/mol
   Total Entropy:                62.026  cal/mol.K
 Total job time:  7344.77s(wall), 7304.79s(cpu) 
 Fri Jul  5 02:08:17 2013

        *************************************************************
        *                                                           *
        *  Thank you very much for using Q-Chem.  Have a nice day.  *
        *                                                           *
        *************************************************************


0 sent ACK to 0 
now end server 0 ... 
