Process 0 of 1 is on cl122.stfx.acenet.ca - thread support 1
initial socket setup ...start
initial socket setup ...done 
now start server 0 ... 

cmd = /usr/bin/ssh clhead /usr/local/qchem/bin/get_hostid 403410279 > /scratch/tmp/6067092.1.short.q/qchem28131/lic.dat
                  Welcome to Q-Chem
     A Quantum Leap Into The Future Of Chemistry

 Y. Shao, L. Fusti-Molnar, Y. Jung, J. Kussmann, C. Ochsenfeld,
 S. T. Brown, A. T. B. Gilbert, L. V. Slipchenko,S. V. Levchenko,
 D. P. O'Neill, R. A. DiStasio Jr., R. C. Lochan, T. Wang,
 G. J. O. Beran, N. A. Besley, J. M. Herbert, C. Y. Lin,
 T. Van Voorhis, S. H. Chien, A. Sodt, R. P. Steele, 
 V. A. Rassolov, P. E. Maslen, P. P. Korambath, R. D. Adamson,
 B. Austin, J. Baker, E. F. C. Byrd, H. Dachsel, R. J. Doerksen,
 A. Dreuw, B. D. Dunietz, A. D. Dutoi, T. R. Furlani,
 S. R. Gwaltney, A. Heyden, S. Hirata, C.-P. Hsu, G. Kedziora,
 R. Z. Khaliullin, P. Klunzinger, A. M. Lee, M. S. Lee, W. Liang,
 I. Lotan, N. Nair, B. Peters, E. I. Proynov, P. A. Pieniazek, 
 Y. M. Rhee, J. Ritchie, E. Rosta, C. D. Sherrill, 
 A. C. Simmonett, J. E. Subotnik, H. L. Woodcock III,
 W. Zhang, A. T. Bell, A. K. Chakraborty, D. M. Chipman,
 F. J. Keil, A. Warshel, W. J. Hehre, H. F. Schaefer III,
 J. Kong, A. I. Krylov, P. M. W. Gill, M. Head-Gordon,
 Q-Chem, Version 3.1, Q-Chem, Inc., Pittsburgh, PA (2007).

 Additional authors for Version 3.1: 
 Z. Gan, Y. Zhao, N. E. Schultz, D. Truhlar, E. Epifanovsky and M. Oana.

 Additional authors for Version 3.2: 
 R. Baer, B. R. Brooks, D. Casanova, J.-D. Chai, C.-L. Cheng, 
 C. Cramer, D. Crittenden, A. Ghysels, G. Hawkins, E. G. Hohenstein, 
 C. Kelley, W. Kurlancheek, D. Liotard, E. Livshits, P. Manohar, 
 A. Marenich, D. Neuhauser, R. Olson, M. A. Rohrdanz, K. S. Thanthiriwatte, 
 A. J. W. Thom, V. Vanovschi, C. F. Williams, Q. Wu and Z.-Q. You. 


 Intel X86 Linux Version

 Q-chem begins on Wed Jul 24 15:58:51 2013  

 Parallel job on  1  processors
Processing $rem in /usr/local/qchem/config/preferences.

theFileMan(): MAXOPENFILES=974 MAX_SUB_FILE_NUM=16
Maximum size of a physical file is 2.0 GB, maximum size of a tmp-file is 32.0 GB


--------------------------------------------------------------
User input:
--------------------------------------------------------------

$molecule
0,1
N
N,1,r1
X,2,1.,1,90.
O,2,r2,3,90.,1,180.,0

 r1=1.13435115
 r2=1.1923951

$end


$comment
b3lyp opt
$end

$rem
   EXCHANGE B3LYP
   UNRESTRICTED TRUE
   SYMMETRY_DECOMPOSITION	0
   BASIS                   g3large
   JOBTYPE                 opt
   mem_static              760
   max_scf_cycles          200
   scf_final_print         1
   sym_ignore              true
$end


--------------------------------------------------------------
 Writing REM_CC_EA            3
 ----------------------------------------------------
       Standard Nuclear Orientation (Angstroms)
    I     Atom         X            Y            Z
 ----------------------------------------------------
    1      N       0.000000     0.000000     0.000000
    2      N       0.000000     0.000000     1.134351
    3      O       0.000000     0.000000     2.326746
 ----------------------------------------------------
 Nuclear Repulsion Energy =    60.4472482221 hartrees
 There are       11 alpha and       11 beta electrons
 Requested basis set is G3large
 There are 30 shells and 126 basis functions

Total QAlloc Memory Limit   2000 MB
Mega-Array Size       743 MB
MEM_STATIC part       760 MB
 A cutoff of  1.0D-11 yielded    440 shell pairs
 There are   7924 function pairs ( 10413 Cartesian)
Evaluating contribution to one-electron hamiltonian from nuclear
 Smallest overlap matrix eigenvalue = 5.07E-05
 Multipole matrices computed through 2nd order

  Scale SEOQF with 1.000000e-01/1.000000e-01/1.000000e-01

 Standard Electronic Orientation quadrupole field applied
 Nucleus-field energy     =    -0.0000000056 hartrees
 Guess from superposition of atomic densities
 Warning:  Energy on first SCF cycle will be non-variational
 An unrestricted hybrid HF-DFT SCF calculation will be
 performed using Pulay DIIS extrapolation
 Exchange:     0.2000 Hartree-Fock + 0.0800 Slater + 0.7200 Becke88
 Correlation:  0.8100 LYP + 0.1900 VWN1RPA
 Using SG-1 standard quadrature grid
 SCF converges when DIIS error is below 1.0E-08
 ---------------------------------------
  Cycle       Energy         DIIS Error
 ---------------------------------------
    1    -185.3213251995      4.63E-02
    2    -184.6662156091      6.94E-03
    3    -184.5029199966      1.31E-02
    4    -184.7285531961      1.55E-03
    5    -184.7272062724      1.80E-03
    6    -184.7322646449      8.55E-05
    7    -184.7322750386      2.12E-05
    8    -184.7322757317      2.96E-06
    9    -184.7322758008      9.43E-07
   10    -184.7322757332      1.53E-07
   11    -184.7322757372      3.35E-08
   12    -184.7322757367      4.83E-09 Convergence criterion met
 ---------------------------------------
 One-Electron    Energy =  -370.3922930062
 Total Coulomb   Energy =   147.4937202765
 Alpha Exchange  Energy =    -2.1261811120
 Beta  Exchange  Energy =    -2.1261811120
 DFT   Exchange  Energy =   -17.0210201188
 DFT Correlation Energy =    -1.0075688808
 Nuclear Repu.   Energy =    60.4472482165
 Nuclear Attr.   Energy =  -554.4604783229
 Kinetic         Energy =   184.0681853167
 <S^2> = 0.0000
 SCF time:  CPU 24.81 s  wall 31.10 s
 Final Alpha MO Eigenvalues
            1           2           3           4           5           6
    1 -19.2330669 -14.5504645 -14.4217723  -1.2496573  -1.0938612  -0.6160376
            7           8           9          10          11          12
    1  -0.5711648  -0.5711648  -0.4896130  -0.3544171  -0.3544171  -0.0349792
           13          14          15          16
    1  -0.0349792   0.0009853   0.0796302   0.0907281
 Final Beta MO Eigenvalues
            1           2           3           4           5           6
    1 -19.2330669 -14.5504645 -14.4217723  -1.2496573  -1.0938612  -0.6160376
            7           8           9          10          11          12
    1  -0.5711648  -0.5711648  -0.4896130  -0.3544171  -0.3544171  -0.0349792
           13          14          15          16
    1  -0.0349792   0.0009853   0.0796302   0.0907281
 Analysis of SCF Wavefunction
 
 --------------------------------------------------------------
                    Orbital Energies (a.u.)
 --------------------------------------------------------------
 
 Alpha MOs
 -- Occupied --
-19.233 -14.550 -14.422  -1.250  -1.094  -0.616  -0.571  -0.571
 -0.490  -0.354  -0.354
 -- Virtual --
 -0.035  -0.035   0.001   0.080   0.091   0.091   0.135   0.154
  0.154   0.161   0.227   0.255   0.255   0.314   0.349   0.574
  0.683   0.683   0.763   0.763   0.776   0.776   0.780   0.857
  1.002   1.030   1.030   1.049   1.078   1.078   1.123   1.123
  1.179   1.570   1.570   1.615   1.662   1.662   1.923   2.305
  2.305   2.518   2.643   3.197   3.197   3.241   3.241   3.371
  3.508   3.508   3.594   3.594   3.698   3.698   3.839   3.839
  4.115   4.291   4.291   4.381   4.381   4.518   4.565   4.565
  4.578   4.715   4.715   4.770   4.770   4.984   4.984   5.033
  5.033   5.303   5.541   5.541   5.682   5.826   5.826   6.683
  6.683   6.932   7.137   7.137   7.320   7.320   7.635   8.566
 35.459  36.068  37.267  37.267  37.646  37.646  38.390  39.251
 40.244  40.344  40.374  40.442  40.442  40.474  40.603  40.712
 40.712  41.491  43.589  43.646  43.774  43.774  44.018  45.753
 45.753  46.675  50.413
 
 Beta MOs
 -- Occupied --
-19.233 -14.550 -14.422  -1.250  -1.094  -0.616  -0.571  -0.571
 -0.490  -0.354  -0.354
 -- Virtual --
 -0.035  -0.035   0.001   0.080   0.091   0.091   0.135   0.154
  0.154   0.161   0.227   0.255   0.255   0.314   0.349   0.574
  0.683   0.683   0.763   0.763   0.776   0.776   0.780   0.857
  1.002   1.030   1.030   1.049   1.078   1.078   1.123   1.123
  1.179   1.570   1.570   1.615   1.662   1.662   1.923   2.305
  2.305   2.518   2.643   3.197   3.197   3.241   3.241   3.371
  3.508   3.508   3.594   3.594   3.698   3.698   3.839   3.839
  4.115   4.291   4.291   4.381   4.381   4.518   4.565   4.565
  4.578   4.715   4.715   4.770   4.770   4.984   4.984   5.033
  5.033   5.303   5.541   5.541   5.682   5.826   5.826   6.683
  6.683   6.932   7.137   7.137   7.320   7.320   7.635   8.566
 35.459  36.068  37.267  37.267  37.646  37.646  38.390  39.251
 40.244  40.344  40.374  40.442  40.442  40.474  40.603  40.712
 40.712  41.491  43.589  43.646  43.774  43.774  44.018  45.753
 45.753  46.675  50.413
 --------------------------------------------------------------
 
          Ground-State Mulliken Net Atomic Charges

     Atom                 Charge (a.u.)    Spin (a.u.)
  --------------------------------------------------------
      1 N                    -0.139064       0.000000
      2 N                     0.334896       0.000000
      3 O                    -0.195832       0.000000
  --------------------------------------------------------
  Sum of atomic charges =     0.000000
  Sum of spin   charges =     0.000000

 -----------------------------------------------------------------
                    Cartesian Multipole Moments
 -----------------------------------------------------------------
    Charge (ESU x 10^10)
                 0.0000
    Dipole Moment (Debye)
         X       0.0000      Y       0.0000      Z      -0.0932
       Tot       0.0932
    Quadrupole Moments (Debye-Ang)
        XX     -15.4124     XY       0.0000     YY     -15.4124
        XZ       0.0000     YZ       0.0000     ZZ     -19.4754
    Octapole Moments (Debye-Ang^2)
       XXX       0.0000    XXY       0.0000    XYY       0.0000
       YYY       0.0000    XXZ     -17.5471    XYZ       0.0000
       YYZ     -17.5471    XZZ       0.0000    YZZ       0.0000
       ZZZ     -64.8964
    Hexadecapole Moments (Debye-Ang^3)
      XXXX     -12.7374   XXXY       0.0000   XXYY      -4.2458
      XYYY       0.0000   YYYY     -12.7374   XXXZ       0.0000
      XXYZ       0.0000   XYYZ       0.0000   YYYZ       0.0000
      XXZZ     -39.8855   XYZZ       0.0000   YYZZ     -39.8855
      XZZZ       0.0000   YZZZ       0.0000   ZZZZ    -252.5721
 -----------------------------------------------------------------
 Calculating analytic gradient of the SCF energy
 Gradient of XC Energy
            1           2           3
    1  -0.0000000   0.0000000   0.0000000
    2  -0.0000000  -0.0000000   0.0000000
    3  -0.5859035   0.1261464   0.4597571
 Gradient of SCF Energy
            1           2           3
    1   0.0000000  -0.0000000   0.0000000
    2   0.0000000  -0.0000000   0.0000000
    3  -0.0324048   0.0175443   0.0148605
 Max gradient component =       3.240E-02
 RMS gradient           =       1.324E-02
 Gradient time:  CPU 10.35 s  wall 13.10 s
 Geometry Optimization Parameters
   NAtoms,    NIC,     NZ,  NCons,   NDum,   NFix, NCnnct, MaxDiis
        3       9       4       0       0       0       0       0


** GEOMETRY OPTIMIZATION IN DELOCALIZED INTERNAL COORDINATES **
   Searching for a Minimum

   Optimization Cycle:   1

                       Coordinates (Angstroms)
     ATOM              X           Y           Z
    1  N           0.000000    0.000000    0.000000
    2  N           0.000000    0.000000    1.134351
    3  O           0.000000    0.000000    2.326746
   Point Group: c1    Number of degrees of freedom:   3


   Energy is   -184.732275737


 Attempting to Generate Delocalized Internal Coordinates

  ***ERROR*** Angle     3    2    1   is near-linear
              But No atom available to define colinear bend
**WARNING** Problems with Internal Coordinates
  Switching to Cartesian Coordinates

 Translations and Rotations Projected Out of Hessian

  4 Hessian modes will be used to form the next step
  Hessian Eigenvalues:
     1.000000    1.000000    1.000000    1.000000

 Minimum Search - Taking Simple RFO Step
 Searching for Lamda that Minimizes Along All modes
 Value Taken    Lamda =  -0.00157622
 Step Taken.  Stepsize is  0.039670

                             Maximum     Tolerance    Cnvgd?
         Gradient           0.032405      0.000300      NO
         Displacement       0.032354      0.001200      NO
         Energy change     *********      0.000001      NO

 Writing REM_CC_EA            3
 ----------------------------------------------------
       Standard Nuclear Orientation (Angstroms)
    I     Atom         X            Y            Z
 ----------------------------------------------------
    1      N       0.000000     0.000000     0.017121
    2      N       0.000000     0.000000     1.125082
    3      O       0.000000     0.000000     2.318895
 ----------------------------------------------------
 Nuclear Repulsion Energy =    61.1003722340 hartrees
 There are       11 alpha and       11 beta electrons
 Applying Cartesian multipole field
    Component          Value
    ---------          -----
     (2,0,0)        1.00000E-11
     (0,2,0)        2.00000E-11
     (0,0,2)       -3.00000E-11
 Nucleus-field energy     =    -0.0000000056 hartrees
 Requested basis set is G3large
 There are 30 shells and 126 basis functions
 A cutoff of  1.0D-11 yielded    441 shell pairs
 There are   7928 function pairs ( 10417 Cartesian)
Evaluating contribution to one-electron hamiltonian from nuclear
 Smallest overlap matrix eigenvalue = 4.36E-05
 Multipole matrices computed through 2nd order
 Guess MOs from SCF MO coefficient file
Reading MOs from coefficient file
Reading MOs from coefficient file
 An unrestricted hybrid HF-DFT SCF calculation will be
 performed using Pulay DIIS extrapolation
 Exchange:     0.2000 Hartree-Fock + 0.0800 Slater + 0.7200 Becke88
 Correlation:  0.8100 LYP + 0.1900 VWN1RPA
 Using SG-1 standard quadrature grid
 SCF converges when DIIS error is below 1.0E-08
 Warning!  Inaccurate integrated density:
   Number of electrons =    22
   Numerical integral  =    22.026732703390
   Relative error      =     0.1215122881 %
 ---------------------------------------
  Cycle       Energy         DIIS Error
 ---------------------------------------
    1    -184.7409797581      2.06E-03
    2    -184.7316758108      6.50E-04
    3    -184.7293608861      1.43E-03
    4    -184.7322007690      3.05E-04
    5    -184.7323308094      8.12E-05
    6    -184.7323406136      9.89E-06
    7    -184.7323407435      1.50E-06
    8    -184.7323407942      4.39E-07
    9    -184.7323407710      3.24E-08
   10    -184.7323407661      3.83E-09 Convergence criterion met
 ---------------------------------------
 One-Electron    Energy =  -371.6611487997
 Total Coulomb   Energy =   148.1415132244
 Alpha Exchange  Energy =    -2.1300086545
 Beta  Exchange  Energy =    -2.1300086545
 DFT   Exchange  Energy =   -17.0441836971
 DFT Correlation Energy =    -1.0088764130
 Nuclear Repu.   Energy =    61.1003722285
 Nuclear Attr.   Energy =  -555.8637692669
 Kinetic         Energy =   184.2026204672
 <S^2> = 0.0000
 SCF time:  CPU 20.67 s  wall 25.17 s
 Final Alpha MO Eigenvalues
            1           2           3           4           5           6
    1 -19.2278721 -14.5475353 -14.4177171  -1.2518536  -1.1067247  -0.6118330
            7           8           9          10          11          12
    1  -0.5764764  -0.5764764  -0.4887850  -0.3553727  -0.3553727  -0.0259593
           13          14          15          16
    1  -0.0259593   0.0020128   0.0796657   0.0907601
 Final Beta MO Eigenvalues
            1           2           3           4           5           6
    1 -19.2278721 -14.5475353 -14.4177171  -1.2518536  -1.1067247  -0.6118330
            7           8           9          10          11          12
    1  -0.5764764  -0.5764764  -0.4887850  -0.3553727  -0.3553727  -0.0259593
           13          14          15          16
    1  -0.0259593   0.0020128   0.0796657   0.0907601
 Analysis of SCF Wavefunction
 
 --------------------------------------------------------------
                    Orbital Energies (a.u.)
 --------------------------------------------------------------
 
 Alpha MOs
 -- Occupied --
-19.228 -14.548 -14.418  -1.252  -1.107  -0.612  -0.576  -0.576
 -0.489  -0.355  -0.355
 -- Virtual --
 -0.026  -0.026   0.002   0.080   0.091   0.091   0.136   0.155
  0.155   0.167   0.228   0.257   0.257   0.317   0.350   0.577
  0.679   0.679   0.759   0.759   0.774   0.774   0.797   0.856
  1.016   1.037   1.037   1.058   1.087   1.087   1.128   1.128
  1.180   1.576   1.577   1.620   1.672   1.672   1.936   2.313
  2.313   2.518   2.663   3.207   3.207   3.227   3.227   3.346
  3.507   3.507   3.582   3.582   3.713   3.713   3.865   3.865
  4.156   4.309   4.309   4.367   4.367   4.538   4.566   4.572
  4.572   4.720   4.720   4.768   4.768   4.988   4.988   5.041
  5.041   5.338   5.562   5.562   5.688   5.914   5.914   6.688
  6.688   6.983   7.145   7.145   7.392   7.392   7.675   8.642
 35.427  36.190  37.286  37.286  37.673  37.673  38.398  39.396
 40.247  40.346  40.380  40.435  40.435  40.479  40.559  40.777
 40.777  41.612  43.595  43.651  43.781  43.781  44.034  45.761
 45.761  46.688  50.440
 
 Beta MOs
 -- Occupied --
-19.228 -14.548 -14.418  -1.252  -1.107  -0.612  -0.576  -0.576
 -0.489  -0.355  -0.355
 -- Virtual --
 -0.026  -0.026   0.002   0.080   0.091   0.091   0.136   0.155
  0.155   0.167   0.228   0.257   0.257   0.317   0.350   0.577
  0.679   0.679   0.759   0.759   0.774   0.774   0.797   0.856
  1.016   1.037   1.037   1.058   1.087   1.087   1.128   1.128
  1.180   1.576   1.577   1.620   1.672   1.672   1.936   2.313
  2.313   2.518   2.663   3.207   3.207   3.227   3.227   3.346
  3.507   3.507   3.582   3.582   3.713   3.713   3.865   3.865
  4.156   4.309   4.309   4.367   4.367   4.538   4.566   4.572
  4.572   4.720   4.720   4.768   4.768   4.988   4.988   5.041
  5.041   5.338   5.562   5.562   5.688   5.914   5.914   6.688
  6.688   6.983   7.145   7.145   7.392   7.392   7.675   8.642
 35.427  36.190  37.286  37.286  37.673  37.673  38.398  39.396
 40.247  40.346  40.380  40.435  40.435  40.479  40.559  40.777
 40.777  41.612  43.595  43.651  43.781  43.781  44.034  45.761
 45.761  46.688  50.440
 --------------------------------------------------------------
 
          Ground-State Mulliken Net Atomic Charges

     Atom                 Charge (a.u.)    Spin (a.u.)
  --------------------------------------------------------
      1 N                    -0.131505       0.000000
      2 N                     0.345473       0.000000
      3 O                    -0.213968       0.000000
  --------------------------------------------------------
  Sum of atomic charges =     0.000000
  Sum of spin   charges =     0.000000

 -----------------------------------------------------------------
                    Cartesian Multipole Moments
 -----------------------------------------------------------------
    Charge (ESU x 10^10)
                 0.0000
    Dipole Moment (Debye)
         X       0.0000      Y       0.0000      Z      -0.1964
       Tot       0.1964
    Quadrupole Moments (Debye-Ang)
        XX     -15.3336     XY       0.0000     YY     -15.3336
        XZ       0.0000     YZ       0.0000     ZZ     -19.7653
    Octapole Moments (Debye-Ang^2)
       XXX       0.0000    XXY       0.0000    XYY       0.0000
       YYY       0.0000    XXZ     -17.5854    XYZ       0.0000
       YYZ     -17.5854    XZZ       0.0000    YZZ       0.0000
       ZZZ     -65.6626
    Hexadecapole Moments (Debye-Ang^3)
      XXXX     -12.6012   XXXY       0.0000   XXYY      -4.2004
      XYYY       0.0000   YYYY     -12.6012   XXXZ       0.0000
      XXYZ       0.0000   XYYZ       0.0000   YYYZ       0.0000
      XXZZ     -39.7393   XYZZ       0.0000   YYZZ     -39.7393
      XZZZ       0.0000   YZZZ       0.0000   ZZZZ    -252.7490
 -----------------------------------------------------------------
 Calculating analytic gradient of the SCF energy
 Gradient of XC Energy
            1           2           3
    1  -0.0000000   0.0000000  -0.0000000
    2   0.0000000   0.0000000  -0.0000000
    3  -0.5899897   0.1335972   0.4563925
 Gradient of SCF Energy
            1           2           3
    1   0.0000000  -0.0000000   0.0000000
    2   0.0000000  -0.0000000   0.0000000
    3   0.0303663  -0.0431622   0.0127959
 Max gradient component =       4.316E-02
 RMS gradient           =       1.810E-02
 Gradient time:  CPU 10.70 s  wall 12.86 s
 Geometry Optimization Parameters
   NAtoms,    NIC,     NZ,  NCons,   NDum,   NFix, NCnnct, MaxDiis
        3       9       4       0       0       0       0       0

 Cartesian Hessian Update
 Hessian Updated using BFGS Update


** GEOMETRY OPTIMIZATION IN CARTESIAN COORDINATES **
   Searching for a Minimum

   Optimization Cycle:   2

                       Coordinates (Angstroms)
     ATOM              X           Y           Z
    1  N           0.000000    0.000000    0.017121
    2  N           0.000000    0.000000    1.125082
    3  O           0.000000    0.000000    2.318895
   Point Group: c1    Number of degrees of freedom:   3


   Energy is   -184.732340766


 Translations and Rotations Projected Out of Hessian

  2 Hessian modes will be used to form the next step
  Hessian Eigenvalues:
     0.733120    2.708485

 Minimum Search - Taking Simple RFO Step
 Searching for Lamda that Minimizes Along All modes
 Value Taken    Lamda =  -0.00113002
 Step Taken.  Stepsize is  0.021748

                             Maximum     Tolerance    Cnvgd?
         Gradient           0.043162      0.000300      NO
         Displacement       0.017719      0.001200      NO
         Energy change     -0.000065      0.000001      NO

 Writing REM_CC_EA            3
 ----------------------------------------------------
       Standard Nuclear Orientation (Angstroms)
    I     Atom         X            Y            Z
 ----------------------------------------------------
    1      N       0.000000     0.000000     0.012965
    2      N       0.000000     0.000000     1.134458
    3      O       0.000000     0.000000     2.313674
 ----------------------------------------------------
 Nuclear Repulsion Energy =    61.1312371576 hartrees
 There are       11 alpha and       11 beta electrons
 Applying Cartesian multipole field
    Component          Value
    ---------          -----
     (2,0,0)        1.00000E-11
     (0,2,0)        2.00000E-11
     (0,0,2)       -3.00000E-11
 Nucleus-field energy     =    -0.0000000056 hartrees
 Requested basis set is G3large
 There are 30 shells and 126 basis functions
 A cutoff of  1.0D-11 yielded    441 shell pairs
 There are   7928 function pairs ( 10417 Cartesian)
Evaluating contribution to one-electron hamiltonian from nuclear
 Smallest overlap matrix eigenvalue = 4.67E-05
 Multipole matrices computed through 2nd order
 Guess MOs from SCF MO coefficient file
Reading MOs from coefficient file
Reading MOs from coefficient file
 An unrestricted hybrid HF-DFT SCF calculation will be
 performed using Pulay DIIS extrapolation
 Exchange:     0.2000 Hartree-Fock + 0.0800 Slater + 0.7200 Becke88
 Correlation:  0.8100 LYP + 0.1900 VWN1RPA
 Using SG-1 standard quadrature grid
 SCF converges when DIIS error is below 1.0E-08
 ---------------------------------------
  Cycle       Energy         DIIS Error
 ---------------------------------------
    1    -184.7397002097      1.54E-03
    2    -184.7321661982      6.28E-04
    3    -184.7286241359      1.63E-03
    4    -184.7327983101      6.13E-05
    5    -184.7328001504      4.43E-05
    6    -184.7328027297      5.00E-06
    7    -184.7328027647      1.43E-06
    8    -184.7328027035      5.14E-07
    9    -184.7328027370      1.24E-08
   10    -184.7328027380      2.20E-09 Convergence criterion met
 ---------------------------------------
 One-Electron    Energy =  -371.7113918816
 Total Coulomb   Energy =   148.1563898587
 Alpha Exchange  Energy =    -2.1294149624
 Beta  Exchange  Energy =    -2.1294149624
 DFT   Exchange  Energy =   -17.0413815251
 DFT Correlation Energy =    -1.0088264173
 Nuclear Repu.   Energy =    61.1312371521
 Nuclear Attr.   Energy =  -555.8910090595
 Kinetic         Energy =   184.1796171778
 <S^2> = 0.0000
 SCF time:  CPU 20.30 s  wall 24.64 s
 Final Alpha MO Eigenvalues
            1           2           3           4           5           6
    1 -19.2312224 -14.5487958 -14.4163993  -1.2594887  -1.1015642  -0.6143969
            7           8           9          10          11          12
    1  -0.5774164  -0.5774164  -0.4872740  -0.3546564  -0.3546564  -0.0273043
           13          14          15          16
    1  -0.0273043   0.0024730   0.0801633   0.0909668
 Final Beta MO Eigenvalues
            1           2           3           4           5           6
    1 -19.2312224 -14.5487958 -14.4163993  -1.2594887  -1.1015642  -0.6143969
            7           8           9          10          11          12
    1  -0.5774164  -0.5774164  -0.4872740  -0.3546564  -0.3546564  -0.0273043
           13          14          15          16
    1  -0.0273043   0.0024730   0.0801633   0.0909668
 Analysis of SCF Wavefunction
 
 --------------------------------------------------------------
                    Orbital Energies (a.u.)
 --------------------------------------------------------------
 
 Alpha MOs
 -- Occupied --
-19.231 -14.549 -14.416  -1.259  -1.102  -0.614  -0.577  -0.577
 -0.487  -0.355  -0.355
 -- Virtual --
 -0.027  -0.027   0.002   0.080   0.091   0.091   0.135   0.154
  0.154   0.173   0.227   0.257   0.257   0.317   0.351   0.579
  0.681   0.681   0.761   0.761   0.775   0.775   0.789   0.859
  1.006   1.035   1.035   1.059   1.084   1.084   1.124   1.124
  1.179   1.577   1.577   1.621   1.675   1.675   1.930   2.318
  2.318   2.523   2.674   3.206   3.206   3.234   3.234   3.353
  3.507   3.507   3.589   3.589   3.705   3.705   3.863   3.863
  4.142   4.296   4.296   4.362   4.362   4.538   4.570   4.570
  4.574   4.720   4.721   4.771   4.771   4.985   4.985   5.047
  5.047   5.335   5.578   5.578   5.705   5.893   5.893   6.684
  6.685   6.959   7.145   7.145   7.412   7.412   7.672   8.652
 35.474  36.133  37.285  37.285  37.665  37.665  38.402  39.332
 40.246  40.345  40.380  40.447  40.447  40.480  40.604  40.745
 40.745  41.560  43.591  43.648  43.783  43.783  44.050  45.772
 45.772  46.681  50.486
 
 Beta MOs
 -- Occupied --
-19.231 -14.549 -14.416  -1.259  -1.102  -0.614  -0.577  -0.577
 -0.487  -0.355  -0.355
 -- Virtual --
 -0.027  -0.027   0.002   0.080   0.091   0.091   0.135   0.154
  0.154   0.173   0.227   0.257   0.257   0.317   0.351   0.579
  0.681   0.681   0.761   0.761   0.775   0.775   0.789   0.859
  1.006   1.035   1.035   1.059   1.084   1.084   1.124   1.124
  1.179   1.577   1.577   1.621   1.675   1.675   1.930   2.318
  2.318   2.523   2.674   3.206   3.206   3.234   3.234   3.353
  3.507   3.507   3.589   3.589   3.705   3.705   3.863   3.863
  4.142   4.296   4.296   4.362   4.362   4.538   4.570   4.570
  4.574   4.720   4.721   4.771   4.771   4.985   4.985   5.047
  5.047   5.335   5.578   5.578   5.705   5.893   5.893   6.684
  6.685   6.959   7.145   7.145   7.412   7.412   7.672   8.652
 35.474  36.133  37.285  37.285  37.665  37.665  38.402  39.332
 40.246  40.345  40.380  40.447  40.447  40.480  40.604  40.745
 40.745  41.560  43.591  43.648  43.783  43.783  44.050  45.772
 45.772  46.681  50.486
 --------------------------------------------------------------
 
          Ground-State Mulliken Net Atomic Charges

     Atom                 Charge (a.u.)    Spin (a.u.)
  --------------------------------------------------------
      1 N                    -0.141799       0.000000
      2 N                     0.348995       0.000000
      3 O                    -0.207196       0.000000
  --------------------------------------------------------
  Sum of atomic charges =     0.000000
  Sum of spin   charges =     0.000000

 -----------------------------------------------------------------
                    Cartesian Multipole Moments
 -----------------------------------------------------------------
    Charge (ESU x 10^10)
                 0.0000
    Dipole Moment (Debye)
         X       0.0000      Y       0.0000      Z      -0.0518
       Tot       0.0518
    Quadrupole Moments (Debye-Ang)
        XX     -15.3467     XY       0.0000     YY     -15.3467
        XZ       0.0000     YZ       0.0000     ZZ     -19.4282
    Octapole Moments (Debye-Ang^2)
       XXX       0.0000    XXY       0.0000    XYY       0.0000
       YYY       0.0000    XXZ     -17.4548    XYZ       0.0000
       YYZ     -17.4548    XZZ       0.0000    YZZ       0.0000
       ZZZ     -64.8276
    Hexadecapole Moments (Debye-Ang^3)
      XXXX     -12.6335   XXXY       0.0000   XXYY      -4.2111
      XYYY       0.0000   YYYY     -12.6335   XXXZ       0.0000
      XXYZ       0.0000   XYYZ       0.0000   YYYZ       0.0000
      XXZZ     -39.4115   XYZZ       0.0000   YYZZ     -39.4115
      XZZZ       0.0000   YZZZ       0.0000   ZZZZ    -250.6699
 -----------------------------------------------------------------
 Calculating analytic gradient of the SCF energy
 Gradient of XC Energy
            1           2           3
    1   0.0000000  -0.0000000   0.0000000
    2   0.0000000   0.0000000  -0.0000000
    3  -0.5847966   0.1217642   0.4630324
 Gradient of SCF Energy
            1           2           3
    1  -0.0000000   0.0000000  -0.0000000
    2  -0.0000000   0.0000000  -0.0000000
    3  -0.0012437   0.0074504  -0.0062067
 Max gradient component =       7.450E-03
 RMS gradient           =       3.259E-03
 Gradient time:  CPU 10.37 s  wall 12.47 s
 Geometry Optimization Parameters
   NAtoms,    NIC,     NZ,  NCons,   NDum,   NFix, NCnnct, MaxDiis
        3       9       4       0       0       0       0       0

 Cartesian Hessian Update
 Hessian Updated using BFGS Update


** GEOMETRY OPTIMIZATION IN CARTESIAN COORDINATES **
   Searching for a Minimum

   Optimization Cycle:   3

                       Coordinates (Angstroms)
     ATOM              X           Y           Z
    1  N           0.000000    0.000000    0.012965
    2  N           0.000000    0.000000    1.134458
    3  O           0.000000    0.000000    2.313674
   Point Group: c1    Number of degrees of freedom:   3


   Energy is   -184.732802738


 Translations and Rotations Projected Out of Hessian

  2 Hessian modes will be used to form the next step
  Hessian Eigenvalues:
     0.783366    2.991778

 Minimum Search - Taking Simple RFO Step
 Searching for Lamda that Minimizes Along All modes
 Value Taken    Lamda =  -0.00005954
 Step Taken.  Stepsize is  0.007424

                             Maximum     Tolerance    Cnvgd?
         Gradient           0.007450      0.000300      NO
         Displacement       0.006046      0.001200      NO
         Energy change     -0.000462      0.000001      NO

 Writing REM_CC_EA            3
 ----------------------------------------------------
       Standard Nuclear Orientation (Angstroms)
    I     Atom         X            Y            Z
 ----------------------------------------------------
    1      N       0.000000     0.000000     0.011563
    2      N       0.000000     0.000000     1.132661
    3      O       0.000000     0.000000     2.316873
 ----------------------------------------------------
 Nuclear Repulsion Energy =    61.0076357382 hartrees
 There are       11 alpha and       11 beta electrons
 Applying Cartesian multipole field
    Component          Value
    ---------          -----
     (2,0,0)        1.00000E-11
     (0,2,0)        2.00000E-11
     (0,0,2)       -3.00000E-11
 Nucleus-field energy     =    -0.0000000056 hartrees
 Requested basis set is G3large
 There are 30 shells and 126 basis functions
 A cutoff of  1.0D-11 yielded    441 shell pairs
 There are   7928 function pairs ( 10417 Cartesian)
Evaluating contribution to one-electron hamiltonian from nuclear
 Smallest overlap matrix eigenvalue = 4.67E-05
 Multipole matrices computed through 2nd order
 Guess MOs from SCF MO coefficient file
Reading MOs from coefficient file
Reading MOs from coefficient file
 An unrestricted hybrid HF-DFT SCF calculation will be
 performed using Pulay DIIS extrapolation
 Exchange:     0.2000 Hartree-Fock + 0.0800 Slater + 0.7200 Becke88
 Correlation:  0.8100 LYP + 0.1900 VWN1RPA
 Using SG-1 standard quadrature grid
 SCF converges when DIIS error is below 1.0E-08
 ---------------------------------------
  Cycle       Energy         DIIS Error
 ---------------------------------------
    1    -184.7300246067      3.51E-04
    2    -184.7327779321      1.77E-04
    3    -184.7325888011      3.91E-04
    4    -184.7328239147      4.64E-05
    5    -184.7328264932      1.75E-05
    6    -184.7328268649      1.54E-06
    7    -184.7328269154      3.79E-07
    8    -184.7328268588      1.39E-07
    9    -184.7328268580      3.63E-09 Convergence criterion met
 ---------------------------------------
 One-Electron    Energy =  -371.4752631658
 Total Coulomb   Energy =   148.0397088054
 Alpha Exchange  Energy =    -2.1289652930
 Beta  Exchange  Energy =    -2.1289652930
 DFT   Exchange  Energy =   -17.0383574774
 DFT Correlation Energy =    -1.0086201671
 Nuclear Repu.   Energy =    61.0076357327
 Nuclear Attr.   Energy =  -555.6392415391
 Kinetic         Energy =   184.1639783733
 <S^2> = 0.0000
 SCF time:  CPU 18.30 s  wall 22.45 s
 Final Alpha MO Eigenvalues
            1           2           3           4           5           6
    1 -19.2308995 -14.5488576 -14.4175771  -1.2562384  -1.1013473  -0.6141762
            7           8           9          10          11          12
    1  -0.5761132  -0.5761132  -0.4879571  -0.3547856  -0.3547856  -0.0283754
           13          14          15          16
    1  -0.0283754   0.0021538   0.0799849   0.0908828
 Final Beta MO Eigenvalues
            1           2           3           4           5           6
    1 -19.2308995 -14.5488576 -14.4175771  -1.2562384  -1.1013473  -0.6141762
            7           8           9          10          11          12
    1  -0.5761132  -0.5761132  -0.4879571  -0.3547856  -0.3547856  -0.0283754
           13          14          15          16
    1  -0.0283754   0.0021538   0.0799849   0.0908828
 Analysis of SCF Wavefunction
 
 --------------------------------------------------------------
                    Orbital Energies (a.u.)
 --------------------------------------------------------------
 
 Alpha MOs
 -- Occupied --
-19.231 -14.549 -14.418  -1.256  -1.101  -0.614  -0.576  -0.576
 -0.488  -0.355  -0.355
 -- Virtual --
 -0.028  -0.028   0.002   0.080   0.091   0.091   0.135   0.154
  0.154   0.170   0.227   0.256   0.256   0.317   0.350   0.578
  0.681   0.681   0.761   0.761   0.775   0.775   0.789   0.858
  1.008   1.035   1.035   1.057   1.084   1.084   1.125   1.125
  1.179   1.576   1.576   1.620   1.672   1.672   1.930   2.315
  2.315   2.521   2.667   3.205   3.205   3.234   3.234   3.354
  3.507   3.507   3.588   3.588   3.705   3.705   3.859   3.859
  4.140   4.298   4.298   4.366   4.366   4.537   4.569   4.569
  4.571   4.719   4.720   4.770   4.770   4.986   4.986   5.043
  5.043   5.330   5.569   5.569   5.698   5.886   5.886   6.685
  6.685   6.959   7.144   7.144   7.392   7.392   7.666   8.635
 35.462  36.132  37.282  37.282  37.664  37.664  38.401  39.329
 40.246  40.345  40.379  40.444  40.444  40.479  40.595  40.745
 40.745  41.558  43.592  43.648  43.781  43.781  44.041  45.767
 45.767  46.681  50.465
 
 Beta MOs
 -- Occupied --
-19.231 -14.549 -14.418  -1.256  -1.101  -0.614  -0.576  -0.576
 -0.488  -0.355  -0.355
 -- Virtual --
 -0.028  -0.028   0.002   0.080   0.091   0.091   0.135   0.154
  0.154   0.170   0.227   0.256   0.256   0.317   0.350   0.578
  0.681   0.681   0.761   0.761   0.775   0.775   0.789   0.858
  1.008   1.035   1.035   1.057   1.084   1.084   1.125   1.125
  1.179   1.576   1.576   1.620   1.672   1.672   1.930   2.315
  2.315   2.521   2.667   3.205   3.205   3.234   3.234   3.354
  3.507   3.507   3.588   3.588   3.705   3.705   3.859   3.859
  4.140   4.298   4.298   4.366   4.366   4.537   4.569   4.569
  4.571   4.719   4.720   4.770   4.770   4.986   4.986   5.043
  5.043   5.330   5.569   5.569   5.698   5.886   5.886   6.685
  6.685   6.959   7.144   7.144   7.392   7.392   7.666   8.635
 35.462  36.132  37.282  37.282  37.664  37.664  38.401  39.329
 40.246  40.345  40.379  40.444  40.444  40.479  40.595  40.745
 40.745  41.558  43.592  43.648  43.781  43.781  44.041  45.767
 45.767  46.681  50.465
 --------------------------------------------------------------
 
          Ground-State Mulliken Net Atomic Charges

     Atom                 Charge (a.u.)    Spin (a.u.)
  --------------------------------------------------------
      1 N                    -0.139270       0.000000
      2 N                     0.345884       0.000000
      3 O                    -0.206614       0.000000
  --------------------------------------------------------
  Sum of atomic charges =     0.000000
  Sum of spin   charges =     0.000000

 -----------------------------------------------------------------
                    Cartesian Multipole Moments
 -----------------------------------------------------------------
    Charge (ESU x 10^10)
                 0.0000
    Dipole Moment (Debye)
         X       0.0000      Y       0.0000      Z      -0.0864
       Tot       0.0864
    Quadrupole Moments (Debye-Ang)
        XX     -15.3553     XY       0.0000     YY     -15.3553
        XZ       0.0000     YZ       0.0000     ZZ     -19.5010
    Octapole Moments (Debye-Ang^2)
       XXX       0.0000    XXY       0.0000    XYY       0.0000
       YYY       0.0000    XXZ     -17.4953    XYZ       0.0000
       YYZ     -17.4953    XZZ       0.0000    YZZ       0.0000
       ZZZ     -65.0002
    Hexadecapole Moments (Debye-Ang^3)
      XXXX     -12.6444   XXXY       0.0000   XXYY      -4.2148
      XYYY       0.0000   YYYY     -12.6444   XXXZ       0.0000
      XXYZ       0.0000   XYYZ       0.0000   YYYZ       0.0000
      XXZZ     -39.5534   XYZZ       0.0000   YYZZ     -39.5534
      XZZZ       0.0000   YZZZ       0.0000   ZZZZ    -251.3918
 -----------------------------------------------------------------
 Calculating analytic gradient of the SCF energy
 Gradient of XC Energy
            1           2           3
    1  -0.0000000  -0.0000000   0.0000000
    2  -0.0000000  -0.0000000   0.0000000
    3  -0.5860481   0.1247249   0.4613232
 Gradient of SCF Energy
            1           2           3
    1   0.0000000   0.0000000  -0.0000000
    2  -0.0000000   0.0000000  -0.0000000
    3  -0.0010687  -0.0001658   0.0012346
 Max gradient component =       1.235E-03
 RMS gradient           =       5.471E-04
 Gradient time:  CPU 10.37 s  wall 12.47 s
 Geometry Optimization Parameters
   NAtoms,    NIC,     NZ,  NCons,   NDum,   NFix, NCnnct, MaxDiis
        3       9       4       0       0       0       0       0

 Cartesian Hessian Update
 Hessian Updated using BFGS Update


** GEOMETRY OPTIMIZATION IN CARTESIAN COORDINATES **
   Searching for a Minimum

   Optimization Cycle:   4

                       Coordinates (Angstroms)
     ATOM              X           Y           Z
    1  N           0.000000    0.000000    0.011563
    2  N           0.000000    0.000000    1.132661
    3  O           0.000000    0.000000    2.316873
   Point Group: c1    Number of degrees of freedom:   3


   Energy is   -184.732826858


 Translations and Rotations Projected Out of Hessian

  2 Hessian modes will be used to form the next step
  Hessian Eigenvalues:
     0.994687    2.786128

 Minimum Search - Taking Simple RFO Step
 Searching for Lamda that Minimizes Along All modes
 Value Taken    Lamda =  -0.00000270
 Step Taken.  Stepsize is  0.001647

                             Maximum     Tolerance    Cnvgd?
         Gradient           0.001235      0.000300      NO
         Displacement       0.001259      0.001200      NO
         Energy change     -0.000024      0.000001      NO

 Writing REM_CC_EA            3
 ----------------------------------------------------
       Standard Nuclear Orientation (Angstroms)
    I     Atom         X            Y            Z
 ----------------------------------------------------
    1      N       0.000000     0.000000     0.012113
    2      N       0.000000     0.000000     1.132777
    3      O       0.000000     0.000000     2.316207
 ----------------------------------------------------
 Nuclear Repulsion Energy =    61.0399186701 hartrees
 There are       11 alpha and       11 beta electrons
 Applying Cartesian multipole field
    Component          Value
    ---------          -----
     (2,0,0)        1.00000E-11
     (0,2,0)        2.00000E-11
     (0,0,2)       -3.00000E-11
 Nucleus-field energy     =    -0.0000000056 hartrees
 Requested basis set is G3large
 There are 30 shells and 126 basis functions
 A cutoff of  1.0D-11 yielded    441 shell pairs
 There are   7928 function pairs ( 10417 Cartesian)
Evaluating contribution to one-electron hamiltonian from nuclear
 Smallest overlap matrix eigenvalue = 4.66E-05
 Multipole matrices computed through 2nd order
 Guess MOs from SCF MO coefficient file
Reading MOs from coefficient file
Reading MOs from coefficient file
 An unrestricted hybrid HF-DFT SCF calculation will be
 performed using Pulay DIIS extrapolation
 Exchange:     0.2000 Hartree-Fock + 0.0800 Slater + 0.7200 Becke88
 Correlation:  0.8100 LYP + 0.1900 VWN1RPA
 Using SG-1 standard quadrature grid
 SCF converges when DIIS error is below 1.0E-08
 ---------------------------------------
  Cycle       Energy         DIIS Error
 ---------------------------------------
    1    -184.7334186334      6.09E-05
    2    -184.7328269638      2.85E-05
    3    -184.7328238312      5.37E-05
    4    -184.7328279237      1.34E-05
    5    -184.7328281062      2.55E-06
    6    -184.7328280803      3.56E-07
    7    -184.7328281153      4.64E-08
    8    -184.7328281223      1.26E-08
    9    -184.7328281221      9.56E-10 Convergence criterion met
 ---------------------------------------
 One-Electron    Energy =  -371.5373575996
 Total Coulomb   Energy =   148.0707883129
 Alpha Exchange  Energy =    -2.1291095762
 Beta  Exchange  Energy =    -2.1291095762
 DFT   Exchange  Energy =   -17.0392802088
 DFT Correlation Energy =    -1.0086781386
 Nuclear Repu.   Energy =    61.0399186645
 Nuclear Attr.   Energy =  -555.7063680397
 Kinetic         Energy =   184.1690104401
 <S^2> = 0.0000
 SCF time:  CPU 17.85 s  wall 22.27 s
 Final Alpha MO Eigenvalues
            1           2           3           4           5           6
    1 -19.2308525 -14.5487928 -14.4173109  -1.2567894  -1.1016392  -0.6141311
            7           8           9          10          11          12
    1  -0.5764179  -0.5764179  -0.4878308  -0.3547869  -0.3547869  -0.0280333
           13          14          15          16
    1  -0.0280333   0.0022253   0.0800145   0.0908979
 Final Beta MO Eigenvalues
            1           2           3           4           5           6
    1 -19.2308525 -14.5487928 -14.4173109  -1.2567894  -1.1016392  -0.6141311
            7           8           9          10          11          12
    1  -0.5764179  -0.5764179  -0.4878308  -0.3547869  -0.3547869  -0.0280333
           13          14          15          16
    1  -0.0280333   0.0022253   0.0800145   0.0908979
 Analysis of SCF Wavefunction
 
 --------------------------------------------------------------
                    Orbital Energies (a.u.)
 --------------------------------------------------------------
 
 Alpha MOs
 -- Occupied --
-19.231 -14.549 -14.417  -1.257  -1.102  -0.614  -0.576  -0.576
 -0.488  -0.355  -0.355
 -- Virtual --
 -0.028  -0.028   0.002   0.080   0.091   0.091   0.135   0.154
  0.154   0.171   0.227   0.257   0.257   0.317   0.350   0.578
  0.681   0.681   0.761   0.761   0.775   0.775   0.789   0.858
  1.008   1.035   1.035   1.057   1.084   1.084   1.125   1.125
  1.179   1.576   1.576   1.620   1.673   1.673   1.930   2.316
  2.316   2.522   2.668   3.205   3.205   3.234   3.234   3.354
  3.507   3.507   3.588   3.588   3.706   3.706   3.860   3.860
  4.141   4.298   4.298   4.365   4.365   4.538   4.569   4.570
  4.571   4.720   4.720   4.770   4.770   4.986   4.986   5.044
  5.044   5.332   5.571   5.571   5.699   5.889   5.889   6.685
  6.685   6.960   7.144   7.144   7.397   7.397   7.668   8.639
 35.463  36.135  37.283  37.283  37.664  37.664  38.401  39.332
 40.246  40.345  40.379  40.444  40.444  40.479  40.596  40.747
 40.747  41.561  43.592  43.648  43.781  43.781  44.043  45.768
 45.768  46.681  50.469
 
 Beta MOs
 -- Occupied --
-19.231 -14.549 -14.417  -1.257  -1.102  -0.614  -0.576  -0.576
 -0.488  -0.355  -0.355
 -- Virtual --
 -0.028  -0.028   0.002   0.080   0.091   0.091   0.135   0.154
  0.154   0.171   0.227   0.257   0.257   0.317   0.350   0.578
  0.681   0.681   0.761   0.761   0.775   0.775   0.789   0.858
  1.008   1.035   1.035   1.057   1.084   1.084   1.125   1.125
  1.179   1.576   1.576   1.620   1.673   1.673   1.930   2.316
  2.316   2.522   2.668   3.205   3.205   3.234   3.234   3.354
  3.507   3.507   3.588   3.588   3.706   3.706   3.860   3.860
  4.141   4.298   4.298   4.365   4.365   4.538   4.569   4.570
  4.571   4.720   4.720   4.770   4.770   4.986   4.986   5.044
  5.044   5.332   5.571   5.571   5.699   5.889   5.889   6.685
  6.685   6.960   7.144   7.144   7.397   7.397   7.668   8.639
 35.463  36.135  37.283  37.283  37.664  37.664  38.401  39.332
 40.246  40.345  40.379  40.444  40.444  40.479  40.596  40.747
 40.747  41.561  43.592  43.648  43.781  43.781  44.043  45.768
 45.768  46.681  50.469
 --------------------------------------------------------------
 
          Ground-State Mulliken Net Atomic Charges

     Atom                 Charge (a.u.)    Spin (a.u.)
  --------------------------------------------------------
      1 N                    -0.139535       0.000000
      2 N                     0.346593       0.000000
      3 O                    -0.207058       0.000000
  --------------------------------------------------------
  Sum of atomic charges =     0.000000
  Sum of spin   charges =     0.000000

 -----------------------------------------------------------------
                    Cartesian Multipole Moments
 -----------------------------------------------------------------
    Charge (ESU x 10^10)
                 0.0000
    Dipole Moment (Debye)
         X       0.0000      Y       0.0000      Z      -0.0828
       Tot       0.0828
    Quadrupole Moments (Debye-Ang)
        XX     -15.3524     XY       0.0000     YY     -15.3524
        XZ       0.0000     YZ       0.0000     ZZ     -19.4948
    Octapole Moments (Debye-Ang^2)
       XXX       0.0000    XXY       0.0000    XYY       0.0000
       YYY       0.0000    XXZ     -17.4895    XYZ       0.0000
       YYZ     -17.4895    XZZ       0.0000    YZZ       0.0000
       ZZZ     -64.9870
    Hexadecapole Moments (Debye-Ang^3)
      XXXX     -12.6400   XXXY       0.0000   XXYY      -4.2133
      XYYY       0.0000   YYYY     -12.6400   XXXZ       0.0000
      XXYZ       0.0000   XYYZ       0.0000   YYYZ       0.0000
      XXZZ     -39.5277   XYZZ       0.0000   YYZZ     -39.5277
      XZZZ       0.0000   YZZZ       0.0000   ZZZZ    -251.2791
 -----------------------------------------------------------------
 Calculating analytic gradient of the SCF energy
 Gradient of XC Energy
            1           2           3
    1   0.0000000  -0.0000000   0.0000000
    2   0.0000000  -0.0000000   0.0000000
    3  -0.5859161   0.1243763   0.4615399
 Gradient of SCF Energy
            1           2           3
    1   0.0000000   0.0000000  -0.0000000
    2   0.0000000  -0.0000000  -0.0000000
    3   0.0000882  -0.0001018   0.0000135
 Max gradient component =       1.018E-04
 RMS gradient           =       4.513E-05
 Gradient time:  CPU 10.72 s  wall 12.88 s
 Geometry Optimization Parameters
   NAtoms,    NIC,     NZ,  NCons,   NDum,   NFix, NCnnct, MaxDiis
        3       9       4       0       0       0       0       0

 Cartesian Hessian Update
 Hessian Updated using BFGS Update


** GEOMETRY OPTIMIZATION IN CARTESIAN COORDINATES **
   Searching for a Minimum

   Optimization Cycle:   5

                       Coordinates (Angstroms)
     ATOM              X           Y           Z
    1  N           0.000000    0.000000    0.012113
    2  N           0.000000    0.000000    1.132777
    3  O           0.000000    0.000000    2.316207
   Point Group: c1    Number of degrees of freedom:   3


   Energy is   -184.732828122


 Translations and Rotations Projected Out of Hessian

  2 Hessian modes will be used to form the next step
  Hessian Eigenvalues:
     1.006846    2.805775

 Minimum Search - Taking Simple RFO Step
 Searching for Lamda that Minimizes Along All modes
 Value Taken    Lamda =   0.00000000
 Step Taken.  Stepsize is  0.000053

                             Maximum     Tolerance    Cnvgd?
         Gradient           0.000102      0.000300     YES
         Displacement       0.000040      0.001200     YES
         Energy change     -0.000001      0.000001      NO


                       Distance Matrix (Angstroms)
             N (  1)   N (  2)
   N (  2)  1.120664
   O (  3)  2.304094  1.183430
 


 ******************************
 **  OPTIMIZATION CONVERGED  **
 ******************************
 Analysis of SCF Wavefunction
 
 --------------------------------------------------------------
                    Orbital Energies (a.u.)
 --------------------------------------------------------------
 
 Alpha MOs
 -- Occupied --
-19.231 -14.549 -14.417  -1.257  -1.102  -0.614  -0.576  -0.576
 -0.488  -0.355  -0.355
 -- Virtual --
 -0.028  -0.028   0.002   0.080   0.091   0.091   0.135   0.154
  0.154   0.171   0.227   0.257   0.257   0.317   0.350   0.578
  0.681   0.681   0.761   0.761   0.775   0.775   0.789   0.858
  1.008   1.035   1.035   1.057   1.084   1.084   1.125   1.125
  1.179   1.576   1.576   1.620   1.673   1.673   1.930   2.316
  2.316   2.522   2.668   3.205   3.205   3.234   3.234   3.354
  3.507   3.507   3.588   3.588   3.706   3.706   3.860   3.860
  4.141   4.298   4.298   4.365   4.365   4.538   4.569   4.570
  4.571   4.720   4.720   4.770   4.770   4.986   4.986   5.044
  5.044   5.332   5.571   5.571   5.699   5.889   5.889   6.685
  6.685   6.960   7.144   7.144   7.397   7.397   7.668   8.639
 35.463  36.135  37.283  37.283  37.664  37.664  38.401  39.332
 40.246  40.345  40.379  40.444  40.444  40.479  40.596  40.747
 40.747  41.561  43.592  43.648  43.781  43.781  44.043  45.768
 45.768  46.681  50.469
 
 Beta MOs
 -- Occupied --
-19.231 -14.549 -14.417  -1.257  -1.102  -0.614  -0.576  -0.576
 -0.488  -0.355  -0.355
 -- Virtual --
 -0.028  -0.028   0.002   0.080   0.091   0.091   0.135   0.154
  0.154   0.171   0.227   0.257   0.257   0.317   0.350   0.578
  0.681   0.681   0.761   0.761   0.775   0.775   0.789   0.858
  1.008   1.035   1.035   1.057   1.084   1.084   1.125   1.125
  1.179   1.576   1.576   1.620   1.673   1.673   1.930   2.316
  2.316   2.522   2.668   3.205   3.205   3.234   3.234   3.354
  3.507   3.507   3.588   3.588   3.706   3.706   3.860   3.860
  4.141   4.298   4.298   4.365   4.365   4.538   4.569   4.570
  4.571   4.720   4.720   4.770   4.770   4.986   4.986   5.044
  5.044   5.332   5.571   5.571   5.699   5.889   5.889   6.685
  6.685   6.960   7.144   7.144   7.397   7.397   7.668   8.639
 35.463  36.135  37.283  37.283  37.664  37.664  38.401  39.332
 40.246  40.345  40.379  40.444  40.444  40.479  40.596  40.747
 40.747  41.561  43.592  43.648  43.781  43.781  44.043  45.768
 45.768  46.681  50.469
 --------------------------------------------------------------
 
          Ground-State Mulliken Net Atomic Charges

     Atom                 Charge (a.u.)    Spin (a.u.)
  --------------------------------------------------------
      1 N                    -0.139535       0.000000
      2 N                     0.346593       0.000000
      3 O                    -0.207058       0.000000
  --------------------------------------------------------
  Sum of atomic charges =     0.000000
  Sum of spin   charges =     0.000000

 -----------------------------------------------------------------
                    Cartesian Multipole Moments
 -----------------------------------------------------------------
    Charge (ESU x 10^10)
                 0.0000
    Dipole Moment (Debye)
         X       0.0000      Y       0.0000      Z      -0.0828
       Tot       0.0828
    Quadrupole Moments (Debye-Ang)
        XX     -15.3524     XY       0.0000     YY     -15.3524
        XZ       0.0000     YZ       0.0000     ZZ     -19.4948
    Octapole Moments (Debye-Ang^2)
       XXX       0.0000    XXY       0.0000    XYY       0.0000
       YYY       0.0000    XXZ     -17.4895    XYZ       0.0000
       YYZ     -17.4895    XZZ       0.0000    YZZ       0.0000
       ZZZ     -64.9870
    Hexadecapole Moments (Debye-Ang^3)
      XXXX     -12.6400   XXXY       0.0000   XXYY      -4.2133
      XYYY       0.0000   YYYY     -12.6400   XXXZ       0.0000
      XXYZ       0.0000   XYYZ       0.0000   YYYZ       0.0000
      XXZZ     -39.5277   XYZZ       0.0000   YYZZ     -39.5277
      XZZZ       0.0000   YZZZ       0.0000   ZZZZ    -251.2791
 -----------------------------------------------------------------
 Total job time:  190.22s(wall), 154.88s(cpu) 
 Wed Jul 24 16:02:01 2013

        *************************************************************
        *                                                           *
        *  Thank you very much for using Q-Chem.  Have a nice day.  *
        *                                                           *
        *************************************************************


0 sent ACK to 0 
now end server 0 ... 
 
**********************************************************************
Job 2 of 2 
**********************************************************************
 
Process 0 of 1 is on cl122.stfx.acenet.ca - thread support 1
initial socket setup ...start
initial socket setup ...done 
now start server 0 ... 

cmd = /usr/bin/ssh clhead /usr/local/qchem/bin/get_hostid 777516958 > /scratch/tmp/6067092.1.short.q/qchem28131/lic.dat
                  Welcome to Q-Chem
     A Quantum Leap Into The Future Of Chemistry

 Y. Shao, L. Fusti-Molnar, Y. Jung, J. Kussmann, C. Ochsenfeld,
 S. T. Brown, A. T. B. Gilbert, L. V. Slipchenko,S. V. Levchenko,
 D. P. O'Neill, R. A. DiStasio Jr., R. C. Lochan, T. Wang,
 G. J. O. Beran, N. A. Besley, J. M. Herbert, C. Y. Lin,
 T. Van Voorhis, S. H. Chien, A. Sodt, R. P. Steele, 
 V. A. Rassolov, P. E. Maslen, P. P. Korambath, R. D. Adamson,
 B. Austin, J. Baker, E. F. C. Byrd, H. Dachsel, R. J. Doerksen,
 A. Dreuw, B. D. Dunietz, A. D. Dutoi, T. R. Furlani,
 S. R. Gwaltney, A. Heyden, S. Hirata, C.-P. Hsu, G. Kedziora,
 R. Z. Khaliullin, P. Klunzinger, A. M. Lee, M. S. Lee, W. Liang,
 I. Lotan, N. Nair, B. Peters, E. I. Proynov, P. A. Pieniazek, 
 Y. M. Rhee, J. Ritchie, E. Rosta, C. D. Sherrill, 
 A. C. Simmonett, J. E. Subotnik, H. L. Woodcock III,
 W. Zhang, A. T. Bell, A. K. Chakraborty, D. M. Chipman,
 F. J. Keil, A. Warshel, W. J. Hehre, H. F. Schaefer III,
 J. Kong, A. I. Krylov, P. M. W. Gill, M. Head-Gordon,
 Q-Chem, Version 3.1, Q-Chem, Inc., Pittsburgh, PA (2007).

 Additional authors for Version 3.1: 
 Z. Gan, Y. Zhao, N. E. Schultz, D. Truhlar, E. Epifanovsky and M. Oana.

 Additional authors for Version 3.2: 
 R. Baer, B. R. Brooks, D. Casanova, J.-D. Chai, C.-L. Cheng, 
 C. Cramer, D. Crittenden, A. Ghysels, G. Hawkins, E. G. Hohenstein, 
 C. Kelley, W. Kurlancheek, D. Liotard, E. Livshits, P. Manohar, 
 A. Marenich, D. Neuhauser, R. Olson, M. A. Rohrdanz, K. S. Thanthiriwatte, 
 A. J. W. Thom, V. Vanovschi, C. F. Williams, Q. Wu and Z.-Q. You. 


 Intel X86 Linux Version

 Q-chem begins on Wed Jul 24 16:02:04 2013  

 Parallel job on  1  processors
Processing $rem in /usr/local/qchem/config/preferences.

theFileMan(): MAXOPENFILES=974 MAX_SUB_FILE_NUM=16
Maximum size of a physical file is 2.0 GB, maximum size of a tmp-file is 32.0 GB


--------------------------------------------------------------
User input:
--------------------------------------------------------------

$molecule 
READ 
$end 

$rem
   EXCHANGE B3LYP
   UNRESTRICTED TRUE
   SYMMETRY_DECOMPOSITION       0
   BASIS                   g3large
   JOBTYPE                 freq
   mem_static              760
   max_scf_cycles          200
   scf_final_print         1
   sym_ignore              true
   JOBTYPE                 freq
   IDERIV 1
   SCF_GUESS READ
$end
--------------------------------------------------------------
 Writing REM_CC_EA            3
 ----------------------------------------------------
       Standard Nuclear Orientation (Angstroms)
    I     Atom         X            Y            Z
 ----------------------------------------------------
    1      N       0.000000     0.000000     0.012113
    2      N       0.000000     0.000000     1.132777
    3      O       0.000000     0.000000     2.316207
 ----------------------------------------------------
 Nuclear Repulsion Energy =    61.0399186701 hartrees
 There are       11 alpha and       11 beta electrons
 Requested basis set is G3large
 There are 30 shells and 126 basis functions

Total QAlloc Memory Limit   2000 MB
Mega-Array Size       759 MB
MEM_STATIC part       760 MB

                       Distance Matrix (Angstroms)
             N (  1)   N (  2)
   N (  2)  1.120664
   O (  3)  2.304094  1.183430
 
 A cutoff of  1.0D-11 yielded    441 shell pairs
 There are   7928 function pairs ( 10417 Cartesian)
Evaluating contribution to one-electron hamiltonian from nuclear
 Smallest overlap matrix eigenvalue = 4.66E-05
 Multipole matrices computed through 2nd order
 Guess MOs from SCF MO coefficient file
Reading MOs from coefficient file
Reading MOs from coefficient file
 An unrestricted hybrid HF-DFT SCF calculation will be
 performed using Pulay DIIS extrapolation
 Exchange:     0.2000 Hartree-Fock + 0.0800 Slater + 0.7200 Becke88
 Correlation:  0.8100 LYP + 0.1900 VWN1RPA
 Using SG-1 standard quadrature grid
 SCF converges when DIIS error is below 1.0E-08
 ---------------------------------------
  Cycle       Energy         DIIS Error
 ---------------------------------------
    1    -184.7328281951      4.07E-10
    2    -184.7328281950      2.63E-10 Convergence criterion met
 ---------------------------------------
 One-Electron    Energy =  -371.5373578454
 Total Coulomb   Energy =   148.0707885841
 Alpha Exchange  Energy =    -2.1291095789
 Beta  Exchange  Energy =    -2.1291095789
 DFT   Exchange  Energy =   -17.0392803005
 DFT Correlation Energy =    -1.0086781455
 Nuclear Repu.   Energy =    61.0399186701
 Nuclear Attr.   Energy =  -555.7063685084
 Kinetic         Energy =   184.1690106630
 <S^2> = 0.0000
 SCF time:  CPU 4.31 s  wall 5.22 s
 Final Alpha MO Eigenvalues
            1           2           3           4           5           6
    1 -19.2308525 -14.5487928 -14.4173109  -1.2567894  -1.1016392  -0.6141311
            7           8           9          10          11          12
    1  -0.5764179  -0.5764179  -0.4878308  -0.3547869  -0.3547869  -0.0280334
           13          14          15          16
    1  -0.0280334   0.0022253   0.0800145   0.0908979
 Final Beta MO Eigenvalues
            1           2           3           4           5           6
    1 -19.2308525 -14.5487928 -14.4173109  -1.2567894  -1.1016392  -0.6141311
            7           8           9          10          11          12
    1  -0.5764179  -0.5764179  -0.4878308  -0.3547869  -0.3547869  -0.0280334
           13          14          15          16
    1  -0.0280334   0.0022253   0.0800145   0.0908979
 Analysis of SCF Wavefunction
 
 --------------------------------------------------------------
                    Orbital Energies (a.u.)
 --------------------------------------------------------------
 
 Alpha MOs
 -- Occupied --
-19.231 -14.549 -14.417  -1.257  -1.102  -0.614  -0.576  -0.576
 -0.488  -0.355  -0.355
 -- Virtual --
 -0.028  -0.028   0.002   0.080   0.091   0.091   0.135   0.154
  0.154   0.171   0.227   0.257   0.257   0.317   0.350   0.578
  0.681   0.681   0.761   0.761   0.775   0.775   0.789   0.858
  1.008   1.035   1.035   1.057   1.084   1.084   1.125   1.125
  1.179   1.576   1.576   1.620   1.673   1.673   1.930   2.316
  2.316   2.522   2.668   3.205   3.205   3.234   3.234   3.354
  3.507   3.507   3.588   3.588   3.706   3.706   3.860   3.860
  4.141   4.298   4.298   4.365   4.365   4.538   4.569   4.570
  4.571   4.720   4.720   4.770   4.770   4.986   4.986   5.044
  5.044   5.332   5.571   5.571   5.699   5.889   5.889   6.685
  6.685   6.960   7.144   7.144   7.397   7.397   7.668   8.639
 35.463  36.135  37.283  37.283  37.664  37.664  38.401  39.332
 40.246  40.345  40.379  40.444  40.444  40.479  40.596  40.747
 40.747  41.561  43.592  43.648  43.781  43.781  44.043  45.768
 45.768  46.681  50.469
 
 Beta MOs
 -- Occupied --
-19.231 -14.549 -14.417  -1.257  -1.102  -0.614  -0.576  -0.576
 -0.488  -0.355  -0.355
 -- Virtual --
 -0.028  -0.028   0.002   0.080   0.091   0.091   0.135   0.154
  0.154   0.171   0.227   0.257   0.257   0.317   0.350   0.578
  0.681   0.681   0.761   0.761   0.775   0.775   0.789   0.858
  1.008   1.035   1.035   1.057   1.084   1.084   1.125   1.125
  1.179   1.576   1.576   1.620   1.673   1.673   1.930   2.316
  2.316   2.522   2.668   3.205   3.205   3.234   3.234   3.354
  3.507   3.507   3.588   3.588   3.706   3.706   3.860   3.860
  4.141   4.298   4.298   4.365   4.365   4.538   4.569   4.570
  4.571   4.720   4.720   4.770   4.770   4.986   4.986   5.044
  5.044   5.332   5.571   5.571   5.699   5.889   5.889   6.685
  6.685   6.960   7.144   7.144   7.397   7.397   7.668   8.639
 35.463  36.135  37.283  37.283  37.664  37.664  38.401  39.332
 40.246  40.345  40.379  40.444  40.444  40.479  40.596  40.747
 40.747  41.561  43.592  43.648  43.781  43.781  44.043  45.768
 45.768  46.681  50.469
 --------------------------------------------------------------
 
          Ground-State Mulliken Net Atomic Charges

     Atom                 Charge (a.u.)    Spin (a.u.)
  --------------------------------------------------------
      1 N                    -0.139535       0.000000
      2 N                     0.346593       0.000000
      3 O                    -0.207058       0.000000
  --------------------------------------------------------
  Sum of atomic charges =     0.000000
  Sum of spin   charges =     0.000000

 -----------------------------------------------------------------
                    Cartesian Multipole Moments
 -----------------------------------------------------------------
    Charge (ESU x 10^10)
                 0.0000
    Dipole Moment (Debye)
         X       0.0000      Y       0.0000      Z      -0.0828
       Tot       0.0828
    Quadrupole Moments (Debye-Ang)
        XX     -15.3524     XY       0.0000     YY     -15.3524
        XZ       0.0000     YZ       0.0000     ZZ     -19.4948
    Octapole Moments (Debye-Ang^2)
       XXX       0.0000    XXY       0.0000    XYY       0.0000
       YYY       0.0000    XXZ     -17.4895    XYZ       0.0000
       YYZ     -17.4895    XZZ       0.0000    YZZ       0.0000
       ZZZ     -64.9870
    Hexadecapole Moments (Debye-Ang^3)
      XXXX     -12.6400   XXXY       0.0000   XXYY      -4.2133
      XYYY       0.0000   YYYY     -12.6400   XXXZ       0.0000
      XXYZ       0.0000   XYYZ       0.0000   YYYZ       0.0000
      XXZZ     -39.5277   XYZZ       0.0000   YYZZ     -39.5277
      XZZZ       0.0000   YZZZ       0.0000   ZZZZ    -251.2791
 -----------------------------------------------------------------
 Calculating analytic gradient of the SCF energy
 Gradient of XC Energy
            1           2           3
    1  -0.0000000  -0.0000000   0.0000000
    2   0.0000000  -0.0000000   0.0000000
    3  -0.5859161   0.1243763   0.4615399
 Gradient of SCF Energy
            1           2           3
    1   0.0000000  -0.0000000  -0.0000000
    2   0.0000000  -0.0000000   0.0000000
    3   0.0000882  -0.0001018   0.0000135
 Max gradient component =       1.018E-04
 RMS gradient           =       4.513E-05
 Gradient time:  CPU 10.41 s  wall 12.52 s
 ######################################################
 ######################################################
 # Starting finite difference calculation for IDERIV  #
 Finite diff step size: 1.89e-03 a.u.
 Writing REM_CC_EA            3
 ----------------------------------------------------
       Standard Nuclear Orientation (Angstroms)
    I     Atom         X            Y            Z
 ----------------------------------------------------
    1      N       0.001000     0.000000     0.012113
    2      N       0.000000     0.000000     1.132777
    3      O       0.000000     0.000000     2.316207
 ----------------------------------------------------
 Nuclear Repulsion Energy =    61.0399082470 hartrees
 There are       11 alpha and       11 beta electrons

                       Distance Matrix (Angstroms)
             N (  1)   N (  2)
   N (  2)  1.120665
   O (  3)  2.304094  1.183430
 
 Requested basis set is G3large
 There are 30 shells and 126 basis functions
 A cutoff of  1.0D-11 yielded    441 shell pairs
 There are   7928 function pairs ( 10417 Cartesian)
Evaluating contribution to one-electron hamiltonian from nuclear
 Smallest overlap matrix eigenvalue = 4.66E-05
 Multipole matrices computed through 2nd order
 Guess MOs from SCF MO coefficient file
Reading MOs from coefficient file
Reading MOs from coefficient file
 An unrestricted hybrid HF-DFT SCF calculation will be
 performed using Pulay DIIS extrapolation
 Exchange:     0.2000 Hartree-Fock + 0.0800 Slater + 0.7200 Becke88
 Correlation:  0.8100 LYP + 0.1900 VWN1RPA
 Using SG-1 standard quadrature grid
 SCF converges when DIIS error is below 1.0E-08
 ---------------------------------------
  Cycle       Energy         DIIS Error
 ---------------------------------------
    1    -184.7328270975      4.03E-05
    2    -184.7328281288      1.75E-06
    3    -184.7328281453      5.81E-07
    4    -184.7328281331      2.26E-07
    5    -184.7328281496      4.20E-07
    6    -184.7328281412      4.46E-08
    7    -184.7328281392      1.89E-08
    8    -184.7328281394      1.28E-09 Convergence criterion met
 ---------------------------------------
 One-Electron    Energy =  -371.5373378888
 Total Coulomb   Energy =   148.0707785961
 Alpha Exchange  Energy =    -2.1291095153
 Beta  Exchange  Energy =    -2.1291095153
 DFT   Exchange  Energy =   -17.0392799391
 DFT Correlation Energy =    -1.0086781240
 Nuclear Repu.   Energy =    61.0399082470
 Nuclear Attr.   Energy =  -555.7063466748
 Kinetic         Energy =   184.1690087860
 <S^2> = 0.0000
 SCF time:  CPU 16.09 s  wall 19.91 s
 Final Alpha MO Eigenvalues
            1           2           3           4           5           6
    1 -19.2308525 -14.5487928 -14.4173109  -1.2567893  -1.1016389  -0.6141312
            7           8           9          10          11          12
    1  -0.5764178  -0.5764178  -0.4878308  -0.3547868  -0.3547868  -0.0280341
           13          14          15          16
    1  -0.0280335   0.0022257   0.0800145   0.0908979
 Final Beta MO Eigenvalues
            1           2           3           4           5           6
    1 -19.2308525 -14.5487928 -14.4173109  -1.2567893  -1.1016389  -0.6141312
            7           8           9          10          11          12
    1  -0.5764178  -0.5764178  -0.4878308  -0.3547868  -0.3547868  -0.0280341
           13          14          15          16
    1  -0.0280335   0.0022257   0.0800145   0.0908979
 Analysis of SCF Wavefunction
 
 --------------------------------------------------------------
                    Orbital Energies (a.u.)
 --------------------------------------------------------------
 
 Alpha MOs
 -- Occupied --
-19.231 -14.549 -14.417  -1.257  -1.102  -0.614  -0.576  -0.576
 -0.488  -0.355  -0.355
 -- Virtual --
 -0.028  -0.028   0.002   0.080   0.091   0.091   0.135   0.154
  0.154   0.171   0.227   0.257   0.257   0.317   0.350   0.578
  0.681   0.681   0.761   0.761   0.775   0.775   0.789   0.858
  1.008   1.035   1.035   1.057   1.084   1.084   1.125   1.125
  1.179   1.576   1.576   1.620   1.673   1.673   1.930   2.316
  2.316   2.522   2.668   3.205   3.205   3.234   3.234   3.354
  3.507   3.507   3.588   3.588   3.706   3.706   3.860   3.860
  4.141   4.298   4.298   4.365   4.365   4.538   4.569   4.570
  4.571   4.720   4.720   4.770   4.770   4.986   4.986   5.044
  5.044   5.332   5.571   5.571   5.699   5.889   5.889   6.685
  6.685   6.960   7.144   7.144   7.397   7.397   7.668   8.639
 35.463  36.135  37.283  37.283  37.664  37.664  38.401  39.332
 40.246  40.345  40.379  40.444  40.444  40.479  40.596  40.747
 40.747  41.561  43.592  43.648  43.781  43.781  44.043  45.768
 45.768  46.681  50.469
 
 Beta MOs
 -- Occupied --
-19.231 -14.549 -14.417  -1.257  -1.102  -0.614  -0.576  -0.576
 -0.488  -0.355  -0.355
 -- Virtual --
 -0.028  -0.028   0.002   0.080   0.091   0.091   0.135   0.154
  0.154   0.171   0.227   0.257   0.257   0.317   0.350   0.578
  0.681   0.681   0.761   0.761   0.775   0.775   0.789   0.858
  1.008   1.035   1.035   1.057   1.084   1.084   1.125   1.125
  1.179   1.576   1.576   1.620   1.673   1.673   1.930   2.316
  2.316   2.522   2.668   3.205   3.205   3.234   3.234   3.354
  3.507   3.507   3.588   3.588   3.706   3.706   3.860   3.860
  4.141   4.298   4.298   4.365   4.365   4.538   4.569   4.570
  4.571   4.720   4.720   4.770   4.770   4.986   4.986   5.044
  5.044   5.332   5.571   5.571   5.699   5.889   5.889   6.685
  6.685   6.960   7.144   7.144   7.397   7.397   7.668   8.639
 35.463  36.135  37.283  37.283  37.664  37.664  38.401  39.332
 40.246  40.345  40.379  40.444  40.444  40.479  40.596  40.747
 40.747  41.561  43.592  43.648  43.781  43.781  44.043  45.768
 45.768  46.681  50.469
 --------------------------------------------------------------
 
          Ground-State Mulliken Net Atomic Charges

     Atom                 Charge (a.u.)    Spin (a.u.)
  --------------------------------------------------------
      1 N                    -0.139534       0.000000
      2 N                     0.346591       0.000000
      3 O                    -0.207057       0.000000
  --------------------------------------------------------
  Sum of atomic charges =     0.000000
  Sum of spin   charges =     0.000000

 -----------------------------------------------------------------
                    Cartesian Multipole Moments
 -----------------------------------------------------------------
    Charge (ESU x 10^10)
                 0.0000
    Dipole Moment (Debye)
         X      -0.0005      Y       0.0000      Z      -0.0828
       Tot       0.0828
    Quadrupole Moments (Debye-Ang)
        XX     -15.3525     XY       0.0000     YY     -15.3525
        XZ       0.0010     YZ       0.0000     ZZ     -19.4948
    Octapole Moments (Debye-Ang^2)
       XXX      -0.0159    XXY       0.0000    XYY      -0.0053
       YYY       0.0000    XXZ     -17.4895    XYZ       0.0000
       YYZ     -17.4895    XZZ      -0.0032    YZZ       0.0000
       ZZZ     -64.9870
    Hexadecapole Moments (Debye-Ang^3)
      XXXX     -12.6400   XXXY       0.0000   XXYY      -4.2133
      XYYY       0.0000   YYYY     -12.6400   XXXZ       0.0016
      XXYZ       0.0000   XYYZ       0.0005   YYYZ       0.0000
      XXZZ     -39.5277   XYZZ       0.0000   YYZZ     -39.5277
      XZZZ       0.0066   YZZZ       0.0000   ZZZZ    -251.2791
 -----------------------------------------------------------------
 Calculating analytic gradient of the SCF energy
 Gradient of XC Energy
            1           2           3
    1   0.0006488  -0.0006149  -0.0000339
    2  -0.0000000  -0.0000000   0.0000000
    3  -0.5859162   0.1243763   0.4615399
 Gradient of SCF Energy
            1           2           3
    1   0.0000686  -0.0001341   0.0000655
    2   0.0000000  -0.0000000   0.0000000
    3   0.0000873  -0.0001008   0.0000135
 Max gradient component =       1.341E-04
 RMS gradient           =       7.068E-05
 Gradient time:  CPU 10.44 s  wall 12.54 s
 Writing REM_CC_EA            3
 ----------------------------------------------------
       Standard Nuclear Orientation (Angstroms)
    I     Atom         X            Y            Z
 ----------------------------------------------------
    1      N      -0.001000     0.000000     0.012113
    2      N       0.000000     0.000000     1.132777
    3      O       0.000000     0.000000     2.316207
 ----------------------------------------------------
 Nuclear Repulsion Energy =    61.0399082470 hartrees
 There are       11 alpha and       11 beta electrons

                       Distance Matrix (Angstroms)
             N (  1)   N (  2)
   N (  2)  1.120665
   O (  3)  2.304094  1.183430
 
 Requested basis set is G3large
 There are 30 shells and 126 basis functions
 A cutoff of  1.0D-11 yielded    441 shell pairs
 There are   7928 function pairs ( 10417 Cartesian)
Evaluating contribution to one-electron hamiltonian from nuclear
 Smallest overlap matrix eigenvalue = 4.66E-05
 Multipole matrices computed through 2nd order
 Guess MOs from SCF MO coefficient file
Reading MOs from coefficient file
Reading MOs from coefficient file
 An unrestricted hybrid HF-DFT SCF calculation will be
 performed using Pulay DIIS extrapolation
 Exchange:     0.2000 Hartree-Fock + 0.0800 Slater + 0.7200 Becke88
 Correlation:  0.8100 LYP + 0.1900 VWN1RPA
 Using SG-1 standard quadrature grid
 SCF converges when DIIS error is below 1.0E-08
 ---------------------------------------
  Cycle       Energy         DIIS Error
 ---------------------------------------
    1    -184.7328251874      8.06E-05
    2    -184.7328280893      3.51E-06
    3    -184.7328281451      1.20E-06
    4    -184.7328281062      8.63E-07
    5    -184.7328281447      8.01E-07
    6    -184.7328281336      9.92E-08
    7    -184.7328281293      3.60E-08
    8    -184.7328281294      2.62E-09 Convergence criterion met
 ---------------------------------------
 One-Electron    Energy =  -371.5373382247
 Total Coulomb   Energy =   148.0707789775
 Alpha Exchange  Energy =    -2.1291095195
 Beta  Exchange  Energy =    -2.1291095195
 DFT   Exchange  Energy =   -17.0392799657
 DFT Correlation Energy =    -1.0086781245
 Nuclear Repu.   Energy =    61.0399082470
 Nuclear Attr.   Energy =  -555.7063473590
 Kinetic         Energy =   184.1690091343
 <S^2> = 0.0000
 SCF time:  CPU 16.52 s  wall 19.96 s
 Final Alpha MO Eigenvalues
            1           2           3           4           5           6
    1 -19.2308525 -14.5487928 -14.4173109  -1.2567893  -1.1016389  -0.6141312
            7           8           9          10          11          12
    1  -0.5764178  -0.5764178  -0.4878308  -0.3547868  -0.3547868  -0.0280341
           13          14          15          16
    1  -0.0280335   0.0022257   0.0800145   0.0908979
 Final Beta MO Eigenvalues
            1           2           3           4           5           6
    1 -19.2308525 -14.5487928 -14.4173109  -1.2567893  -1.1016389  -0.6141312
            7           8           9          10          11          12
    1  -0.5764178  -0.5764178  -0.4878308  -0.3547868  -0.3547868  -0.0280341
           13          14          15          16
    1  -0.0280335   0.0022257   0.0800145   0.0908979
 Analysis of SCF Wavefunction
 
 --------------------------------------------------------------
                    Orbital Energies (a.u.)
 --------------------------------------------------------------
 
 Alpha MOs
 -- Occupied --
-19.231 -14.549 -14.417  -1.257  -1.102  -0.614  -0.576  -0.576
 -0.488  -0.355  -0.355
 -- Virtual --
 -0.028  -0.028   0.002   0.080   0.091   0.091   0.135   0.154
  0.154   0.171   0.227   0.257   0.257   0.317   0.350   0.578
  0.681   0.681   0.761   0.761   0.775   0.775   0.789   0.858
  1.008   1.035   1.035   1.057   1.084   1.084   1.125   1.125
  1.179   1.576   1.576   1.620   1.673   1.673   1.930   2.316
  2.316   2.522   2.668   3.205   3.205   3.234   3.234   3.354
  3.507   3.507   3.588   3.588   3.706   3.706   3.860   3.860
  4.141   4.298   4.298   4.365   4.365   4.538   4.569   4.570
  4.571   4.720   4.720   4.770   4.770   4.986   4.986   5.044
  5.044   5.332   5.571   5.571   5.699   5.889   5.889   6.685
  6.685   6.960   7.144   7.144   7.397   7.397   7.668   8.639
 35.463  36.135  37.283  37.283  37.664  37.664  38.401  39.332
 40.246  40.345  40.379  40.444  40.444  40.479  40.596  40.747
 40.747  41.561  43.592  43.648  43.781  43.781  44.043  45.768
 45.768  46.681  50.469
 
 Beta MOs
 -- Occupied --
-19.231 -14.549 -14.417  -1.257  -1.102  -0.614  -0.576  -0.576
 -0.488  -0.355  -0.355
 -- Virtual --
 -0.028  -0.028   0.002   0.080   0.091   0.091   0.135   0.154
  0.154   0.171   0.227   0.257   0.257   0.317   0.350   0.578
  0.681   0.681   0.761   0.761   0.775   0.775   0.789   0.858
  1.008   1.035   1.035   1.057   1.084   1.084   1.125   1.125
  1.179   1.576   1.576   1.620   1.673   1.673   1.930   2.316
  2.316   2.522   2.668   3.205   3.205   3.234   3.234   3.354
  3.507   3.507   3.588   3.588   3.706   3.706   3.860   3.860
  4.141   4.298   4.298   4.365   4.365   4.538   4.569   4.570
  4.571   4.720   4.720   4.770   4.770   4.986   4.986   5.044
  5.044   5.332   5.571   5.571   5.699   5.889   5.889   6.685
  6.685   6.960   7.144   7.144   7.397   7.397   7.668   8.639
 35.463  36.135  37.283  37.283  37.664  37.664  38.401  39.332
 40.246  40.345  40.379  40.444  40.444  40.479  40.596  40.747
 40.747  41.561  43.592  43.648  43.781  43.781  44.043  45.768
 45.768  46.681  50.469
 --------------------------------------------------------------
 
          Ground-State Mulliken Net Atomic Charges

     Atom                 Charge (a.u.)    Spin (a.u.)
  --------------------------------------------------------
      1 N                    -0.139534       0.000000
      2 N                     0.346591       0.000000
      3 O                    -0.207057       0.000000
  --------------------------------------------------------
  Sum of atomic charges =     0.000000
  Sum of spin   charges =     0.000000

 -----------------------------------------------------------------
                    Cartesian Multipole Moments
 -----------------------------------------------------------------
    Charge (ESU x 10^10)
                 0.0000
    Dipole Moment (Debye)
         X       0.0005      Y       0.0000      Z      -0.0828
       Tot       0.0828
    Quadrupole Moments (Debye-Ang)
        XX     -15.3525     XY       0.0000     YY     -15.3525
        XZ      -0.0010     YZ       0.0000     ZZ     -19.4948
    Octapole Moments (Debye-Ang^2)
       XXX       0.0159    XXY       0.0000    XYY       0.0053
       YYY       0.0000    XXZ     -17.4895    XYZ       0.0000
       YYZ     -17.4895    XZZ       0.0032    YZZ       0.0000
       ZZZ     -64.9870
    Hexadecapole Moments (Debye-Ang^3)
      XXXX     -12.6400   XXXY       0.0000   XXYY      -4.2133
      XYYY       0.0000   YYYY     -12.6400   XXXZ      -0.0016
      XXYZ       0.0000   XYYZ      -0.0005   YYYZ       0.0000
      XXZZ     -39.5277   XYZZ       0.0000   YYZZ     -39.5277
      XZZZ      -0.0066   YZZZ       0.0000   ZZZZ    -251.2791
[...]
-19.231 -14.549 -14.418  -1.256  -1.102  -0.614  -0.576  -0.576
 -0.488  -0.355  -0.355
 -- Virtual --
 -0.028  -0.028   0.002   0.080   0.091   0.091   0.135   0.154
  0.154   0.170   0.227   0.256   0.256   0.317   0.350   0.578
  0.681   0.681   0.761   0.761   0.775   0.775   0.789   0.858
  1.008   1.035   1.035   1.057   1.084   1.084   1.125   1.125
  1.179   1.576   1.576   1.620   1.672   1.672   1.930   2.315
  2.315   2.521   2.667   3.205   3.205   3.234   3.234   3.354
  3.507   3.507   3.588   3.588   3.706   3.706   3.859   3.859
  4.141   4.298   4.298   4.366   4.366   4.538   4.569   4.569
  4.570   4.719   4.720   4.770   4.770   4.986   4.986   5.043
  5.043   5.331   5.569   5.569   5.697   5.887   5.887   6.685
  6.685   6.960   7.144   7.144   7.393   7.393   7.666   8.636
 35.461  36.134  37.282  37.282  37.664  37.664  38.401  39.331
 40.246  40.345  40.379  40.444  40.444  40.479  40.594  40.746
 40.746  41.560  43.592  43.648  43.781  43.781  44.041  45.767
 45.767  46.681  50.465
 
 Beta MOs
 -- Occupied --
-19.231 -14.549 -14.418  -1.256  -1.102  -0.614  -0.576  -0.576
 -0.488  -0.355  -0.355
 -- Virtual --
 -0.028  -0.028   0.002   0.080   0.091   0.091   0.135   0.154
  0.154   0.170   0.227   0.256   0.256   0.317   0.350   0.578
  0.681   0.681   0.761   0.761   0.775   0.775   0.789   0.858
  1.008   1.035   1.035   1.057   1.084   1.084   1.125   1.125
  1.179   1.576   1.576   1.620   1.672   1.672   1.930   2.315
  2.315   2.521   2.667   3.205   3.205   3.234   3.234   3.354
  3.507   3.507   3.588   3.588   3.706   3.706   3.859   3.859
  4.141   4.298   4.298   4.366   4.366   4.538   4.569   4.569
  4.570   4.719   4.720   4.770   4.770   4.986   4.986   5.043
  5.043   5.331   5.569   5.569   5.697   5.887   5.887   6.685
  6.685   6.960   7.144   7.144   7.393   7.393   7.666   8.636
 35.461  36.134  37.282  37.282  37.664  37.664  38.401  39.331
 40.246  40.345  40.379  40.444  40.444  40.479  40.594  40.746
 40.746  41.560  43.592  43.648  43.781  43.781  44.041  45.767
 45.767  46.681  50.465
 --------------------------------------------------------------
 
          Ground-State Mulliken Net Atomic Charges

     Atom                 Charge (a.u.)    Spin (a.u.)
  --------------------------------------------------------
      1 N                    -0.139056       0.000000
      2 N                     0.345936       0.000000
      3 O                    -0.206881       0.000000
  --------------------------------------------------------
  Sum of atomic charges =     0.000000
  Sum of spin   charges =     0.000000

 -----------------------------------------------------------------
                    Cartesian Multipole Moments
 -----------------------------------------------------------------
    Charge (ESU x 10^10)
                 0.0000
    Dipole Moment (Debye)
         X       0.0000      Y       0.0000      Z      -0.0894
       Tot       0.0894
    Quadrupole Moments (Debye-Ang)
        XX     -15.3544     XY       0.0000     YY     -15.3544
        XZ       0.0000     YZ       0.0000     ZZ     -19.5085
    Octapole Moments (Debye-Ang^2)
       XXX       0.0000    XXY       0.0000    XYY       0.0000
       YYY       0.0000    XXZ     -17.5026    XYZ       0.0000
       YYZ     -17.5026    XZZ       0.0000    YZZ       0.0000
       ZZZ     -65.0386
    Hexadecapole Moments (Debye-Ang^3)
      XXXX     -12.6427   XXXY       0.0000   XXYY      -4.2142
      XYYY       0.0000   YYYY     -12.6427   XXXZ       0.0000
      XXYZ       0.0000   XYYZ       0.0000   YYYZ       0.0000
      XXZZ     -39.5683   XYZZ       0.0000   YYZZ     -39.5683
      XZZZ       0.0000   YZZZ       0.0000   ZZZZ    -251.5096
 -----------------------------------------------------------------
 Calculating analytic gradient of the SCF energy
 Gradient of XC Energy
            1           2           3
    1  -0.0000000   0.0000000  -0.0000000
    2   0.0000000   0.0000000  -0.0000000
    3  -0.5861588   0.1249595   0.4611993
 Gradient of SCF Energy
            1           2           3
    1  -0.0000000   0.0000000  -0.0000000
    2   0.0000000   0.0000000  -0.0000000
    3  -0.0000649  -0.0014229   0.0014879
 Max gradient component =       1.488E-03
 RMS gradient           =       6.866E-04
 Gradient time:  CPU 10.34 s  wall 12.43 s
 Writing REM_CC_EA            3
 ----------------------------------------------------
       Standard Nuclear Orientation (Angstroms)
    I     Atom         X            Y            Z
 ----------------------------------------------------
    1      N       0.000000     0.000000     0.012113
    2      N       0.000000     0.000000     1.132777
    3      O       0.000000     0.000000     2.315207
 ----------------------------------------------------
 Nuclear Repulsion Energy =    61.0666804187 hartrees
 There are       11 alpha and       11 beta electrons

                       Distance Matrix (Angstroms)
             N (  1)   N (  2)
   N (  2)  1.120664
   O (  3)  2.303094  1.182430
 
 Requested basis set is G3large
 There are 30 shells and 126 basis functions
 A cutoff of  1.0D-11 yielded    441 shell pairs
 There are   7928 function pairs ( 10417 Cartesian)
Evaluating contribution to one-electron hamiltonian from nuclear
 Smallest overlap matrix eigenvalue = 4.66E-05
 Multipole matrices computed through 2nd order
 Guess MOs from SCF MO coefficient file
Reading MOs from coefficient file
Reading MOs from coefficient file
 An unrestricted hybrid HF-DFT SCF calculation will be
 performed using Pulay DIIS extrapolation
 Exchange:     0.2000 Hartree-Fock + 0.0800 Slater + 0.7200 Becke88
 Correlation:  0.8100 LYP + 0.1900 VWN1RPA
 Using SG-1 standard quadrature grid
 SCF converges when DIIS error is below 1.0E-08
 ---------------------------------------
  Cycle       Energy         DIIS Error
 ---------------------------------------
    1    -184.7340405408      1.38E-04
    2    -184.7328191720      6.99E-05
    3    -184.7327912663      1.51E-04
    4    -184.7328262426      2.03E-05
    5    -184.7328267265      6.73E-06
    6    -184.7328268031      6.47E-07
    7    -184.7328267384      1.41E-07
    8    -184.7328267598      5.26E-08
    9    -184.7328267597      1.60E-09 Convergence criterion met
 ---------------------------------------
 One-Electron    Energy =  -371.5885595587
 Total Coulomb   Energy =   148.0961530400
 Alpha Exchange  Energy =    -2.1292110366
 Beta  Exchange  Energy =    -2.1292110366
 DFT   Exchange  Energy =   -17.0399551248
 DFT Correlation Energy =    -1.0087234616
 Nuclear Repu.   Energy =    61.0666804187
 Nuclear Attr.   Energy =  -555.7610931005
 Kinetic         Energy =   184.1725335418
 <S^2> = 0.0000
 SCF time:  CPU 18.80 s  wall 23.13 s
 Final Alpha MO Eigenvalues
            1           2           3           4           5           6
    1 -19.2309013 -14.5487719 -14.4170626  -1.2574421  -1.1017270  -0.6141619
            7           8           9          10          11          12
    1  -0.5766929  -0.5766929  -0.4876913  -0.3547655  -0.3547655  -0.0277918
           13          14          15          16
    1  -0.0277918   0.0022931   0.0800504   0.0909151
 Final Beta MO Eigenvalues
            1           2           3           4           5           6
    1 -19.2309013 -14.5487719 -14.4170626  -1.2574421  -1.1017270  -0.6141619
            7           8           9          10          11          12
    1  -0.5766929  -0.5766929  -0.4876913  -0.3547655  -0.3547655  -0.0277918
           13          14          15          16
    1  -0.0277918   0.0022931   0.0800504   0.0909151
 Analysis of SCF Wavefunction
 
 --------------------------------------------------------------
                    Orbital Energies (a.u.)
 --------------------------------------------------------------
 
 Alpha MOs
 -- Occupied --
-19.231 -14.549 -14.417  -1.257  -1.102  -0.614  -0.577  -0.577
 -0.488  -0.355  -0.355
 -- Virtual --
 -0.028  -0.028   0.002   0.080   0.091   0.091   0.135   0.154
  0.154   0.171   0.227   0.257   0.257   0.317   0.350   0.579
  0.681   0.681   0.761   0.761   0.775   0.775   0.789   0.858
  1.007   1.035   1.035   1.058   1.084   1.084   1.125   1.125
  1.179   1.576   1.576   1.620   1.674   1.674   1.930   2.316
  2.316   2.522   2.670   3.205   3.205   3.234   3.234   3.353
  3.507   3.507   3.588   3.588   3.706   3.706   3.861   3.861
  4.142   4.297   4.297   4.364   4.364   4.538   4.570   4.570
  4.571   4.720   4.720   4.770   4.770   4.986   4.986   5.045
  5.045   5.333   5.573   5.573   5.700   5.891   5.891   6.685
  6.685   6.960   7.144   7.144   7.401   7.401   7.669   8.643
 35.466  36.135  37.284  37.284  37.665  37.665  38.401  39.333
 40.246  40.345  40.380  40.445  40.445  40.479  40.597  40.747
 40.747  41.562  43.592  43.648  43.782  43.782  44.045  45.769
 45.769  46.681  50.473
 
 Beta MOs
 -- Occupied --
-19.231 -14.549 -14.417  -1.257  -1.102  -0.614  -0.577  -0.577
 -0.488  -0.355  -0.355
 -- Virtual --
 -0.028  -0.028   0.002   0.080   0.091   0.091   0.135   0.154
  0.154   0.171   0.227   0.257   0.257   0.317   0.350   0.579
  0.681   0.681   0.761   0.761   0.775   0.775   0.789   0.858
  1.007   1.035   1.035   1.058   1.084   1.084   1.125   1.125
  1.179   1.576   1.576   1.620   1.674   1.674   1.930   2.316
  2.316   2.522   2.670   3.205   3.205   3.234   3.234   3.353
  3.507   3.507   3.588   3.588   3.706   3.706   3.861   3.861
  4.142   4.297   4.297   4.364   4.364   4.538   4.570   4.570
  4.571   4.720   4.720   4.770   4.770   4.986   4.986   5.045
  5.045   5.333   5.573   5.573   5.700   5.891   5.891   6.685
  6.685   6.960   7.144   7.144   7.401   7.401   7.669   8.643
 35.466  36.135  37.284  37.284  37.665  37.665  38.401  39.333
 40.246  40.345  40.380  40.445  40.445  40.479  40.597  40.747
 40.747  41.562  43.592  43.648  43.782  43.782  44.045  45.769
 45.769  46.681  50.473
 --------------------------------------------------------------
 
          Ground-State Mulliken Net Atomic Charges

     Atom                 Charge (a.u.)    Spin (a.u.)
  --------------------------------------------------------
      1 N                    -0.140017       0.000000
      2 N                     0.347251       0.000000
      3 O                    -0.207234       0.000000
  --------------------------------------------------------
  Sum of atomic charges =     0.000000
  Sum of spin   charges =     0.000000

 -----------------------------------------------------------------
                    Cartesian Multipole Moments
 -----------------------------------------------------------------
    Charge (ESU x 10^10)
                 0.0000
    Dipole Moment (Debye)
         X       0.0000      Y       0.0000      Z      -0.0762
       Tot       0.0762
    Quadrupole Moments (Debye-Ang)
        XX     -15.3505     XY       0.0000     YY     -15.3505
        XZ       0.0000     YZ       0.0000     ZZ     -19.4810
    Octapole Moments (Debye-Ang^2)
       XXX       0.0000    XXY       0.0000    XYY       0.0000
       YYY       0.0000    XXZ     -17.4763    XYZ       0.0000
       YYZ     -17.4763    XZZ       0.0000    YZZ       0.0000
       ZZZ     -64.9353
    Hexadecapole Moments (Debye-Ang^3)
      XXXX     -12.6374   XXXY       0.0000   XXYY      -4.2125
      XYYY       0.0000   YYYY     -12.6374   XXXZ       0.0000
      XXYZ       0.0000   XYYZ       0.0000   YYYZ       0.0000
      XXZZ     -39.4871   XYZZ       0.0000   YYZZ     -39.4871
      XZZZ       0.0000   YZZZ       0.0000   ZZZZ    -251.0485
 -----------------------------------------------------------------
 Calculating analytic gradient of the SCF energy
 Gradient of XC Energy
            1           2           3
    1  -0.0000000   0.0000000  -0.0000000
    2   0.0000000  -0.0000000   0.0000000
    3  -0.5856745   0.1237977   0.4618768
 Gradient of SCF Energy
            1           2           3
    1   0.0000000  -0.0000000   0.0000000
    2  -0.0000000   0.0000000  -0.0000000
    3   0.0002416   0.0012314  -0.0014730
 Max gradient component =       1.473E-03
 RMS gradient           =       6.450E-04
 Gradient time:  CPU 10.34 s  wall 12.44 s
Dipole drv :
gprntSymmMtrx error report: 
 Final Hessian.
            1           2           3           4           5           6
    1   0.0363242  -0.0000001   0.0000009  -0.0709640   0.0000000  -0.0000006
    2  -0.0000001   0.0363242   0.0000007   0.0000000  -0.0709639  -0.0000004
    3   0.0000009   0.0000007   1.2674259   0.0000017   0.0000006  -1.1863273
    4  -0.0709640   0.0000000   0.0000017   0.1383038  -0.0000001  -0.0000014
    5   0.0000000  -0.0709639   0.0000006  -0.0000001   0.1383036  -0.0000005
    6  -0.0000006  -0.0000004  -1.1863273  -0.0000014  -0.0000005   1.8886223
    7   0.0346396   0.0000000   0.0000007  -0.0673396   0.0000001  -0.0000008
    8   0.0000001   0.0346396   0.0000003  -0.0000000  -0.0673397  -0.0000001
    9  -0.0000003  -0.0000003  -0.0810976  -0.0000003  -0.0000003  -0.7022975
            7           8           9
    1   0.0346396   0.0000001  -0.0000003
    2   0.0000000   0.0346396  -0.0000003
    3   0.0000007   0.0000003  -0.0810976
    4  -0.0673396  -0.0000000  -0.0000003
    5   0.0000001  -0.0673397  -0.0000003
    6  -0.0000008  -0.0000001  -0.7022975
    7   0.0327001  -0.0000000   0.0000000
    8  -0.0000000   0.0327001  -0.0000002
    9   0.0000000  -0.0000002   0.7833965
 Writing REM_CC_EA            3
 ----------------------------------------------------
       Standard Nuclear Orientation (Angstroms)
    I     Atom         X            Y            Z
 ----------------------------------------------------
    1      N       0.000000     0.000000     0.012113
    2      N       0.000000     0.000000     1.132777
    3      O       0.000000     0.000000     2.316207
 ----------------------------------------------------
 Nuclear Repulsion Energy =    61.0399186701 hartrees
 There are       11 alpha and       11 beta electrons
 old dipole drv.
            1           2           3           4           5           6
    1  -0.1090334   0.0000076  -0.0000000   0.2268119  -0.0000054   0.0000008
    2   0.0000002  -0.1090342   0.0000013  -0.0000000   0.2268094  -0.0000032
    3   0.0000097   0.0000065  -0.7485341   0.0000141   0.0000061   2.1237184
            7           8           9
    1  -0.1177602   0.0000029   0.0000011
    2   0.0000003  -0.1177588   0.0000017
    3   0.0000132   0.0000020  -1.3751686
 New transposed dipole drv.
            1           2           3
    1  -0.1090334   0.0000002   0.0000097
    2   0.0000076  -0.1090342   0.0000065
    3  -0.0000000   0.0000013  -0.7485341
    4   0.2268119  -0.0000000   0.0000141
    5  -0.0000054   0.2268094   0.0000061
    6   0.0000008  -0.0000032   2.1237184
    7  -0.1177602   0.0000003   0.0000132
    8   0.0000029  -0.1177588   0.0000020
    9   0.0000011   0.0000017  -1.3751686
FINAL TENSOR RESULT:
Order 2, Length 9
Order 1, Length 9
   0.0363242  -0.0000001   0.0000009  -0.0709640   0.0000000  -0.0000006   0.0346396   0.0000001  -0.0000003
Order 1, Length 9
  -0.0000001   0.0363242   0.0000007   0.0000000  -0.0709639  -0.0000004   0.0000000   0.0346396  -0.0000003
Order 1, Length 9
   0.0000009   0.0000007   1.2674259   0.0000017   0.0000006  -1.1863273   0.0000007   0.0000003  -0.0810976
Order 1, Length 9
  -0.0709640   0.0000000   0.0000017   0.1383038  -0.0000001  -0.0000014  -0.0673396  -0.0000000  -0.0000003
Order 1, Length 9
   0.0000000  -0.0709639   0.0000006  -0.0000001   0.1383036  -0.0000005   0.0000001  -0.0673397  -0.0000003
Order 1, Length 9
  -0.0000006  -0.0000004  -1.1863273  -0.0000014  -0.0000005   1.8886223  -0.0000008  -0.0000001  -0.7022975
Order 1, Length 9
   0.0346396   0.0000000   0.0000007  -0.0673396   0.0000001  -0.0000008   0.0327001  -0.0000000   0.0000000
Order 1, Length 9
   0.0000001   0.0346396   0.0000003  -0.0000000  -0.0673397  -0.0000001  -0.0000000   0.0327001  -0.0000002
Order 1, Length 9
  -0.0000003  -0.0000003  -0.0810976  -0.0000003  -0.0000003  -0.7022975   0.0000000  -0.0000002   0.7833965


 # Finishing finite difference calculation for IDERIV #
 ######################################################
 ######################################################
 Requested basis set is G3large
 There are 30 shells and 126 basis functions
 **********************************************************************
 **                                                                  **
 **                       VIBRATIONAL ANALYSIS                       **
 **                       --------------------                       **
 **                                                                  **
 **        VIBRATIONAL FREQUENCIES (CM**-1) AND NORMAL MODES         **
 **     FORCE CONSTANTS (mDYN/ANGSTROM) AND REDUCED MASSES (AMU)     **
 **                  INFRARED INTENSITIES (KM/MOL)                   **
 **                                                                  **
 **********************************************************************
 

 Mode:                 1                      2                      3
 Frequency:       619.57                 619.57                1326.64
 Force Cnst:      3.2236                 3.2236                15.6716
 Red. Mass:      14.2530                14.2530                15.1132
 IR Active:          YES                    YES                    YES
 IR Intens:        5.248                  5.248                 70.013
 Raman Active:       YES                    YES                    YES
               X      Y      Z        X      Y      Z        X      Y      Z
 N         -0.182 -0.387  0.000   -0.387  0.182  0.000    0.000  0.000 -0.625
 N          0.354  0.753  0.000    0.753 -0.354  0.000    0.000  0.000 -0.227
 O         -0.151 -0.320  0.000   -0.320  0.151  0.000    0.000  0.000  0.747
 TransDip   0.031  0.066  0.000    0.066 -0.031  0.000    0.000  0.000 -0.268

 Mode:                 4
 Frequency:      2343.06
 Force Cnst:     45.5587
 Red. Mass:      14.0849
 IR Active:          YES
 IR Intens:      398.365
 Raman Active:       YES
               X      Y      Z
 N          0.000  0.000 -0.567
 N          0.000  0.000  0.798
 O          0.000  0.000 -0.203
 TransDip   0.000  0.000  0.639

 STANDARD THERMODYNAMIC QUANTITIES AT   298.18 K  AND     1.00 ATM

   This Molecule has  0 Imaginary Frequencies
   Zero point vibrational energy:        7.018 kcal/mol

   Atom    1 Element N  Has Mass   14.00307
   Atom    2 Element N  Has Mass   14.00307
   Atom    3 Element O  Has Mass   15.99491
   Molecular Mass:    44.001050 amu
   Principal axes and moments of inertia in atomic units:
                             1           2           3
    Eigenvalues --        0.00000   141.94715   141.94715
          X               0.00000     0.00000     1.00000
          Y               0.00000     1.00000     0.00000
          Z               1.00000     0.00000     0.00000
   Rotational Symmetry Number is   1
   The Molecule is a Symmetric Top
   Translational Enthalpy:        0.889 kcal/mol
   Rotational Enthalpy:           0.889 kcal/mol
   Vibrational Enthalpy:          7.212 kcal/mol
   gas constant (RT):             0.593 kcal/mol
   Translational Entropy:        37.271  cal/mol.K
   Rotational Entropy:          -42.776  cal/mol.K
   Vibrational Entropy:           0.859  cal/mol.K

   Total Enthalpy:                9.582 kcal/mol
   Total Entropy:                -4.645  cal/mol.K
 Total job time:  628.47s(wall), 518.84s(cpu) 
 Wed Jul 24 16:12:32 2013

        *************************************************************
        *                                                           *
        *  Thank you very much for using Q-Chem.  Have a nice day.  *
        *                                                           *
        *************************************************************


0 sent ACK to 0 
now end server 0 ... 
