Process 0 of 1 is on cl183 - thread support 1
initial socket setup ...start
initial socket setup ...done 
now start server 0 ... 

cmd = /usr/bin/ssh clhead /usr/local/qchem/bin/get_hostid 835309968 > /tmp/1656820.1.medium.q/qchem31962/lic.dat

cmd = /usr/bin/ssh clhead /usr/local/qchem/bin/get_hostid 835309968 > /tmp/1656820.1.medium.q/qchem31962/lic.dat

cmd = /usr/bin/ssh clhead /usr/local/qchem/bin/get_hostid 835309968 > /tmp/1656820.1.medium.q/qchem31962/lic.dat

cmd = /usr/bin/ssh clhead /usr/local/qchem/bin/get_hostid 835309968 > /tmp/1656820.1.medium.q/qchem31962/lic.dat

cmd = /usr/bin/ssh clhead /usr/local/qchem/bin/get_hostid 835309968 > /tmp/1656820.1.medium.q/qchem31962/lic.dat
                  Welcome to Q-Chem
     A Quantum Leap Into The Future Of Chemistry

 Y. Shao, L. Fusti-Molnar, Y. Jung, J. Kussmann, C. Ochsenfeld,
 S. T. Brown, A. T. B. Gilbert, L. V. Slipchenko,S. V. Levchenko,
 D. P. O'Neill, R. A. DiStasio Jr., R. C. Lochan, T. Wang,
 G. J. O. Beran, N. A. Besley, J. M. Herbert, C. Y. Lin,
 T. Van Voorhis, S. H. Chien, A. Sodt, R. P. Steele, 
 V. A. Rassolov, P. E. Maslen, P. P. Korambath, R. D. Adamson,
 B. Austin, J. Baker, E. F. C. Byrd, H. Dachsel, R. J. Doerksen,
 A. Dreuw, B. D. Dunietz, A. D. Dutoi, T. R. Furlani,
 S. R. Gwaltney, A. Heyden, S. Hirata, C.-P. Hsu, G. Kedziora,
 R. Z. Khaliullin, P. Klunzinger, A. M. Lee, M. S. Lee, W. Liang,
 I. Lotan, N. Nair, B. Peters, E. I. Proynov, P. A. Pieniazek, 
 Y. M. Rhee, J. Ritchie, E. Rosta, C. D. Sherrill, 
 A. C. Simmonett, J. E. Subotnik, H. L. Woodcock III,
 W. Zhang, A. T. Bell, A. K. Chakraborty, D. M. Chipman,
 F. J. Keil, A. Warshel, W. J. Hehre, H. F. Schaefer III,
 J. Kong, A. I. Krylov, P. M. W. Gill, M. Head-Gordon,
 Q-Chem, Version 3.1, Q-Chem, Inc., Pittsburgh, PA (2007).

 Additional authors for Version 3.1: 
 Z. Gan, Y. Zhao, N. E. Schultz, D. Truhlar, E. Epifanovsky and M. Oana.

 Additional authors for Version 3.2: 
 R. Baer, B. R. Brooks, D. Casanova, J.-D. Chai, C.-L. Cheng, 
 C. Cramer, D. Crittenden, A. Ghysels, G. Hawkins, E. G. Hohenstein, 
 C. Kelley, W. Kurlancheek, D. Liotard, E. Livshits, P. Manohar, 
 A. Marenich, D. Neuhauser, R. Olson, M. A. Rohrdanz, K. S. Thanthiriwatte, 
 A. J. W. Thom, V. Vanovschi, C. F. Williams, Q. Wu and Z.-Q. You. 


 Intel X86 Linux Version

 Q-chem begins on Thu Jun 19 01:34:36 2014  

 Parallel job on  1  processors
Processing $rem in /usr/local/qchem/config/preferences.

theFileMan(): MAXOPENFILES=974 MAX_SUB_FILE_NUM=16
Maximum size of a physical file is 2.0 GB, maximum size of a tmp-file is 32.0 GB


--------------------------------------------------------------
User input:
--------------------------------------------------------------

$molecule
-1,2
V          0.03260       -1.87320        0.09818
O          0.08873       -3.27638       -0.62065
O          1.24907       -0.93737       -0.82191
O         -1.67099       -1.39830       -0.24263
O          0.49449       -2.36647        1.74418
N         -0.02368        0.23115        1.40233
C          2.14182        0.05739       -0.66285
C          3.40342       -0.10882       -1.26990
C          4.34362        0.91251       -1.14203
H          5.32663        0.82280       -1.59544
C          4.01799        2.05215       -0.42324
C          2.78699        2.22282        0.18410
H          2.57712        3.13007        0.74342
C          1.82699        1.21595        0.06427
C          0.46421        1.40388        0.66368
H         -0.26259        1.60305       -0.13463
H          0.47015        2.29263        1.31597
C         -1.39942        0.47043        1.86935
H         -1.42383        1.34444        2.54032
H         -1.70591       -0.39897        2.46341
C         -2.37052        0.66322        0.74404
C         -3.22288        1.76787        0.70603
H         -3.18065        2.53542        1.47350
C         -4.12976        1.87214       -0.33320
C         -4.22295        0.92379       -1.34059
H         -4.95046        1.05384       -2.13687
C         -3.38091       -0.18759       -1.32108
C         -2.45395       -0.30661       -0.26577
C          0.84366       -0.12811        2.52662
H          0.70567        0.54488        3.38825
H          1.88257       -0.03991        2.19393
C          0.56706       -1.57165        2.90555
H          1.37227       -1.96242        3.53899
H         -0.37234       -1.68319        3.46345
C          3.70420       -1.36413       -2.03147
H          3.61777       -2.24648       -1.38674
H          4.71528       -1.33689       -2.44694
H          2.99382       -1.50644       -2.85375
C         -3.44577       -1.24467       -2.38155
H         -2.48927       -1.33437       -2.90962
H         -4.22458       -1.01669       -3.11448
H         -3.65572       -2.22774       -1.94488
F         -4.95714        2.94563       -0.37239
F          4.94455        3.03396       -0.30495
$end

$comment
negative
$end

$xc_functional
C PBE   1.00
X wPBE  1.00
$end

$rem
SYMMETRY_DECOMPOSITION	0
exchange 		general
LRC_DFT                 true
BASIS                   gen
ECP                     lanl2dz
omega			1000
mem_static              760
max_scf_cycles          200
scf_final_print         1
sym_ignore              true
$end

$basis
   V 0
   lanl2dz
   ****
   O 0 
   6-31+G*
   ****
   N 0
   6-31+G*
   ****
   C 0
   6-31+G*
   ****
   H 0
   6-31+G*
   ****
   F 0
   6-31+G*
   ****
$end

--------------------------------------------------------------
 Writing REM_CC_EA           44
 ----------------------------------------------------
       Standard Nuclear Orientation (Angstroms)
    I     Atom         X            Y            Z
 ----------------------------------------------------
    1      V       0.032600    -1.873200     0.098180
    2      O       0.088730    -3.276380    -0.620650
    3      O       1.249070    -0.937370    -0.821910
    4      O      -1.670990    -1.398300    -0.242630
    5      O       0.494490    -2.366470     1.744180
    6      N      -0.023680     0.231150     1.402330
    7      C       2.141820     0.057390    -0.662850
    8      C       3.403420    -0.108820    -1.269900
    9      C       4.343620     0.912510    -1.142030
   10      H       5.326630     0.822800    -1.595440
   11      C       4.017990     2.052150    -0.423240
   12      C       2.786990     2.222820     0.184100
   13      H       2.577120     3.130070     0.743420
   14      C       1.826990     1.215950     0.064270
   15      C       0.464210     1.403880     0.663680
   16      H      -0.262590     1.603050    -0.134630
   17      H       0.470150     2.292630     1.315970
   18      C      -1.399420     0.470430     1.869350
   19      H      -1.423830     1.344440     2.540320
   20      H      -1.705910    -0.398970     2.463410
   21      C      -2.370520     0.663220     0.744040
   22      C      -3.222880     1.767870     0.706030
   23      H      -3.180650     2.535420     1.473500
   24      C      -4.129760     1.872140    -0.333200
   25      C      -4.222950     0.923790    -1.340590
   26      H      -4.950460     1.053840    -2.136870
   27      C      -3.380910    -0.187590    -1.321080
   28      C      -2.453950    -0.306610    -0.265770
   29      C       0.843660    -0.128110     2.526620
   30      H       0.705670     0.544880     3.388250
   31      H       1.882570    -0.039910     2.193930
   32      C       0.567060    -1.571650     2.905550
   33      H       1.372270    -1.962420     3.538990
   34      H      -0.372340    -1.683190     3.463450
   35      C       3.704200    -1.364130    -2.031470
   36      H       3.617770    -2.246480    -1.386740
   37      H       4.715280    -1.336890    -2.446940
   38      H       2.993820    -1.506440    -2.853750
   39      C      -3.445770    -1.244670    -2.381550
   40      H      -2.489270    -1.334370    -2.909620
   41      H      -4.224580    -1.016690    -3.114480
   42      H      -3.655720    -2.227740    -1.944880
   43      F      -4.957140     2.945630    -0.372390
   44      F       4.944550     3.033960    -0.304950
 ----------------------------------------------------
 Nuclear Repulsion Energy =  2631.8992343483 hartrees
 There are       99 alpha and       98 beta electrons

 Q-Chem warning in module BasisType.C, line 827:

 Setting pure/cartesian flag to 2111 for general basis


 Requested basis set is non-standard
 There are 169 shells and 508 basis functions

Total QAlloc Memory Limit   2000 MB
Mega-Array Size       743 MB
MEM_STATIC part       760 MB
 A cutoff of  1.0D-08 yielded   9221 shell pairs
 There are  90576 function pairs ( 98712 Cartesian)
Evaluating contribution to one-electron hamiltonian from nuclear
 Requested basis set is non-standard
 Compound shells will be simplified
Warning: Basis Set and ECP do not match
 There are 244 shells and 508 basis functions
 A cutoff of  1.0D-08 yielded  21038 shell pairs
 There are  90402 function pairs ( 98542 Cartesian)
 Smallest overlap matrix eigenvalue = 6.02E-07

 Q-Chem warning in module mkSTV.C, line 194:

 Overlap eigenvalue is smaller than square root of threshold

 Linear dependence detected in AO basis
 Number of orthogonalized atomic orbitals = 505
 Maximum deviation from orthogonality = 1.510E-10
 Multipole matrices computed through 2nd order

  Scale SEOQF with 1.000000e-02/1.000000e-01/1.000000e-01

 Standard Electronic Orientation quadrupole field applied
 Nucleus-field energy     =     0.0000000069 hartrees
 Guess MOs from core Hamiltonian diagonalization
 Long-range K will be added via erf
 Coulomb attenuation parameter = 1 bohr**(-1)
 An unrestricted Kohn-Sham SCF calculation will be
 performed using Pulay DIIS extrapolation
 Exchange:  wPBE + LR-HF      Correlation:  PBE
 Using SG-1 standard quadrature grid
 SCF converges when DIIS error is below 1.0E-05
 Requested basis set is non-standard
 There are 169 shells and 508 basis functions
 A cutoff of  1.0D-08 yielded   9221 shell pairs
 There are  90576 function pairs ( 98712 Cartesian)
 ---------------------------------------
  Cycle       Energy         DIIS Error
 ---------------------------------------
    1    -590.8912611854      8.01E-02
    2     367.0610746527      9.92E-02
    3    -808.7873111285      8.39E-02
    4    -986.6356961840      7.02E-02
    5   -1034.4943261674      6.06E-02
    6   -1141.8695174892      4.80E-02
    7    -980.4983064239      6.57E-02
    8   -1310.3790819556      1.45E-02
    9   -1201.6277278856      4.21E-02
   10   -1321.6367920747      5.27E-03
   11   -1322.2421235081      2.71E-03
   12   -1322.4247812328      1.19E-03
   13   -1322.4624571427      6.97E-04
   14   -1322.4772531589      3.29E-04
   15   -1322.4815474400      1.49E-04
   16   -1322.4832578409      6.72E-05
   17   -1322.4837413279      2.70E-05
   18   -1322.4840032957      1.63E-05
   19   -1322.4841865447      1.42E-05
   20   -1322.4844631295      1.60E-05
   21   -1322.4844686480      1.65E-05
   22   -1322.4844491449      1.66E-05
   23   -1322.4844397228      1.64E-05
   24   -1322.4844331317      1.61E-05
   25   -1322.4844162182      1.61E-05
   26   -1322.4844039389      1.61E-05
   27   -1322.4843765117      1.60E-05
   28   -1322.4843316803      1.63E-05
   29   -1322.4842818736      1.54E-05
   30   -1322.4842465296      1.66E-05
   31   -1322.4841482774      1.71E-05
   32   -1322.4841186486      1.90E-05
   33   -1322.4840843143      1.74E-05
   34   -1322.4839999364      1.66E-05
   35   -1322.4841095870      1.40E-05
   36   -1322.4842442935      1.62E-05
   37   -1322.4843674630      1.77E-05
   38   -1322.4843709972      1.63E-05
   39   -1322.4844775414      1.69E-05
   40   -1322.4844676300      1.67E-05
   41   -1322.4845138499      1.71E-05
   42   -1322.4845453575      1.72E-05
   43   -1322.4845333700      1.72E-05
   44   -1322.4844978714      1.70E-05
   45   -1322.4845077689      1.76E-05
   46   -1322.4844954345      1.55E-05
   47   -1322.4844961875      1.46E-05
   48   -1322.4845230080      1.50E-05
   49   -1322.4845486757      1.50E-05
   50   -1322.4843899620      1.27E-05
   51   -1322.4844256964      1.50E-05
   52   -1322.4842291860      1.60E-05
   53   -1322.4842206849      1.63E-05
   54   -1322.4842423869      1.63E-05
   55   -1322.4842720759      1.64E-05
   56   -1322.4842765067      1.64E-05
   57   -1322.4843441957      1.56E-05
   58   -1322.4843508097      1.58E-05
   59   -1322.4843979612      1.47E-05
   60   -1322.4844589954      1.59E-05
   61   -1322.4843579847      1.58E-05
   62   -1322.4843889024      1.59E-05
   63   -1322.4844578959      1.56E-05
   64   -1322.4844533539      1.59E-05
   65   -1322.4845629290      1.53E-05
   66   -1322.4846497234      1.47E-05
   67   -1322.4847002320      1.46E-05
   68   -1322.4846987609      1.30E-05
   69   -1322.4847640784      1.49E-05
   70   -1322.4849030115      1.84E-05
   71   -1322.4846731469      1.53E-05
   72   -1322.4847276557      1.72E-05
   73   -1322.4847767103      1.70E-05
   74   -1322.4848441456      1.75E-05
   75   -1322.4848469994      1.68E-05
   76   -1322.4847212083      1.65E-05
   77   -1322.4847379277      1.74E-05
   78   -1322.4847738159      1.84E-05
   79   -1322.4847953582      1.81E-05
   80   -1322.4848039870      1.88E-05
   81   -1322.4847961971      2.00E-05
   82   -1322.4847191622      2.06E-05
   83   -1322.4846919970      2.08E-05
   84   -1322.4846581695      2.03E-05
   85   -1322.4845941671      2.45E-05
   86   -1322.4846334756      2.34E-05
   87   -1322.4847076312      2.38E-05
   88   -1322.4848160335      2.29E-05
   89   -1322.4851496866      2.51E-05
   90   -1322.4851000934      2.45E-05
   91   -1322.4852345328      3.11E-05
   92   -1322.4852684021      3.25E-05
   93   -1322.4854293770      3.99E-05
   94   -1322.4854495290      4.09E-05
   95   -1322.4855007594      4.22E-05
   96   -1322.4855623802      4.44E-05
   97   -1322.4855471483      4.38E-05
   98   -1322.4854186346      3.95E-05
   99   -1322.4852400701      3.79E-05
  100   -1322.4852233938      4.34E-05
  101   -1322.4849786111      3.64E-05
  102   -1322.4851734998      4.11E-05
  103   -1322.4847863242      2.59E-05
  104   -1322.4847111809      2.19E-05
  105   -1322.4847351914      1.99E-05
  106   -1322.4847368342      1.64E-05
  107   -1322.4847640192      1.18E-05
  108   -1322.4850068318      1.08E-05
  109   -1322.4853039053      1.25E-05
  110   -1322.4854196693      9.64E-06 Convergence criterion met
 ---------------------------------------
 One-Electron    Energy = -7091.6995162035
 Total Coulomb   Energy =  3311.7746935561
 Alpha Exchange  Energy =   -38.1999382660
 Beta  Exchange  Energy =   -37.8298264999
 DFT   Exchange  Energy =   -91.6244149457
 DFT Correlation Energy =    -6.8056516656
 Nuclear Repu.   Energy =  2631.8992343552
 Nuclear Attr.   Energy = -8376.5114180002
 Kinetic         Energy =  1284.8119017967
 <S^2> = 0.8939
 SCF time:  CPU 24087.37 s  wall 24142.98 s
 Final Alpha MO Eigenvalues
            1           2           3           4           5           6
    1 -24.7161389 -24.6517171 -19.1979670 -19.1978193 -19.1967196 -19.1887178
            7           8           9          10          11          12
    1 -14.4622056 -10.4473329 -10.4196960 -10.3947341 -10.3878174 -10.3767341
           13          14          15          16          17          18
    1 -10.3739242 -10.3730814 -10.3672406 -10.3658062 -10.3656186 -10.3511926
           19          20          21          22          23          24
    1 -10.3476261 -10.3403357 -10.2834385 -10.2767727 -10.2709397 -10.2579314
           25          26          27          28          29          30
    1 -10.2519426  -3.0881598  -2.0599492  -2.0423994  -2.0395173  -1.4756483
           31          32          33          34          35          36
    1  -1.4103691  -1.2442649  -1.2227188  -1.2110702  -1.1566850  -1.0943170
           37          38          39          40          41          42
    1  -1.0821908  -1.0066870  -0.9975449  -0.9503837  -0.9393496  -0.9105095
           43          44          45          46          47          48
    1  -0.8862995  -0.8742456  -0.8485895  -0.8045859  -0.8005129  -0.7638880
           49          50          51          52          53          54
    1  -0.7539655  -0.7309002  -0.6939880  -0.6885417  -0.6618756  -0.6557451
           55          56          57          58          59          60
    1  -0.6355825  -0.6187786  -0.6152146  -0.6064011  -0.5979308  -0.5932026
           61          62          63          64          65          66
    1  -0.5822352  -0.5733826  -0.5591132  -0.5533055  -0.5515668  -0.5437200
           67          68          69          70          71          72
    1  -0.5377072  -0.5306681  -0.5248870  -0.5113086  -0.5058312  -0.5019806
           73          74          75          76          77          78
    1  -0.4927221  -0.4893690  -0.4778355  -0.4707573  -0.4682131  -0.4657325
           79          80          81          82          83          84
    1  -0.4642408  -0.4580873  -0.4541806  -0.4456866  -0.4416369  -0.4375151
           85          86          87          88          89          90
    1  -0.4291467  -0.4202081  -0.4048053  -0.3982712  -0.3842993  -0.3739824
           91          92          93          94          95          96
    1  -0.3705726  -0.3681137  -0.3491043  -0.3150669  -0.3000258  -0.2641456
           97          98          99         100         101         102
    1  -0.2564981  -0.2223345  -0.0241019   0.1136462   0.1197846   0.1223188
          103         104
    1   0.1269910   0.1300242
 Final Beta MO Eigenvalues
            1           2           3           4           5           6
    1 -24.7161683 -24.6517742 -19.1979930 -19.1955618 -19.1940004 -19.1885558
            7           8           9          10          11          12
    1 -14.4618367 -10.4475860 -10.4194552 -10.3947888 -10.3877616 -10.3780642
           13          14          15          16          17          18
    1 -10.3741516 -10.3733321 -10.3670019 -10.3655668 -10.3655498 -10.3553698
           19          20          21          22          23          24
    1 -10.3484066 -10.3403201 -10.2840869 -10.2709317 -10.2634375 -10.2544954
           25          26          27          28          29          30
    1 -10.2481451  -3.0972424  -2.0663131  -2.0567020  -2.0557894  -1.4757775
           31          32          33          34          35          36
    1  -1.4105981  -1.2442713  -1.2162701  -1.2079792  -1.1555016  -1.0900639
           37          38          39          40          41          42
    1  -1.0820661  -1.0004334  -0.9906607  -0.9501946  -0.9314498  -0.9047358
           43          44          45          46          47          48
    1  -0.8812338  -0.8733880  -0.8427137  -0.8028559  -0.7947313  -0.7636243
           49          50          51          52          53          54
    1  -0.7540785  -0.7284261  -0.6891251  -0.6792070  -0.6617702  -0.6552842
           55          56          57          58          59          60
    1  -0.6360148  -0.6192219  -0.6140016  -0.6053470  -0.5936635  -0.5903121
           61          62          63          64          65          66
    1  -0.5797661  -0.5715197  -0.5588526  -0.5520881  -0.5509982  -0.5436417
           67          68          69          70          71          72
    1  -0.5377290  -0.5311912  -0.5254411  -0.5067997  -0.5022443  -0.4969000
           73          74          75          76          77          78
    1  -0.4885296  -0.4806157  -0.4767836  -0.4702586  -0.4650620  -0.4639891
           79          80          81          82          83          84
    1  -0.4627326  -0.4555516  -0.4468516  -0.4401352  -0.4374851  -0.4345576
           85          86          87          88          89          90
    1  -0.4266967  -0.4179984  -0.4019892  -0.3954261  -0.3816036  -0.3715985
           91          92          93          94          95          96
    1  -0.3670312  -0.3455523  -0.3304945  -0.3124337  -0.2987086  -0.2596821
           97          98          99         100         101         102
    1  -0.1882562  -0.1811737   0.0808425   0.1188768   0.1221811   0.1249024
          103
    1   0.1285777
 Analysis of SCF Wavefunction
 
 --------------------------------------------------------------
                    Orbital Energies (a.u.)
 --------------------------------------------------------------
 
 Alpha MOs
 -- Occupied --
-24.716 -24.652 -19.198 -19.198 -19.197 -19.189 -14.462 -10.447
-10.420 -10.395 -10.388 -10.377 -10.374 -10.373 -10.367 -10.366
-10.366 -10.351 -10.348 -10.340 -10.283 -10.277 -10.271 -10.258
-10.252  -3.088  -2.060  -2.042  -2.040  -1.476  -1.410  -1.244
 -1.223  -1.211  -1.157  -1.094  -1.082  -1.007  -0.998  -0.950
 -0.939  -0.911  -0.886  -0.874  -0.849  -0.805  -0.801  -0.764
 -0.754  -0.731  -0.694  -0.689  -0.662  -0.656  -0.636  -0.619
 -0.615  -0.606  -0.598  -0.593  -0.582  -0.573  -0.559  -0.553
 -0.552  -0.544  -0.538  -0.531  -0.525  -0.511  -0.506  -0.502
 -0.493  -0.489  -0.478  -0.471  -0.468  -0.466  -0.464  -0.458
 -0.454  -0.446  -0.442  -0.438  -0.429  -0.420  -0.405  -0.398
 -0.384  -0.374  -0.371  -0.368  -0.349  -0.315  -0.300  -0.264
 -0.256  -0.222  -0.024
 -- Virtual --
  0.114   0.120   0.122   0.127   0.130   0.140   0.148   0.149
  0.153   0.159   0.163   0.170   0.170   0.172   0.178   0.183
  0.190   0.194   0.196   0.197   0.203   0.207   0.210   0.215
  0.221   0.222   0.226   0.229   0.233   0.239   0.240   0.247
  0.250   0.253   0.257   0.260   0.265   0.268   0.272   0.279
  0.281   0.283   0.287   0.291   0.295   0.305   0.308   0.311
  0.313   0.318   0.320   0.328   0.329   0.333   0.336   0.342
  0.344   0.348   0.353   0.357   0.358   0.361   0.363   0.370
  0.374   0.377   0.382   0.383   0.389   0.390   0.394   0.396
  0.401   0.403   0.405   0.415   0.417   0.421   0.426   0.428
  0.430   0.439   0.440   0.444   0.446   0.452   0.455   0.459
  0.460   0.465   0.469   0.474   0.478   0.482   0.487   0.490
  0.493   0.499   0.505   0.507   0.509   0.515   0.521   0.522
  0.528   0.531   0.538   0.541   0.543   0.546   0.550   0.552
  0.557   0.559   0.567   0.569   0.575   0.583   0.584   0.586
  0.588   0.591   0.593   0.598   0.600   0.606   0.618   0.619
  0.624   0.628   0.634   0.637   0.640   0.644   0.651   0.655
  0.658   0.660   0.670   0.678   0.685   0.690   0.695   0.704
  0.711   0.715   0.717   0.746   0.752   0.767   0.769   0.784
  0.806   0.843   0.862   0.881   0.887   0.901   0.911   0.920
  0.946   0.952   0.959   0.970   0.977   0.982   0.990   1.011
  1.013   1.017   1.023   1.035   1.040   1.047   1.052   1.060
  1.062   1.067   1.080   1.086   1.092   1.103   1.108   1.113
  1.115   1.121   1.126   1.141   1.147   1.157   1.171   1.176
  1.178   1.184   1.194   1.198   1.211   1.224   1.239   1.242
  1.252   1.265   1.270   1.273   1.286   1.297   1.301   1.316
  1.324   1.332   1.341   1.347   1.357   1.364   1.369   1.383
  1.392   1.401   1.411   1.425   1.437   1.445   1.449   1.458
  1.469   1.477   1.490   1.492   1.499   1.514   1.517   1.518
  1.538   1.539   1.546   1.553   1.571   1.583   1.590   1.597
  1.600   1.613   1.626   1.628   1.631   1.637   1.642   1.643
  1.661   1.668   1.671   1.685   1.692   1.698   1.703   1.707
  1.721   1.725   1.733   1.743   1.757   1.764   1.769   1.787
  1.791   1.816   1.838   1.855   1.862   1.877   1.895   1.916
  1.917   1.940   1.960   1.965   1.988   1.996   2.015   2.018
  2.038   2.046   2.059   2.069   2.082   2.094   2.098   2.101
  2.107   2.119   2.128   2.136   2.139   2.144   2.154   2.165
  2.173   2.176   2.191   2.191   2.195   2.210   2.214   2.222
  2.235   2.240   2.244   2.253   2.259   2.276   2.278   2.282
  2.289   2.298   2.304   2.312   2.322   2.328   2.330   2.338
  2.347   2.352   2.364   2.369   2.388   2.391   2.400   2.414
  2.430   2.439   2.446   2.450   2.466   2.483   2.491   2.499
  2.513   2.518   2.543   2.552   2.561   2.578   2.580   2.589
  2.595   2.606   2.620   2.640   2.654   2.662   2.664   2.677
  2.682   2.701   2.702   2.711   2.717   2.733   2.741   2.752
  2.766   2.767   2.772   2.790   2.793   2.805   2.822   2.832
  2.840   2.860   2.884   2.899   2.919   2.934   2.958   2.982
  2.999   3.001   3.025   3.059   3.079   3.090   3.116   3.128
  3.170   3.179   3.195   3.227   3.238   3.264   3.295   3.311
  3.342   3.355   3.390   3.420   3.463   3.496   3.541   3.597
  3.609   3.670   3.685   3.840   3.919  59.753
 
 Beta MOs
 -- Occupied --
-24.716 -24.652 -19.198 -19.196 -19.194 -19.189 -14.462 -10.448
-10.419 -10.395 -10.388 -10.378 -10.374 -10.373 -10.367 -10.366
-10.366 -10.355 -10.348 -10.340 -10.284 -10.271 -10.263 -10.254
-10.248  -3.097  -2.066  -2.057  -2.056  -1.476  -1.411  -1.244
 -1.216  -1.208  -1.156  -1.090  -1.082  -1.000  -0.991  -0.950
 -0.931  -0.905  -0.881  -0.873  -0.843  -0.803  -0.795  -0.764
 -0.754  -0.728  -0.689  -0.679  -0.662  -0.655  -0.636  -0.619
 -0.614  -0.605  -0.594  -0.590  -0.580  -0.572  -0.559  -0.552
 -0.551  -0.544  -0.538  -0.531  -0.525  -0.507  -0.502  -0.497
 -0.489  -0.481  -0.477  -0.470  -0.465  -0.464  -0.463  -0.456
 -0.447  -0.440  -0.437  -0.435  -0.427  -0.418  -0.402  -0.395
 -0.382  -0.372  -0.367  -0.346  -0.330  -0.312  -0.299  -0.260
 -0.188  -0.181
 -- Virtual --
  0.081   0.119   0.122   0.125   0.129   0.140   0.148   0.148
  0.151   0.156   0.157   0.169   0.170   0.172   0.177   0.183
  0.190   0.192   0.196   0.198   0.202   0.205   0.209   0.214
  0.220   0.222   0.226   0.228   0.232   0.239   0.239   0.246
  0.249   0.251   0.256   0.259   0.263   0.268   0.270   0.273
  0.278   0.282   0.284   0.290   0.293   0.299   0.306   0.311
  0.311   0.315   0.317   0.321   0.329   0.331   0.333   0.338
  0.342   0.345   0.349   0.354   0.358   0.361   0.362   0.364
  0.371   0.375   0.378   0.384   0.386   0.389   0.392   0.394
  0.396   0.403   0.404   0.406   0.416   0.418   0.425   0.428
  0.430   0.431   0.440   0.443   0.446   0.448   0.453   0.459
  0.460   0.461   0.469   0.474   0.477   0.478   0.486   0.490
  0.491   0.497   0.500   0.506   0.509   0.513   0.516   0.522
  0.525   0.531   0.534   0.539   0.542   0.547   0.547   0.551
  0.553   0.559   0.560   0.569   0.570   0.576   0.583   0.586
  0.588   0.589   0.593   0.595   0.599   0.605   0.610   0.618
  0.621   0.626   0.629   0.636   0.639   0.644   0.645   0.653
  0.655   0.658   0.663   0.672   0.679   0.686   0.691   0.695
  0.705   0.715   0.717   0.720   0.748   0.755   0.768   0.771
  0.785   0.807   0.843   0.862   0.881   0.887   0.902   0.911
  0.921   0.948   0.953   0.962   0.971   0.980   0.983   0.990
  1.012   1.017   1.018   1.024   1.036   1.044   1.050   1.054
  1.062   1.065   1.069   1.086   1.088   1.095   1.106   1.111
  1.115   1.121   1.124   1.131   1.148   1.150   1.162   1.177
  1.179   1.181   1.186   1.197   1.205   1.221   1.228   1.240
  1.245   1.254   1.267   1.273   1.276   1.288   1.298   1.303
  1.319   1.325   1.334   1.341   1.348   1.358   1.365   1.370
  1.384   1.393   1.402   1.413   1.426   1.439   1.446   1.450
  1.460   1.470   1.479   1.491   1.493   1.500   1.515   1.518
  1.520   1.539   1.541   1.549   1.555   1.573   1.587   1.591
  1.600   1.606   1.614   1.627   1.633   1.634   1.640   1.644
  1.649   1.663   1.670   1.676   1.687   1.693   1.699   1.706
  1.709   1.722   1.727   1.736   1.749   1.760   1.769   1.774
  1.788   1.794   1.822   1.847   1.859   1.863   1.879   1.898
  1.917   1.920   1.943   1.961   1.966   1.989   1.996   2.015
  2.018   2.039   2.046   2.060   2.072   2.083   2.095   2.099
  2.104   2.108   2.121   2.129   2.136   2.143   2.145   2.157
  2.167   2.174   2.178   2.192   2.193   2.200   2.210   2.216
  2.224   2.237   2.243   2.245   2.254   2.263   2.278   2.279
  2.284   2.291   2.299   2.306   2.314   2.323   2.330   2.333
  2.340   2.353   2.354   2.365   2.373   2.390   2.399   2.402
  2.417   2.431   2.440   2.451   2.453   2.469   2.485   2.492
  2.502   2.516   2.518   2.545   2.556   2.562   2.580   2.582
  2.590   2.596   2.607   2.621   2.641   2.655   2.663   2.667
  2.679   2.685   2.702   2.705   2.715   2.722   2.737   2.750
  2.756   2.768   2.771   2.775   2.791   2.795   2.808   2.828
  2.831   2.843   2.861   2.885   2.899   2.920   2.935   2.959
  2.983   3.000   3.006   3.026   3.061   3.090   3.093   3.118
  3.131   3.173   3.182   3.200   3.227   3.241   3.264   3.297
  3.314   3.343   3.356   3.390   3.426   3.465   3.496   3.544
  3.597   3.609   3.670   3.687   3.840   3.921  59.746
 --------------------------------------------------------------
 
          Ground-State Mulliken Net Atomic Charges

     Atom                 Charge (a.u.)    Spin (a.u.)
  --------------------------------------------------------
      1 V                     1.481478      -0.207226
      2 O                    -0.268236       0.043825
      3 O                    -0.521939       0.143473
      4 O                    -0.607274      -0.000941
      5 O                    -0.582106      -0.007187
      6 N                    -0.253468       0.047092
      7 C                    -0.883014      -0.196432
      8 C                     0.862516       0.310661
      9 C                    -0.553891       0.413813
     10 H                     0.222221      -0.026972
     11 C                    -0.480573      -0.133446
     12 C                    -0.295716       0.403755
     13 H                     0.219212      -0.026933
     14 C                     0.913923       0.338000
     15 C                    -0.591978      -0.131077
     16 H                     0.255347       0.026136
     17 H                     0.207996       0.005201
     18 C                    -0.725956       0.025814
     19 H                     0.221670      -0.000367
     20 H                     0.244460      -0.000891
     21 C                     1.239566      -0.000105
     22 C                     0.052222      -0.017176
     23 H                     0.264237      -0.001173
     24 C                    -0.668807      -0.025907
     25 C                    -0.497328       0.014421
     26 H                     0.266127      -0.001195
     27 C                     0.746594      -0.024301
     28 C                    -0.547523       0.051304
     29 C                    -0.312945      -0.010539
     30 H                     0.211071      -0.000256
     31 H                     0.309624      -0.003020
     32 C                    -0.242546      -0.002577
     33 H                     0.217710       0.001278
     34 H                     0.192261       0.001350
     35 C                    -0.925172      -0.048326
     36 H                     0.225973       0.016873
     37 H                     0.208878       0.001428
     38 H                     0.223458       0.016199
     39 C                    -0.772615       0.005332
     40 H                     0.266625      -0.000669
     41 H                     0.217421      -0.000058
     42 H                     0.255314      -0.000652
     43 F                    -0.386098      -0.000050
     44 F                    -0.408718       0.001520
  --------------------------------------------------------
  Sum of atomic charges =    -1.000000
  Sum of spin   charges =     1.000000

 -----------------------------------------------------------------
                    Cartesian Multipole Moments
 -----------------------------------------------------------------
    Charge (ESU x 10^10)
                -4.8032
    Dipole Moment (Debye)
         X      -9.1068      Y      -0.7365      Z       4.4542
       Tot      10.1645
    Quadrupole Moments (Debye-Ang)
        XX    -227.5268     XY     -11.3640     YY    -203.4776
        XZ       8.9146     YZ       3.8226     ZZ    -157.4401
    Octapole Moments (Debye-Ang^2)
       XXX    -142.7700    XXY    -155.8745    XYY     -40.5590
       YYY      -3.5338    XXZ      10.9049    XYZ      -1.9594
       YYZ      22.5609    XZZ     -35.1322    YZZ      -7.1329
       ZZZ      31.4762
    Hexadecapole Moments (Debye-Ang^3)
      XXXX   -9130.7948   XXXY    -190.0262   XXYY   -2227.2462
      XYYY     -67.0447   YYYY   -3245.2347   XXXZ     174.5761
      XXYZ      40.9735   XYYZ      11.1574   YYYZ      22.8771
      XXZZ   -1588.0754   XYZZ     -34.3771   YYZZ    -823.0781
      XZZZ      96.7454   YZZZ     -25.1415   ZZZZ   -1929.1115
 -----------------------------------------------------------------
 Total job time:  24146.41s(wall), 24090.35s(cpu) 
 Thu Jun 19 08:17:03 2014

        *************************************************************
        *                                                           *
        *  Thank you very much for using Q-Chem.  Have a nice day.  *
        *                                                           *
        *************************************************************


0 sent ACK to 0 
now end server 0 ... 
 
**********************************************************************
Job 2 of 3 
**********************************************************************
 
Process 0 of 1 is on cl183 - thread support 1
initial socket setup ...start
initial socket setup ...done 
now start server 0 ... 

cmd = /usr/bin/ssh clhead /usr/local/qchem/bin/get_hostid 249355397 > /tmp/1656820.1.medium.q/qchem31962/lic.dat

cmd = /usr/bin/ssh clhead /usr/local/qchem/bin/get_hostid 249355397 > /tmp/1656820.1.medium.q/qchem31962/lic.dat

cmd = /usr/bin/ssh clhead /usr/local/qchem/bin/get_hostid 249355397 > /tmp/1656820.1.medium.q/qchem31962/lic.dat

cmd = /usr/bin/ssh clhead /usr/local/qchem/bin/get_hostid 249355397 > /tmp/1656820.1.medium.q/qchem31962/lic.dat

cmd = /usr/bin/ssh clhead /usr/local/qchem/bin/get_hostid 249355397 > /tmp/1656820.1.medium.q/qchem31962/lic.dat
                  Welcome to Q-Chem
     A Quantum Leap Into The Future Of Chemistry

 Y. Shao, L. Fusti-Molnar, Y. Jung, J. Kussmann, C. Ochsenfeld,
 S. T. Brown, A. T. B. Gilbert, L. V. Slipchenko,S. V. Levchenko,
 D. P. O'Neill, R. A. DiStasio Jr., R. C. Lochan, T. Wang,
 G. J. O. Beran, N. A. Besley, J. M. Herbert, C. Y. Lin,
 T. Van Voorhis, S. H. Chien, A. Sodt, R. P. Steele, 
 V. A. Rassolov, P. E. Maslen, P. P. Korambath, R. D. Adamson,
 B. Austin, J. Baker, E. F. C. Byrd, H. Dachsel, R. J. Doerksen,
 A. Dreuw, B. D. Dunietz, A. D. Dutoi, T. R. Furlani,
 S. R. Gwaltney, A. Heyden, S. Hirata, C.-P. Hsu, G. Kedziora,
 R. Z. Khaliullin, P. Klunzinger, A. M. Lee, M. S. Lee, W. Liang,
 I. Lotan, N. Nair, B. Peters, E. I. Proynov, P. A. Pieniazek, 
 Y. M. Rhee, J. Ritchie, E. Rosta, C. D. Sherrill, 
 A. C. Simmonett, J. E. Subotnik, H. L. Woodcock III,
 W. Zhang, A. T. Bell, A. K. Chakraborty, D. M. Chipman,
 F. J. Keil, A. Warshel, W. J. Hehre, H. F. Schaefer III,
 J. Kong, A. I. Krylov, P. M. W. Gill, M. Head-Gordon,
 Q-Chem, Version 3.1, Q-Chem, Inc., Pittsburgh, PA (2007).

 Additional authors for Version 3.1: 
 Z. Gan, Y. Zhao, N. E. Schultz, D. Truhlar, E. Epifanovsky and M. Oana.

 Additional authors for Version 3.2: 
 R. Baer, B. R. Brooks, D. Casanova, J.-D. Chai, C.-L. Cheng, 
 C. Cramer, D. Crittenden, A. Ghysels, G. Hawkins, E. G. Hohenstein, 
 C. Kelley, W. Kurlancheek, D. Liotard, E. Livshits, P. Manohar, 
 A. Marenich, D. Neuhauser, R. Olson, M. A. Rohrdanz, K. S. Thanthiriwatte, 
 A. J. W. Thom, V. Vanovschi, C. F. Williams, Q. Wu and Z.-Q. You. 


 Intel X86 Linux Version

 Q-chem begins on Thu Jun 19 08:17:07 2014  

 Parallel job on  1  processors
Processing $rem in /usr/local/qchem/config/preferences.

theFileMan(): MAXOPENFILES=974 MAX_SUB_FILE_NUM=16
Maximum size of a physical file is 2.0 GB, maximum size of a tmp-file is 32.0 GB


--------------------------------------------------------------
User input:
--------------------------------------------------------------

$molecule
0,1
V          0.03260       -1.87320        0.09818
O          0.08873       -3.27638       -0.62065
O          1.24907       -0.93737       -0.82191
O         -1.67099       -1.39830       -0.24263
O          0.49449       -2.36647        1.74418
N         -0.02368        0.23115        1.40233
C          2.14182        0.05739       -0.66285
C          3.40342       -0.10882       -1.26990
C          4.34362        0.91251       -1.14203
H          5.32663        0.82280       -1.59544
C          4.01799        2.05215       -0.42324
C          2.78699        2.22282        0.18410
H          2.57712        3.13007        0.74342
C          1.82699        1.21595        0.06427
C          0.46421        1.40388        0.66368
H         -0.26259        1.60305       -0.13463
H          0.47015        2.29263        1.31597
C         -1.39942        0.47043        1.86935
H         -1.42383        1.34444        2.54032
H         -1.70591       -0.39897        2.46341
C         -2.37052        0.66322        0.74404
C         -3.22288        1.76787        0.70603
H         -3.18065        2.53542        1.47350
C         -4.12976        1.87214       -0.33320
C         -4.22295        0.92379       -1.34059
H         -4.95046        1.05384       -2.13687
C         -3.38091       -0.18759       -1.32108
C         -2.45395       -0.30661       -0.26577
C          0.84366       -0.12811        2.52662
H          0.70567        0.54488        3.38825
H          1.88257       -0.03991        2.19393
C          0.56706       -1.57165        2.90555
H          1.37227       -1.96242        3.53899
H         -0.37234       -1.68319        3.46345
C          3.70420       -1.36413       -2.03147
H          3.61777       -2.24648       -1.38674
H          4.71528       -1.33689       -2.44694
H          2.99382       -1.50644       -2.85375
C         -3.44577       -1.24467       -2.38155
H         -2.48927       -1.33437       -2.90962
H         -4.22458       -1.01669       -3.11448
H         -3.65572       -2.22774       -1.94488
F         -4.95714        2.94563       -0.37239
F          4.94455        3.03396       -0.30495
$end

$comment
neutral
$end

$xc_functional
C PBE   1.00
X wPBE  1.00
$end


$rem
SYMMETRY_DECOMPOSITION	0
LRC_DFT                 true
exchange 		general
BASIS                   gen
ECP                     lanl2dz
omega			1000
mem_static              760
max_scf_cycles          200
scf_final_print         1
sym_ignore              true
$end

$basis
   V 0
   lanl2dz
   ****
   O 0 
   6-31+G*
   ****
   N 0
   6-31+G*
   ****
   C 0
   6-31+G*
   ****
   H 0
   6-31+G*
   ****
   F 0
   6-31+G*
   ****
$end

--------------------------------------------------------------
 Writing REM_CC_EA           44
 ----------------------------------------------------
       Standard Nuclear Orientation (Angstroms)
    I     Atom         X            Y            Z
 ----------------------------------------------------
    1      V       0.032600    -1.873200     0.098180
    2      O       0.088730    -3.276380    -0.620650
    3      O       1.249070    -0.937370    -0.821910
    4      O      -1.670990    -1.398300    -0.242630
    5      O       0.494490    -2.366470     1.744180
    6      N      -0.023680     0.231150     1.402330
    7      C       2.141820     0.057390    -0.662850
    8      C       3.403420    -0.108820    -1.269900
    9      C       4.343620     0.912510    -1.142030
   10      H       5.326630     0.822800    -1.595440
   11      C       4.017990     2.052150    -0.423240
   12      C       2.786990     2.222820     0.184100
   13      H       2.577120     3.130070     0.743420
   14      C       1.826990     1.215950     0.064270
   15      C       0.464210     1.403880     0.663680
   16      H      -0.262590     1.603050    -0.134630
   17      H       0.470150     2.292630     1.315970
   18      C      -1.399420     0.470430     1.869350
   19      H      -1.423830     1.344440     2.540320
   20      H      -1.705910    -0.398970     2.463410
   21      C      -2.370520     0.663220     0.744040
   22      C      -3.222880     1.767870     0.706030
   23      H      -3.180650     2.535420     1.473500
   24      C      -4.129760     1.872140    -0.333200
   25      C      -4.222950     0.923790    -1.340590
   26      H      -4.950460     1.053840    -2.136870
   27      C      -3.380910    -0.187590    -1.321080
   28      C      -2.453950    -0.306610    -0.265770
   29      C       0.843660    -0.128110     2.526620
   30      H       0.705670     0.544880     3.388250
   31      H       1.882570    -0.039910     2.193930
   32      C       0.567060    -1.571650     2.905550
   33      H       1.372270    -1.962420     3.538990
   34      H      -0.372340    -1.683190     3.463450
   35      C       3.704200    -1.364130    -2.031470
   36      H       3.617770    -2.246480    -1.386740
   37      H       4.715280    -1.336890    -2.446940
   38      H       2.993820    -1.506440    -2.853750
   39      C      -3.445770    -1.244670    -2.381550
   40      H      -2.489270    -1.334370    -2.909620
   41      H      -4.224580    -1.016690    -3.114480
   42      H      -3.655720    -2.227740    -1.944880
   43      F      -4.957140     2.945630    -0.372390
   44      F       4.944550     3.033960    -0.304950
 ----------------------------------------------------
 Nuclear Repulsion Energy =  2631.8992343483 hartrees
 There are       98 alpha and       98 beta electrons

 Q-Chem warning in module BasisType.C, line 827:

 Setting pure/cartesian flag to 2111 for general basis


 Requested basis set is non-standard
 There are 169 shells and 508 basis functions

Total QAlloc Memory Limit   2000 MB
Mega-Array Size       743 MB
MEM_STATIC part       760 MB
 A cutoff of  1.0D-08 yielded   9221 shell pairs
 There are  90576 function pairs ( 98712 Cartesian)
Evaluating contribution to one-electron hamiltonian from nuclear
 Requested basis set is non-standard
 Compound shells will be simplified
Warning: Basis Set and ECP do not match
 There are 244 shells and 508 basis functions
 A cutoff of  1.0D-08 yielded  21038 shell pairs
 There are  90402 function pairs ( 98542 Cartesian)
 Smallest overlap matrix eigenvalue = 6.02E-07

 Q-Chem warning in module mkSTV.C, line 194:

 Overlap eigenvalue is smaller than square root of threshold

 Linear dependence detected in AO basis
 Number of orthogonalized atomic orbitals = 505
 Maximum deviation from orthogonality = 1.510E-10
 Multipole matrices computed through 2nd order

  Scale SEOQF with 1.000000e-02/1.000000e-01/1.000000e-01

 Standard Electronic Orientation quadrupole field applied
 Nucleus-field energy     =     0.0000000069 hartrees
 Guess MOs from core Hamiltonian diagonalization
 Long-range K will be added via erf
 Coulomb attenuation parameter = 1 bohr**(-1)
 A restricted Kohn-Sham SCF calculation will be
 performed using Pulay DIIS extrapolation
 Exchange:  wPBE + LR-HF      Correlation:  PBE
 Using SG-1 standard quadrature grid
 SCF converges when DIIS error is below 1.0E-05
 Requested basis set is non-standard
 There are 169 shells and 508 basis functions
 A cutoff of  1.0D-08 yielded   9221 shell pairs
 There are  90576 function pairs ( 98712 Cartesian)
 ---------------------------------------
  Cycle       Energy         DIIS Error
 ---------------------------------------
    1    -600.0106662114      8.00E-02
    2     359.0869559997      1.01E-01
    3    -822.4721057632      8.27E-02
    4    -974.2274102539      7.08E-02
    5   -1061.4130067754      6.14E-02
    6   -1197.9222551323      3.99E-02
    7    -972.2930061552      6.56E-02
    8   -1318.6585638237      1.20E-02
    9   -1299.5589454859      2.45E-02
   10   -1321.7771501395      4.87E-03
   11   -1322.4151877510      1.77E-03
   12   -1322.4929550799      6.73E-04
   13   -1322.5033524892      2.45E-04
   14   -1322.5052037795      8.16E-05
   15   -1322.5054741930      3.67E-05
   16   -1322.5055587675      1.72E-05
   17   -1322.5055779805      7.60E-06 Convergence criterion met
 ---------------------------------------
 One-Electron    Energy = -7066.8466567258
 Total Coulomb   Energy =  3286.5648774743
 Alpha Exchange  Energy =   -37.8914507678
 Beta  Exchange  Energy =   -37.8914507678
 DFT   Exchange  Energy =   -91.5679899732
 DFT Correlation Energy =    -6.7721415755
 Nuclear Repu.   Energy =  2631.8992343552
 Nuclear Attr.   Energy = -8351.1379397441
 Kinetic         Energy =  1284.2912830183
 SCF time:  CPU 3764.26 s  wall 3774.72 s
 Final Alpha MO Eigenvalues
            1           2           3           4           5           6
    1 -24.7995938 -24.7988768 -19.3290052 -19.3186301 -19.3151296 -19.3116541
            7           8           9          10          11          12
    1 -14.5886204 -10.5404599 -10.5391347 -10.5199793 -10.5186047 -10.5058530
           13          14          15          16          17          18
    1 -10.4967262 -10.4919710 -10.4864991 -10.4738510 -10.4720682 -10.4693648
           19          20          21          22          23          24
    1 -10.4679409 -10.4604264 -10.4598070 -10.4554467 -10.4553993 -10.4259486
           25          26          27          28          29          30
    1 -10.4251568  -3.2288101  -2.1963660  -2.1854357  -2.1842117  -1.5593438
           31          32          33          34          35          36
    1  -1.5581567  -1.3598568  -1.3521530  -1.3313346  -1.2812623  -1.2191808
           37          38          39          40          41          42
    1  -1.1800494  -1.1765503  -1.1020611  -1.0913278  -1.0514627  -1.0473286
           43          44          45          46          47          48
    1  -1.0207318  -0.9818264  -0.9655218  -0.9640532  -0.9318504  -0.8744225
           49          50          51          52          53          54
    1  -0.8547803  -0.8493832  -0.8453424  -0.8308290  -0.7638948  -0.7568889
           55          56          57          58          59          60
    1  -0.7523734  -0.7484497  -0.7393680  -0.7363415  -0.7213146  -0.7159562
           61          62          63          64          65          66
    1  -0.7093797  -0.7013007  -0.6994239  -0.6744048  -0.6587394  -0.6485508
           67          68          69          70          71          72
    1  -0.6452056  -0.6444773  -0.6383944  -0.6340080  -0.6331559  -0.6262040
           73          74          75          76          77          78
    1  -0.6218702  -0.6138464  -0.6069176  -0.5975351  -0.5961405  -0.5920572
           79          80          81          82          83          84
    1  -0.5865294  -0.5844178  -0.5793351  -0.5741507  -0.5679319  -0.5592123
           85          86          87          88          89          90
    1  -0.5582234  -0.5484340  -0.5379582  -0.5184433  -0.5164584  -0.5101640
           91          92          93          94          95          96
    1  -0.4897245  -0.4884450  -0.4846826  -0.4414843  -0.3970459  -0.3877088
           97          98          99         100         101         102
    1  -0.3612322  -0.3535320  -0.0162334  -0.0092285   0.0236117   0.0275064
          103
    1   0.0415619
 Analysis of SCF Wavefunction
 
 --------------------------------------------------------------
                    Orbital Energies (a.u.)
 --------------------------------------------------------------
 
 Alpha MOs
 -- Occupied --
-24.800 -24.799 -19.329 -19.319 -19.315 -19.312 -14.589 -10.540
-10.539 -10.520 -10.519 -10.506 -10.497 -10.492 -10.486 -10.474
-10.472 -10.469 -10.468 -10.460 -10.460 -10.455 -10.455 -10.426
-10.425  -3.229  -2.196  -2.185  -2.184  -1.559  -1.558  -1.360
 -1.352  -1.331  -1.281  -1.219  -1.180  -1.177  -1.102  -1.091
 -1.051  -1.047  -1.021  -0.982  -0.966  -0.964  -0.932  -0.874
 -0.855  -0.849  -0.845  -0.831  -0.764  -0.757  -0.752  -0.748
 -0.739  -0.736  -0.721  -0.716  -0.709  -0.701  -0.699  -0.674
 -0.659  -0.649  -0.645  -0.644  -0.638  -0.634  -0.633  -0.626
 -0.622  -0.614  -0.607  -0.598  -0.596  -0.592  -0.587  -0.584
 -0.579  -0.574  -0.568  -0.559  -0.558  -0.548  -0.538  -0.518
 -0.516  -0.510  -0.490  -0.488  -0.485  -0.441  -0.397  -0.388
 -0.361  -0.354
 -- Virtual --
 -0.016  -0.009   0.024   0.028   0.042   0.048   0.050   0.053
  0.056   0.062   0.070   0.074   0.077   0.079   0.083   0.085
  0.091   0.093   0.096   0.101   0.103   0.105   0.107   0.118
  0.122   0.124   0.129   0.131   0.135   0.138   0.140   0.144
  0.151   0.155   0.160   0.161   0.165   0.170   0.174   0.176
  0.180   0.183   0.189   0.190   0.198   0.204   0.207   0.209
  0.214   0.217   0.221   0.225   0.227   0.233   0.235   0.236
  0.241   0.245   0.246   0.250   0.252   0.257   0.259   0.262
  0.267   0.267   0.276   0.278   0.281   0.285   0.289   0.293
  0.296   0.297   0.301   0.304   0.309   0.311   0.316   0.317
  0.320   0.325   0.325   0.331   0.333   0.338   0.344   0.346
  0.350   0.353   0.354   0.358   0.367   0.367   0.376   0.380
  0.381   0.388   0.393   0.395   0.397   0.400   0.406   0.410
  0.410   0.412   0.419   0.423   0.430   0.433   0.438   0.444
  0.447   0.449   0.453   0.457   0.463   0.465   0.469   0.474
  0.475   0.478   0.483   0.484   0.491   0.497   0.498   0.505
  0.507   0.511   0.517   0.519   0.524   0.529   0.532   0.534
  0.541   0.543   0.550   0.554   0.561   0.567   0.574   0.576
  0.580   0.588   0.601   0.602   0.614   0.622   0.638   0.649
  0.659   0.693   0.731   0.742   0.755   0.775   0.779   0.798
  0.801   0.818   0.824   0.850   0.854   0.865   0.871   0.875
  0.877   0.883   0.893   0.899   0.909   0.914   0.923   0.931
  0.940   0.947   0.951   0.957   0.962   0.969   0.973   0.975
  0.989   0.994   1.003   1.007   1.013   1.026   1.027   1.036
  1.045   1.053   1.065   1.082   1.087   1.092   1.094   1.106
  1.124   1.132   1.134   1.140   1.153   1.162   1.175   1.177
  1.196   1.207   1.209   1.218   1.231   1.239   1.244   1.251
  1.265   1.280   1.284   1.295   1.304   1.309   1.321   1.328
  1.337   1.345   1.352   1.362   1.373   1.389   1.396   1.398
  1.405   1.411   1.413   1.418   1.437   1.447   1.452   1.457
  1.473   1.480   1.486   1.492   1.501   1.508   1.512   1.518
  1.532   1.539   1.540   1.548   1.554   1.562   1.575   1.583
  1.585   1.592   1.598   1.602   1.610   1.619   1.639   1.652
  1.656   1.670   1.674   1.699   1.732   1.740   1.755   1.770
  1.793   1.804   1.811   1.843   1.867   1.878   1.881   1.896
  1.915   1.918   1.931   1.937   1.961   1.963   1.968   1.970
  1.978   1.988   1.999   2.005   2.017   2.026   2.030   2.036
  2.044   2.046   2.047   2.056   2.072   2.075   2.086   2.091
  2.103   2.108   2.115   2.119   2.127   2.132   2.146   2.147
  2.157   2.164   2.178   2.180   2.185   2.189   2.199   2.202
  2.209   2.218   2.221   2.231   2.237   2.255   2.260   2.278
  2.289   2.300   2.312   2.324   2.326   2.345   2.357   2.367
  2.377   2.386   2.400   2.404   2.415   2.436   2.451   2.464
  2.470   2.489   2.494   2.505   2.510   2.528   2.532   2.536
  2.547   2.551   2.559   2.571   2.583   2.590   2.614   2.622
  2.629   2.633   2.644   2.648   2.657   2.669   2.673   2.694
  2.699   2.736   2.739   2.744   2.759   2.801   2.822   2.826
  2.839   2.856   2.897   2.902   2.913   2.918   2.966   2.991
  3.020   3.023   3.035   3.067   3.091   3.121   3.143   3.148
  3.167   3.208   3.240   3.266   3.281   3.317   3.384   3.395
  3.501   3.507   3.517   3.521   3.743   3.747  59.616
 --------------------------------------------------------------
 
          Ground-State Mulliken Net Atomic Charges

     Atom                 Charge (a.u.)
  ----------------------------------------
      1 V                     1.496477
      2 O                    -0.188696
      3 O                    -0.565652
      4 O                    -0.575207
      5 O                    -0.550269
      6 N                    -0.276661
      7 C                    -0.814251
      8 C                     0.770892
      9 C                    -0.222839
     10 H                     0.284945
     11 C                    -0.625416
     12 C                     0.027436
     13 H                     0.278665
     14 C                     0.731035
     15 C                    -0.583144
     16 H                     0.297870
     17 H                     0.233236
     18 C                    -0.681591
     19 H                     0.240095
     20 H                     0.262668
     21 C                     1.279915
     22 C                    -0.007086
     23 H                     0.276088
     24 C                    -0.677985
     25 C                    -0.482807
     26 H                     0.286233
     27 C                     0.736155
     28 C                    -0.582017
     29 C                    -0.305743
     30 H                     0.238003
     31 H                     0.283339
     32 C                    -0.251614
     33 H                     0.243113
     34 H                     0.220535
     35 C                    -0.826880
     36 H                     0.263266
     37 H                     0.237741
     38 H                     0.263561
     39 C                    -0.752574
     40 H                     0.261262
     41 H                     0.236169
     42 H                     0.264526
     43 F                    -0.370912
     44 F                    -0.371877
  ----------------------------------------
  Sum of atomic charges =     0.000000

 -----------------------------------------------------------------
                    Cartesian Multipole Moments
 -----------------------------------------------------------------
    Charge (ESU x 10^10)
                 0.0000
    Dipole Moment (Debye)
         X       0.2890      Y       1.6882      Z       3.0524
       Tot       3.5001
    Quadrupole Moments (Debye-Ang)
        XX    -167.9642     XY      -1.7759     YY    -179.3417
        XZ       0.8682     YZ       4.6226     ZZ    -141.1196
    Octapole Moments (Debye-Ang^2)
       XXX      29.8022    XXY    -103.9136    XYY      -1.9416
       YYY      12.8899    XXZ     -43.7068    XYZ      -1.2032
       YYZ      20.1398    XZZ      -9.1382    YZZ      -9.3972
       ZZZ      30.3251
    Hexadecapole Moments (Debye-Ang^3)
      XXXX   -7788.0322   XXXY     -49.8576   XXYY   -2001.1462
      XYYY      11.3651   YYYY   -2995.3322   XXXZ      -2.3297
      XXYZ      41.8602   XYYZ      -4.3081   YYYZ      36.2277
      XXZZ   -1401.9933   XYZZ     -23.9987   YYZZ    -761.1230
      XZZZ      48.9355   YZZZ     -27.4159   ZZZZ   -1769.1819
 -----------------------------------------------------------------
 Total job time:  3777.70s(wall), 3767.20s(cpu) 
 Thu Jun 19 09:20:05 2014

        *************************************************************
        *                                                           *
        *  Thank you very much for using Q-Chem.  Have a nice day.  *
        *                                                           *
        *************************************************************


0 sent ACK to 0 
now end server 0 ... 
 
**********************************************************************
Job 3 of 3 
**********************************************************************
 
Process 0 of 1 is on cl183 - thread support 1
initial socket setup ...start
initial socket setup ...done 
now start server 0 ... 

cmd = /usr/bin/ssh clhead /usr/local/qchem/bin/get_hostid 22340788 > /tmp/1656820.1.medium.q/qchem31962/lic.dat

cmd = /usr/bin/ssh clhead /usr/local/qchem/bin/get_hostid 22340788 > /tmp/1656820.1.medium.q/qchem31962/lic.dat

cmd = /usr/bin/ssh clhead /usr/local/qchem/bin/get_hostid 22340788 > /tmp/1656820.1.medium.q/qchem31962/lic.dat

cmd = /usr/bin/ssh clhead /usr/local/qchem/bin/get_hostid 22340788 > /tmp/1656820.1.medium.q/qchem31962/lic.dat

cmd = /usr/bin/ssh clhead /usr/local/qchem/bin/get_hostid 22340788 > /tmp/1656820.1.medium.q/qchem31962/lic.dat
                  Welcome to Q-Chem
     A Quantum Leap Into The Future Of Chemistry

 Y. Shao, L. Fusti-Molnar, Y. Jung, J. Kussmann, C. Ochsenfeld,
 S. T. Brown, A. T. B. Gilbert, L. V. Slipchenko,S. V. Levchenko,
 D. P. O'Neill, R. A. DiStasio Jr., R. C. Lochan, T. Wang,
 G. J. O. Beran, N. A. Besley, J. M. Herbert, C. Y. Lin,
 T. Van Voorhis, S. H. Chien, A. Sodt, R. P. Steele, 
 V. A. Rassolov, P. E. Maslen, P. P. Korambath, R. D. Adamson,
 B. Austin, J. Baker, E. F. C. Byrd, H. Dachsel, R. J. Doerksen,
 A. Dreuw, B. D. Dunietz, A. D. Dutoi, T. R. Furlani,
 S. R. Gwaltney, A. Heyden, S. Hirata, C.-P. Hsu, G. Kedziora,
 R. Z. Khaliullin, P. Klunzinger, A. M. Lee, M. S. Lee, W. Liang,
 I. Lotan, N. Nair, B. Peters, E. I. Proynov, P. A. Pieniazek, 
 Y. M. Rhee, J. Ritchie, E. Rosta, C. D. Sherrill, 
 A. C. Simmonett, J. E. Subotnik, H. L. Woodcock III,
 W. Zhang, A. T. Bell, A. K. Chakraborty, D. M. Chipman,
 F. J. Keil, A. Warshel, W. J. Hehre, H. F. Schaefer III,
 J. Kong, A. I. Krylov, P. M. W. Gill, M. Head-Gordon,
 Q-Chem, Version 3.1, Q-Chem, Inc., Pittsburgh, PA (2007).

 Additional authors for Version 3.1: 
 Z. Gan, Y. Zhao, N. E. Schultz, D. Truhlar, E. Epifanovsky and M. Oana.

 Additional authors for Version 3.2: 
 R. Baer, B. R. Brooks, D. Casanova, J.-D. Chai, C.-L. Cheng, 
 C. Cramer, D. Crittenden, A. Ghysels, G. Hawkins, E. G. Hohenstein, 
 C. Kelley, W. Kurlancheek, D. Liotard, E. Livshits, P. Manohar, 
 A. Marenich, D. Neuhauser, R. Olson, M. A. Rohrdanz, K. S. Thanthiriwatte, 
 A. J. W. Thom, V. Vanovschi, C. F. Williams, Q. Wu and Z.-Q. You. 


 Intel X86 Linux Version

 Q-chem begins on Thu Jun 19 09:20:09 2014  

 Parallel job on  1  processors
Processing $rem in /usr/local/qchem/config/preferences.

theFileMan(): MAXOPENFILES=974 MAX_SUB_FILE_NUM=16
Maximum size of a physical file is 2.0 GB, maximum size of a tmp-file is 32.0 GB


--------------------------------------------------------------
User input:
--------------------------------------------------------------

$molecule
1,2
V          0.03260       -1.87320        0.09818
O          0.08873       -3.27638       -0.62065
O          1.24907       -0.93737       -0.82191
O         -1.67099       -1.39830       -0.24263
O          0.49449       -2.36647        1.74418
N         -0.02368        0.23115        1.40233
C          2.14182        0.05739       -0.66285
C          3.40342       -0.10882       -1.26990
C          4.34362        0.91251       -1.14203
H          5.32663        0.82280       -1.59544
C          4.01799        2.05215       -0.42324
C          2.78699        2.22282        0.18410
H          2.57712        3.13007        0.74342
C          1.82699        1.21595        0.06427
C          0.46421        1.40388        0.66368
H         -0.26259        1.60305       -0.13463
H          0.47015        2.29263        1.31597
C         -1.39942        0.47043        1.86935
H         -1.42383        1.34444        2.54032
H         -1.70591       -0.39897        2.46341
C         -2.37052        0.66322        0.74404
C         -3.22288        1.76787        0.70603
H         -3.18065        2.53542        1.47350
C         -4.12976        1.87214       -0.33320
C         -4.22295        0.92379       -1.34059
H         -4.95046        1.05384       -2.13687
C         -3.38091       -0.18759       -1.32108
C         -2.45395       -0.30661       -0.26577
C          0.84366       -0.12811        2.52662
H          0.70567        0.54488        3.38825
H          1.88257       -0.03991        2.19393
C          0.56706       -1.57165        2.90555
H          1.37227       -1.96242        3.53899
H         -0.37234       -1.68319        3.46345
C          3.70420       -1.36413       -2.03147
H          3.61777       -2.24648       -1.38674
H          4.71528       -1.33689       -2.44694
H          2.99382       -1.50644       -2.85375
C         -3.44577       -1.24467       -2.38155
H         -2.48927       -1.33437       -2.90962
H         -4.22458       -1.01669       -3.11448
H         -3.65572       -2.22774       -1.94488
F         -4.95714        2.94563       -0.37239
F          4.94455        3.03396       -0.30495
$end

$comment
positive
$end

$xc_functional
C PBE   1.00
X wPBE  1.00
$end

$rem
SYMMETRY_DECOMPOSITION	0
LRC_DFT                 true
exchange 		general
BASIS                   gen
ECP                     lanl2dz
omega			1000
mem_static              760
max_scf_cycles          200
scf_final_print         1
sym_ignore              true
$end

$basis
   V 0
   lanl2dz
   ****
   O 0 
   6-31+G*
   ****
   N 0
   6-31+G*
   ****
   C 0
   6-31+G*
   ****
   H 0
   6-31+G*
   ****
   F 0
   6-31+G*
   ****
$end
--------------------------------------------------------------
 Writing REM_CC_EA           44
 ----------------------------------------------------
       Standard Nuclear Orientation (Angstroms)
    I     Atom         X            Y            Z
 ----------------------------------------------------
    1      V       0.032600    -1.873200     0.098180
    2      O       0.088730    -3.276380    -0.620650
    3      O       1.249070    -0.937370    -0.821910
    4      O      -1.670990    -1.398300    -0.242630
    5      O       0.494490    -2.366470     1.744180
    6      N      -0.023680     0.231150     1.402330
    7      C       2.141820     0.057390    -0.662850
    8      C       3.403420    -0.108820    -1.269900
    9      C       4.343620     0.912510    -1.142030
   10      H       5.326630     0.822800    -1.595440
   11      C       4.017990     2.052150    -0.423240
   12      C       2.786990     2.222820     0.184100
   13      H       2.577120     3.130070     0.743420
   14      C       1.826990     1.215950     0.064270
   15      C       0.464210     1.403880     0.663680
   16      H      -0.262590     1.603050    -0.134630
   17      H       0.470150     2.292630     1.315970
   18      C      -1.399420     0.470430     1.869350
   19      H      -1.423830     1.344440     2.540320
   20      H      -1.705910    -0.398970     2.463410
   21      C      -2.370520     0.663220     0.744040
   22      C      -3.222880     1.767870     0.706030
   23      H      -3.180650     2.535420     1.473500
   24      C      -4.129760     1.872140    -0.333200
   25      C      -4.222950     0.923790    -1.340590
   26      H      -4.950460     1.053840    -2.136870
   27      C      -3.380910    -0.187590    -1.321080
   28      C      -2.453950    -0.306610    -0.265770
   29      C       0.843660    -0.128110     2.526620
   30      H       0.705670     0.544880     3.388250
   31      H       1.882570    -0.039910     2.193930
   32      C       0.567060    -1.571650     2.905550
   33      H       1.372270    -1.962420     3.538990
   34      H      -0.372340    -1.683190     3.463450
   35      C       3.704200    -1.364130    -2.031470
   36      H       3.617770    -2.246480    -1.386740
   37      H       4.715280    -1.336890    -2.446940
   38      H       2.993820    -1.506440    -2.853750
   39      C      -3.445770    -1.244670    -2.381550
   40      H      -2.489270    -1.334370    -2.909620
   41      H      -4.224580    -1.016690    -3.114480
   42      H      -3.655720    -2.227740    -1.944880
   43      F      -4.957140     2.945630    -0.372390
   44      F       4.944550     3.033960    -0.304950
 ----------------------------------------------------
 Nuclear Repulsion Energy =  2631.8992343483 hartrees
 There are       98 alpha and       97 beta electrons

 Q-Chem warning in module BasisType.C, line 827:

 Setting pure/cartesian flag to 2111 for general basis


 Requested basis set is non-standard
 There are 169 shells and 508 basis functions

Total QAlloc Memory Limit   2000 MB
Mega-Array Size       743 MB
MEM_STATIC part       760 MB
 A cutoff of  1.0D-08 yielded   9221 shell pairs
 There are  90576 function pairs ( 98712 Cartesian)
Evaluating contribution to one-electron hamiltonian from nuclear
 Requested basis set is non-standard
 Compound shells will be simplified
Warning: Basis Set and ECP do not match
 There are 244 shells and 508 basis functions
 A cutoff of  1.0D-08 yielded  21038 shell pairs
 There are  90402 function pairs ( 98542 Cartesian)
 Smallest overlap matrix eigenvalue = 6.02E-07

 Q-Chem warning in module mkSTV.C, line 194:

 Overlap eigenvalue is smaller than square root of threshold

 Linear dependence detected in AO basis
 Number of orthogonalized atomic orbitals = 505
 Maximum deviation from orthogonality = 1.510E-10
 Multipole matrices computed through 2nd order

  Scale SEOQF with 1.000000e-02/1.000000e-01/1.000000e-01

 Standard Electronic Orientation quadrupole field applied
 Nucleus-field energy     =     0.0000000069 hartrees
 Guess MOs from core Hamiltonian diagonalization
 Long-range K will be added via erf
 Coulomb attenuation parameter = 1 bohr**(-1)
 An unrestricted Kohn-Sham SCF calculation will be
 performed using Pulay DIIS extrapolation
 Exchange:  wPBE + LR-HF      Correlation:  PBE
 Using SG-1 standard quadrature grid
 SCF converges when DIIS error is below 1.0E-05
 Requested basis set is non-standard
 There are 169 shells and 508 basis functions
 A cutoff of  1.0D-08 yielded   9221 shell pairs
 There are  90576 function pairs ( 98712 Cartesian)
 ---------------------------------------
  Cycle       Energy         DIIS Error
 ---------------------------------------
    1    -610.4636261263      7.85E-02
    2     352.2644692750      1.02E-01
    3    -836.9418799464      7.76E-02
    4    -967.0266349705      7.02E-02
    5   -1124.1733168008      5.50E-02
    6   -1188.2157640926      4.31E-02
    7   -1157.9934657787      4.89E-02
    8   -1282.5942971721      2.37E-02
    9   -1169.3337582717      4.51E-02
   10   -1320.8387408431      6.85E-03
   11   -1321.5708362641      4.72E-03
   12   -1322.1218056531      1.39E-03
   13   -1322.1437783625      1.23E-03
   14   -1322.1834468295      4.55E-04
   15   -1322.1910619938      2.73E-04
   16   -1322.1947405531      1.31E-04
   17   -1322.1960424253      4.40E-05
   18   -1322.1964150685      1.81E-05
   19   -1322.1966441391      1.54E-05
   20   -1322.1968201066      1.24E-05
   21   -1322.1972116838      9.82E-06 Convergence criterion met
 ---------------------------------------
 One-Electron    Energy = -7040.6856270763
 Total Coulomb   Energy =  3260.3748070559
 Alpha Exchange  Energy =   -37.9458397723
 Beta  Exchange  Energy =   -37.5800722334
 DFT   Exchange  Energy =   -91.5298323317
 DFT Correlation Energy =    -6.7298816812
 Nuclear Repu.   Energy =  2631.8992343552
 Nuclear Attr.   Energy = -8324.8151967901
 Kinetic         Energy =  1284.1295697138
 <S^2> = 0.8366
 SCF time:  CPU 5511.70 s  wall 5520.29 s
 Final Alpha MO Eigenvalues
            1           2           3           4           5           6
    1 -24.9779445 -24.8834872 -19.5007958 -19.4586157 -19.4411937 -19.4342062
            7           8           9          10          11          12
    1 -14.7161348 -10.7529763 -10.7485011 -10.6700361 -10.6670833 -10.6463629
           13          14          15          16          17          18
    1 -10.6410428 -10.6344353 -10.6330201 -10.6200362 -10.6149506 -10.6118431
           19          20          21          22          23          24
    1 -10.5983225 -10.5768656 -10.5736316 -10.5649402 -10.5549339 -10.5460722
           25          26          27          28          29          30
    1 -10.5113451  -3.3552708  -2.3231194  -2.3134567  -2.3114798  -1.7361031
           31          32          33          34          35          36
    1  -1.6428301  -1.5488843  -1.4722296  -1.4509704  -1.4113721  -1.3761890
           37          38          39          40          41          42
    1  -1.3434431  -1.2798359  -1.2715307  -1.2386853  -1.1985591  -1.1618467
           43          44          45          46          47          48
    1  -1.1480263  -1.1380219  -1.1117486  -1.0592701  -1.0571880  -1.0304639
           49          50          51          52          53          54
    1  -1.0248145  -0.9815387  -0.9515181  -0.9430459  -0.9310213  -0.9259997
           55          56          57          58          59          60
    1  -0.9167053  -0.8877286  -0.8684916  -0.8598608  -0.8543185  -0.8489070
           61          62          63          64          65          66
    1  -0.8358616  -0.8295635  -0.8195170  -0.8148947  -0.8114247  -0.7973136
           67          68          69          70          71          72
    1  -0.7896028  -0.7848871  -0.7723722  -0.7621017  -0.7562709  -0.7526194
           73          74          75          76          77          78
    1  -0.7474771  -0.7428166  -0.7366781  -0.7314520  -0.7230204  -0.7165017
           79          80          81          82          83          84
    1  -0.7148269  -0.7115215  -0.7086946  -0.7050988  -0.6958667  -0.6888198
           85          86          87          88          89          90
    1  -0.6846939  -0.6775087  -0.6620401  -0.6484380  -0.6424989  -0.6145713
           91          92          93          94          95          96
    1  -0.6133477  -0.6069070  -0.6004884  -0.5788374  -0.5688696  -0.5666142
           97          98          99         100         101         102
    1  -0.4867704  -0.4569876  -0.1513755  -0.1399940  -0.1168156  -0.1132354
          103
    1  -0.1026382
 Final Beta MO Eigenvalues
            1           2           3           4           5           6
    1 -24.9763201 -24.8834852 -19.4964024 -19.4590861 -19.4411422 -19.4340278
            7           8           9          10          11          12
    1 -14.7159943 -10.7459112 -10.7439189 -10.6670681 -10.6638427 -10.6485894
           13          14          15          16          17          18
    1 -10.6412963 -10.6362832 -10.6344313 -10.6200524 -10.6149527 -10.6117836
           19          20          21          22          23          24
    1 -10.5983196 -10.5768840 -10.5738097 -10.5649173 -10.5549016 -10.5460718
           25          26          27          28          29          30
    1 -10.5113468  -3.3543139  -2.3214937  -2.3119310  -2.3105799  -1.7303169
           31          32          33          34          35          36
    1  -1.6428226  -1.5336633  -1.4719725  -1.4503652  -1.4096192  -1.3632545
           37          38          39          40          41          42
    1  -1.3452584  -1.2785028  -1.2686637  -1.2146167  -1.1974007  -1.1603284
           43          44          45          46          47          48
    1  -1.1477615  -1.1342644  -1.1103334  -1.0571438  -1.0566034  -1.0243944
           49          50          51          52          53          54
    1  -1.0182878  -0.9805800  -0.9506467  -0.9428898  -0.9288954  -0.9245309
           55          56          57          58          59          60
    1  -0.9119549  -0.8665769  -0.8582819  -0.8549025  -0.8489187  -0.8401452
           61          62          63          64          65          66
    1  -0.8352745  -0.8227803  -0.8163710  -0.8098958  -0.7966488  -0.7896343
           67          68          69          70          71          72
    1  -0.7847948  -0.7796347  -0.7689064  -0.7611934  -0.7531891  -0.7478866
           73          74          75          76          77          78
    1  -0.7450213  -0.7373686  -0.7315690  -0.7253366  -0.7206158  -0.7149590
           79          80          81          82          83          84
    1  -0.7132670  -0.7106965  -0.7055478  -0.6961660  -0.6911577  -0.6862863
           85          86          87          88          89          90
    1  -0.6794566  -0.6608320  -0.6540749  -0.6480450  -0.6418570  -0.6140554
           91          92          93          94          95          96
    1  -0.6129001  -0.6059309  -0.5995575  -0.5749716  -0.5674636  -0.4867779
           97          98          99         100         101         102
    1  -0.4567498  -0.2625310  -0.1433628  -0.1332859  -0.1020450  -0.0967518
 Analysis of SCF Wavefunction
 
 --------------------------------------------------------------
                    Orbital Energies (a.u.)
 --------------------------------------------------------------
 
 Alpha MOs
 -- Occupied --
-24.978 -24.883 -19.501 -19.459 -19.441 -19.434 -14.716 -10.753
-10.749 -10.670 -10.667 -10.646 -10.641 -10.634 -10.633 -10.620
-10.615 -10.612 -10.598 -10.577 -10.574 -10.565 -10.555 -10.546
-10.511  -3.355  -2.323  -2.313  -2.311  -1.736  -1.643  -1.549
 -1.472  -1.451  -1.411  -1.376  -1.343  -1.280  -1.272  -1.239
 -1.199  -1.162  -1.148  -1.138  -1.112  -1.059  -1.057  -1.030
 -1.025  -0.982  -0.952  -0.943  -0.931  -0.926  -0.917  -0.888
 -0.868  -0.860  -0.854  -0.849  -0.836  -0.830  -0.820  -0.815
 -0.811  -0.797  -0.790  -0.785  -0.772  -0.762  -0.756  -0.753
 -0.747  -0.743  -0.737  -0.731  -0.723  -0.717  -0.715  -0.712
 -0.709  -0.705  -0.696  -0.689  -0.685  -0.678  -0.662  -0.648
 -0.642  -0.615  -0.613  -0.607  -0.600  -0.579  -0.569  -0.567
 -0.487  -0.457
 -- Virtual --
 -0.151  -0.140  -0.117  -0.113  -0.103  -0.087  -0.061  -0.049
 -0.047  -0.044  -0.033  -0.029  -0.026  -0.021  -0.018  -0.017
 -0.010  -0.003  -0.001   0.005   0.012   0.017   0.019   0.020
  0.021   0.025   0.028   0.037   0.041   0.045   0.048   0.051
  0.054   0.057   0.062   0.066   0.070   0.072   0.074   0.079
  0.080   0.083   0.089   0.091   0.095   0.099   0.101   0.107
  0.111   0.113   0.118   0.121   0.123   0.126   0.128   0.132
  0.136   0.138   0.139   0.143   0.146   0.153   0.155   0.157
  0.161   0.164   0.167   0.170   0.172   0.175   0.178   0.182
  0.184   0.187   0.190   0.194   0.198   0.202   0.206   0.209
  0.214   0.217   0.219   0.222   0.226   0.228   0.233   0.239
  0.239   0.242   0.246   0.247   0.251   0.253   0.260   0.262
  0.268   0.269   0.271   0.276   0.280   0.282   0.286   0.294
  0.299   0.306   0.306   0.312   0.315   0.318   0.322   0.326
  0.332   0.335   0.341   0.344   0.348   0.352   0.357   0.357
  0.360   0.363   0.369   0.371   0.372   0.381   0.382   0.384
  0.391   0.392   0.403   0.404   0.409   0.410   0.417   0.419
  0.424   0.429   0.432   0.442   0.446   0.451   0.454   0.456
  0.465   0.470   0.476   0.485   0.504   0.516   0.522   0.534
  0.537   0.574   0.592   0.616   0.622   0.635   0.648   0.657
  0.662   0.692   0.700   0.705   0.721   0.726   0.734   0.749
  0.756   0.765   0.772   0.773   0.785   0.788   0.797   0.804
  0.805   0.811   0.819   0.825   0.833   0.840   0.848   0.856
  0.861   0.863   0.869   0.878   0.886   0.895   0.903   0.913
  0.925   0.931   0.940   0.945   0.949   0.953   0.973   0.989
  0.996   1.007   1.017   1.023   1.030   1.041   1.051   1.065
  1.073   1.080   1.087   1.089   1.102   1.118   1.120   1.127
  1.138   1.147   1.160   1.164   1.177   1.185   1.194   1.206
  1.209   1.214   1.222   1.237   1.248   1.250   1.258   1.265
  1.272   1.280   1.292   1.296   1.306   1.318   1.324   1.326
  1.330   1.337   1.345   1.356   1.368   1.372   1.380   1.385
  1.385   1.402   1.411   1.422   1.426   1.434   1.440   1.448
  1.448   1.453   1.469   1.480   1.481   1.495   1.504   1.512
  1.528   1.537   1.557   1.580   1.595   1.605   1.619   1.640
  1.659   1.672   1.691   1.714   1.721   1.732   1.742   1.766
  1.789   1.798   1.809   1.811   1.819   1.825   1.832   1.844
  1.850   1.864   1.870   1.878   1.880   1.886   1.891   1.896
  1.905   1.911   1.919   1.929   1.940   1.948   1.958   1.963
  1.966   1.974   1.981   1.983   1.992   2.004   2.010   2.020
  2.026   2.030   2.036   2.045   2.055   2.067   2.069   2.078
  2.083   2.089   2.095   2.111   2.116   2.129   2.138   2.141
  2.154   2.170   2.179   2.184   2.192   2.207   2.219   2.228
  2.242   2.252   2.265   2.281   2.292   2.302   2.314   2.323
  2.325   2.333   2.346   2.357   2.371   2.383   2.393   2.403
  2.421   2.437   2.442   2.443   2.455   2.461   2.469   2.485
  2.492   2.505   2.516   2.524   2.538   2.543   2.550   2.558
  2.571   2.589   2.601   2.627   2.640   2.647   2.657   2.695
  2.703   2.721   2.738   2.761   2.791   2.806   2.813   2.836
  2.867   2.906   2.912   2.927   2.956   2.971   3.002   3.033
  3.040   3.073   3.092   3.120   3.157   3.195   3.205   3.279
  3.315   3.332   3.410   3.427   3.556   3.649  59.494
 
 Beta MOs
 -- Occupied --
-24.976 -24.883 -19.496 -19.459 -19.441 -19.434 -14.716 -10.746
-10.744 -10.667 -10.664 -10.649 -10.641 -10.636 -10.634 -10.620
-10.615 -10.612 -10.598 -10.577 -10.574 -10.565 -10.555 -10.546
-10.511  -3.354  -2.321  -2.312  -2.311  -1.730  -1.643  -1.534
 -1.472  -1.450  -1.410  -1.363  -1.345  -1.279  -1.269  -1.215
 -1.197  -1.160  -1.148  -1.134  -1.110  -1.057  -1.057  -1.024
 -1.018  -0.981  -0.951  -0.943  -0.929  -0.925  -0.912  -0.867
 -0.858  -0.855  -0.849  -0.840  -0.835  -0.823  -0.816  -0.810
 -0.797  -0.790  -0.785  -0.780  -0.769  -0.761  -0.753  -0.748
 -0.745  -0.737  -0.732  -0.725  -0.721  -0.715  -0.713  -0.711
 -0.706  -0.696  -0.691  -0.686  -0.679  -0.661  -0.654  -0.648
 -0.642  -0.614  -0.613  -0.606  -0.600  -0.575  -0.567  -0.487
 -0.457
 -- Virtual --
 -0.263  -0.143  -0.133  -0.102  -0.097  -0.081  -0.061  -0.051
 -0.047  -0.043  -0.039  -0.032  -0.028  -0.025  -0.021  -0.017
 -0.016  -0.009  -0.002   0.000   0.005   0.012   0.017   0.018
  0.021   0.022   0.027   0.029   0.038   0.042   0.046   0.047
  0.052   0.056   0.059   0.062   0.067   0.071   0.072   0.075
  0.080   0.081   0.083   0.089   0.093   0.097   0.102   0.107
  0.109   0.112   0.114   0.119   0.123   0.126   0.128   0.130
  0.133   0.138   0.139   0.141   0.145   0.147   0.154   0.156
  0.158   0.162   0.167   0.169   0.171   0.173   0.177   0.178
  0.183   0.185   0.187   0.191   0.195   0.200   0.204   0.207
  0.209   0.214   0.219   0.220   0.222   0.226   0.229   0.236
  0.240   0.241   0.243   0.247   0.248   0.253   0.255   0.262
  0.266   0.269   0.271   0.272   0.277   0.281   0.283   0.287
  0.294   0.300   0.306   0.308   0.315   0.315   0.319   0.322
  0.328   0.334   0.336   0.343   0.345   0.350   0.352   0.358
  0.359   0.364   0.364   0.370   0.372   0.374   0.382   0.384
  0.386   0.391   0.393   0.404   0.405   0.410   0.412   0.418
  0.419   0.425   0.429   0.433   0.443   0.447   0.452   0.455
  0.458   0.465   0.471   0.477   0.485   0.504   0.516   0.523
  0.535   0.538   0.574   0.593   0.618   0.624   0.636   0.651
  0.660   0.662   0.694   0.702   0.705   0.722   0.727   0.738
  0.751   0.759   0.768   0.772   0.780   0.784   0.793   0.798
  0.806   0.809   0.813   0.819   0.827   0.834   0.841   0.851
  0.857   0.863   0.867   0.871   0.879   0.891   0.897   0.906
  0.915   0.926   0.932   0.941   0.945   0.950   0.956   0.973
  0.989   0.997   1.008   1.018   1.024   1.031   1.042   1.051
  1.066   1.076   1.083   1.090   1.092   1.103   1.119   1.122
  1.127   1.140   1.149   1.163   1.167   1.178   1.186   1.196
  1.207   1.210   1.216   1.225   1.244   1.249   1.251   1.260
  1.266   1.273   1.282   1.292   1.297   1.309   1.320   1.325
  1.330   1.336   1.343   1.352   1.365   1.370   1.374   1.384
  1.386   1.388   1.407   1.413   1.422   1.428   1.439   1.443
  1.449   1.451   1.458   1.471   1.480   1.485   1.496   1.505
  1.513   1.531   1.538   1.558   1.581   1.597   1.607   1.621
  1.640   1.662   1.673   1.691   1.715   1.727   1.735   1.745
  1.767   1.791   1.798   1.810   1.812   1.822   1.827   1.834
  1.847   1.851   1.866   1.873   1.880   1.881   1.888   1.891
  1.898   1.906   1.913   1.921   1.930   1.941   1.949   1.959
  1.963   1.968   1.976   1.982   1.985   1.994   2.006   2.013
  2.020   2.027   2.031   2.036   2.047   2.055   2.067   2.070
  2.078   2.084   2.089   2.096   2.111   2.117   2.130   2.138
  2.143   2.157   2.173   2.183   2.185   2.194   2.210   2.224
  2.230   2.245   2.255   2.266   2.282   2.295   2.303   2.315
  2.326   2.332   2.335   2.348   2.359   2.379   2.387   2.395
  2.404   2.423   2.437   2.442   2.444   2.457   2.463   2.470
  2.486   2.493   2.507   2.517   2.525   2.538   2.548   2.557
  2.561   2.572   2.590   2.603   2.630   2.643   2.651   2.662
  2.697   2.710   2.723   2.739   2.762   2.792   2.806   2.817
  2.840   2.867   2.907   2.912   2.927   2.957   2.972   3.004
  3.034   3.041   3.077   3.093   3.122   3.157   3.196   3.210
  3.279   3.317   3.336   3.410   3.427   3.558   3.649  59.494
 --------------------------------------------------------------
 
          Ground-State Mulliken Net Atomic Charges

     Atom                 Charge (a.u.)    Spin (a.u.)
  --------------------------------------------------------
      1 V                     1.462734       0.029953
      2 O                    -0.122430      -0.018274
      3 O                    -0.525605       0.005713
      4 O                    -0.510802       0.131175
      5 O                    -0.507604       0.005904
      6 N                    -0.345420       0.010711
      7 C                    -0.960835      -0.011559
      8 C                     0.754729      -0.000354
      9 C                    -0.197912       0.000200
     10 H                     0.306027      -0.000007
     11 C                    -0.627777       0.000460
     12 C                     0.080899       0.001918
     13 H                     0.290096      -0.000140
     14 C                     0.775902       0.016010
     15 C                    -0.515563      -0.019096
     16 H                     0.263721      -0.001460
     17 H                     0.255333      -0.000197
     18 C                    -0.570510      -0.044574
     19 H                     0.271227       0.000666
     20 H                     0.294619       0.009327
     21 C                     1.146278       0.251035
     22 C                     0.048611      -0.222488
     23 H                     0.336783       0.007959
     24 C                    -0.613875       0.547701
     25 C                    -0.477012      -0.338473
     26 H                     0.345340       0.011300
     27 C                     0.633939       0.187772
     28 C                    -0.313275       0.429024
     29 C                    -0.311947      -0.001349
     30 H                     0.260602      -0.000078
     31 H                     0.307339       0.000132
     32 C                    -0.256249       0.001277
     33 H                     0.275157       0.000003
     34 H                     0.229682       0.000197
     35 C                    -0.816892      -0.000797
     36 H                     0.266989       0.000110
     37 H                     0.257562       0.000009
     38 H                     0.266023       0.000087
     39 C                    -0.677480      -0.030229
     40 H                     0.298569       0.011960
     41 H                     0.276872      -0.000222
     42 H                     0.302687       0.011419
     43 F                    -0.302264       0.017232
     44 F                    -0.354267       0.000041
  --------------------------------------------------------
  Sum of atomic charges =     1.000000
  Sum of spin   charges =     1.000000

 -----------------------------------------------------------------
                    Cartesian Multipole Moments
 -----------------------------------------------------------------
    Charge (ESU x 10^10)
                 4.8032
    Dipole Moment (Debye)
         X      -9.2083      Y       3.0622      Z       2.1334
       Tot       9.9358
    Quadrupole Moments (Debye-Ang)
        XX    -108.8994     XY     -10.5228     YY    -159.6082
        XZ       6.4519     YZ       5.8815     ZZ    -125.9331
    Octapole Moments (Debye-Ang^2)
       XXX    -118.3297    XXY     -44.7753    XYY     -34.6615
       YYY      22.4329    XXZ     -82.8863    XYZ      -5.6286
       YYZ      18.0051    XZZ     -29.1270    YZZ     -14.6421
       ZZZ      30.6909
    Hexadecapole Moments (Debye-Ang^3)
      XXXX   -6602.9285   XXXY    -241.4357   XXYY   -1755.5365
      XYYY     -59.2585   YYYY   -2816.0638   XXXZ      85.6293
      XXYZ      47.6197   XYYZ      12.5223   YYYZ      45.1848
      XXZZ   -1246.9671   XYZZ     -30.5313   YYZZ    -712.2714
      XZZZ     102.5529   YZZZ     -19.7301   ZZZZ   -1623.4619
 -----------------------------------------------------------------
 Total job time:  5523.27s(wall), 5514.63s(cpu) 
 Thu Jun 19 10:52:12 2014

        *************************************************************
        *                                                           *
        *  Thank you very much for using Q-Chem.  Have a nice day.  *
        *                                                           *
        *************************************************************


0 sent ACK to 0 
now end server 0 ... 
