Process 0 of 1 is on cl247.stfx.acenet.ca - thread support 1
initial socket setup ...start
initial socket setup ...done 
now start server 0 ... 

cmd = /usr/bin/ssh clhead /usr/local/qchem/bin/get_hostid 616982162 > /scratch/tmp/4506581.1.long.q/qchem18098/lic.dat
                  Welcome to Q-Chem
     A Quantum Leap Into The Future Of Chemistry

 Y. Shao, L. Fusti-Molnar, Y. Jung, J. Kussmann, C. Ochsenfeld,
 S. T. Brown, A. T. B. Gilbert, L. V. Slipchenko,S. V. Levchenko,
 D. P. O'Neill, R. A. DiStasio Jr., R. C. Lochan, T. Wang,
 G. J. O. Beran, N. A. Besley, J. M. Herbert, C. Y. Lin,
 T. Van Voorhis, S. H. Chien, A. Sodt, R. P. Steele, 
 V. A. Rassolov, P. E. Maslen, P. P. Korambath, R. D. Adamson,
 B. Austin, J. Baker, E. F. C. Byrd, H. Dachsel, R. J. Doerksen,
 A. Dreuw, B. D. Dunietz, A. D. Dutoi, T. R. Furlani,
 S. R. Gwaltney, A. Heyden, S. Hirata, C.-P. Hsu, G. Kedziora,
 R. Z. Khaliullin, P. Klunzinger, A. M. Lee, M. S. Lee, W. Liang,
 I. Lotan, N. Nair, B. Peters, E. I. Proynov, P. A. Pieniazek, 
 Y. M. Rhee, J. Ritchie, E. Rosta, C. D. Sherrill, 
 A. C. Simmonett, J. E. Subotnik, H. L. Woodcock III,
 W. Zhang, A. T. Bell, A. K. Chakraborty, D. M. Chipman,
 F. J. Keil, A. Warshel, W. J. Hehre, H. F. Schaefer III,
 J. Kong, A. I. Krylov, P. M. W. Gill, M. Head-Gordon,
 Q-Chem, Version 3.1, Q-Chem, Inc., Pittsburgh, PA (2007).

 Additional authors for Version 3.1: 
 Z. Gan, Y. Zhao, N. E. Schultz, D. Truhlar, E. Epifanovsky and M. Oana.

 Additional authors for Version 3.2: 
 R. Baer, B. R. Brooks, D. Casanova, J.-D. Chai, C.-L. Cheng, 
 C. Cramer, D. Crittenden, A. Ghysels, G. Hawkins, E. G. Hohenstein, 
 C. Kelley, W. Kurlancheek, D. Liotard, E. Livshits, P. Manohar, 
 A. Marenich, D. Neuhauser, R. Olson, M. A. Rohrdanz, K. S. Thanthiriwatte, 
 A. J. W. Thom, V. Vanovschi, C. F. Williams, Q. Wu and Z.-Q. You. 


 Intel X86 Linux Version

 Q-chem begins on Thu Apr 21 21:04:00 2011  

 Parallel job on  1  processors
Processing $rem in /usr/local/qchem/config/preferences.

theFileMan(): MAXOPENFILES=974 MAX_SUB_FILE_NUM=16
Maximum size of a physical file is 2.0 GB, maximum size of a tmp-file is 32.0 GB


--------------------------------------------------------------
User input:
--------------------------------------------------------------

$molecule
0,3
O
O,1,r

r=1.21453434

$end

$comment
neutral
$end

$xc_functional
   X HF 1.0
   X BNL 1.0
   C LYP 1.0
$end

$rem
SYMMETRY_DECOMPOSITION	0
exchange 		general
BASIS                   g3large
omega			660 
JOBTYPE                 opt
separate_jk		true
mem_static              760
max_scf_cycles          200
scf_final_print         1
sym_ignore              true
$end


--------------------------------------------------------------
 Writing REM_CC_EA            2
 ----------------------------------------------------
       Standard Nuclear Orientation (Angstroms)
    I     Atom         X            Y            Z
 ----------------------------------------------------
    1      O       0.000000     0.000000     0.000000
    2      O       0.000000     0.000000     1.214534
 ----------------------------------------------------
 Nuclear Repulsion Energy =    27.8850423375 hartrees
 There are        9 alpha and        7 beta electrons
 Requested basis set is G3large
 There are 20 shells and 84 basis functions

Total QAlloc Memory Limit   2000 MB
Mega-Array Size       743 MB
MEM_STATIC part       760 MB
 A cutoff of  1.0D-11 yielded    206 shell pairs
 There are   3662 function pairs (  4809 Cartesian)
Evaluating contribution to one-electron hamiltonian from nuclear
 Smallest overlap matrix eigenvalue = 7.25E-04
 Multipole matrices computed through 2nd order

  Scale SEOQF with 1.000000e+00/1.000000e+00/1.000000e-01

 Standard Electronic Orientation quadrupole field applied
 Nucleus-field energy     =    -0.0000000013 hartrees
 Guess from superposition of atomic densities
 Warning:  Energy on first SCF cycle will be non-variational
 An unrestricted hybrid HF-DFT SCF calculation will be
 performed using Pulay DIIS extrapolation
 Exchange:     1.0000 Hartree-Fock + 1.0000 BNL
 Correlation:  1.0000 LYP
 Using SG-1 standard quadrature grid
 SCF converges when DIIS error is below 1.0E-08
 ---------------------------------------
  Cycle       Energy         DIIS Error
 ---------------------------------------
    1    -149.2343282306      4.73E-02
    2    -149.1273009858      6.78E-03
    3    -149.1711995863      3.12E-03
    4    -149.1792137720      7.23E-04
    5    -149.1820694297      3.49E-04
    6    -149.1829407876      1.34E-04
    7    -149.1831506935      3.38E-05
    8    -149.1831693789      6.35E-06
    9    -149.1831700255      1.16E-06
   10    -149.1831700376      2.41E-07
   11    -149.1831700389      4.33E-08
   12    -149.1831700389      8.58E-09 Convergence criterion met
 ---------------------------------------
 One-Electron    Energy =  -261.3190725653
 Total Coulomb   Energy =   100.0291054023
 Alpha Exchange  Energy =    -2.8154406948
 Beta  Exchange  Energy =    -2.1142064966
 DFT   Exchange  Energy =   -10.2775111282
 DFT Correlation Energy =    -0.5710868925
 Nuclear Repu.   Energy =    27.8850423362
 Nuclear Attr.   Energy =  -409.9024797492
 Kinetic         Energy =   148.5834071839
 <S^2> = 2.0117
 SCF time:  CPU 13.25 s  wall 13.98 s
 Final Alpha MO Eigenvalues
            1           2           3           4           5           6
    1 -19.1016595 -19.1015685  -1.5446927  -1.0586213  -0.7773205  -0.7773205
            7           8           9          10          11          12
    1  -0.7443952  -0.5071805  -0.5071805   0.1502124   0.1569286   0.1921502
           13          14
    1   0.1921502   0.2581569
 Final Beta MO Eigenvalues
            1           2           3           4           5           6
    1 -19.0689282 -19.0682959  -1.4852180  -0.9475038  -0.6975812  -0.6318923
            7           8           9          10          11          12
    1  -0.6318923   0.0027583   0.0027583   0.1550436   0.1600950   0.1993439
 Analysis of SCF Wavefunction
 
 --------------------------------------------------------------
                    Orbital Energies (a.u.)
 --------------------------------------------------------------
 
 Alpha MOs
 -- Occupied --
-19.102 -19.102  -1.545  -1.059  -0.777  -0.777  -0.744  -0.507
 -0.507
 -- Virtual --
  0.150   0.157   0.192   0.192   0.258   0.264   0.264   0.381
  0.404   1.017   1.063   1.063   1.071   1.140   1.140   1.303
  1.365   1.365   1.439   1.439   1.617   1.767   1.767   2.357
  2.394   2.394   2.621   4.541   4.541   4.663   4.663   4.770
  4.897   4.897   4.989   4.989   5.047   5.047   5.171   5.231
  5.231   5.340   5.799   5.799   6.691   6.691   6.828   6.828
  6.866   6.866   6.882   7.016   7.016   7.401   7.401   7.964
  8.116  43.558  43.611  43.641  43.693  43.738  43.738  43.767
 43.767  43.800  43.879  45.584  45.584  45.739  45.810  45.810
 47.092  50.037  50.327
 
 Beta MOs
 -- Occupied --
-19.069 -19.068  -1.485  -0.948  -0.698  -0.632  -0.632
 -- Virtual --
  0.003   0.003   0.155   0.160   0.199   0.199   0.258   0.280
  0.280   0.407   0.432   1.032   1.082   1.103   1.103   1.186
  1.186   1.330   1.406   1.406   1.486   1.486   1.651   1.838
  1.838   2.395   2.432   2.432   2.645   4.588   4.588   4.707
  4.707   4.806   4.971   4.971   5.054   5.054   5.108   5.108
  5.212   5.300   5.300   5.384   5.852   5.852   6.798   6.798
  6.891   6.891   6.931   6.971   6.971   7.083   7.083   7.447
  7.447   7.999   8.162  43.642  43.694  43.724  43.776  43.794
 43.794  43.822  43.822  43.847  43.927  45.628  45.628  45.761
 45.854  45.854  47.116  50.075  50.366
 --------------------------------------------------------------
 
          Ground-State Mulliken Net Atomic Charges

     Atom                 Charge (a.u.)    Spin (a.u.)
  --------------------------------------------------------
      1 O                     0.000000       1.000000
      2 O                     0.000000       1.000000
  --------------------------------------------------------
  Sum of atomic charges =     0.000000
  Sum of spin   charges =     2.000000

 -----------------------------------------------------------------
                    Cartesian Multipole Moments
 -----------------------------------------------------------------
    Charge (ESU x 10^10)
                 0.0000
    Dipole Moment (Debye)
         X       0.0000      Y       0.0000      Z       0.0000
       Tot       0.0000
    Quadrupole Moments (Debye-Ang)
        XX     -10.1667     XY       0.0000     YY     -10.1667
        XZ       0.0000     YZ       0.0000     ZZ     -10.6504
    Octapole Moments (Debye-Ang^2)
       XXX       0.0000    XXY       0.0000    XYY       0.0000
       YYY       0.0000    XXZ      -6.1739    XYZ       0.0000
       YYZ      -6.1739    XZZ       0.0000    YZZ       0.0000
       ZZZ     -19.4029
    Hexadecapole Moments (Debye-Ang^3)
      XXXX      -7.4752   XXXY       0.0000   XXYY      -2.4917
      XYYY       0.0000   YYYY      -7.4752   XXXZ       0.0000
      XXYZ       0.0000   XYYZ       0.0000   YYYZ       0.0000
      XXZZ     -10.1999   XYZZ       0.0000   YYZZ     -10.1999
      XZZZ       0.0000   YZZZ       0.0000   ZZZZ     -53.2479
 -----------------------------------------------------------------
 Calculating analytic gradient of the SCF energy
 Gradient of AOints
            1           2
    1   0.0000001  -0.0000001
    2   0.0000001  -0.0000001
    3  13.5983372 -13.5983372
 Gradient of XC Energy
            1           2
    1  -0.0000000   0.0000000
    2  -0.0000000   0.0000000
    3  -0.3869169   0.3869169
 Gradient of SCF Energy
            1           2
    1  -0.0000000   0.0000000
    2  -0.0000000   0.0000000
    3  -0.0896799   0.0896799
 Max gradient component =       8.968E-02
 RMS gradient           =       5.178E-02
 Gradient time:  CPU 4.41 s  wall 4.49 s
 Geometry Optimization Parameters
   NAtoms,    NIC,     NZ,  NCons,   NDum,   NFix, NCnnct, MaxDiis
        2       5       2       0       0       0       0       0


** GEOMETRY OPTIMIZATION IN DELOCALIZED INTERNAL COORDINATES **
   Searching for a Minimum

   Optimization Cycle:   1

                       Coordinates (Angstroms)
     ATOM              X           Y           Z
    1  O           0.000000    0.000000    0.000000
    2  O           0.000000    0.000000    1.214534
   Point Group: c1    Number of degrees of freedom:   0


   Energy is   -149.183170039


 Attempting to Generate Delocalized Internal Coordinates

  ***ERROR*** Wrong Number of Internal Coordinates
              Should be:   0  Found:   1
**WARNING** Problems with Internal Coordinates
  Switching to Cartesian Coordinates

 Translations and Rotations Projected Out of Hessian

  1 Hessian modes will be used to form the next step
  Hessian Eigenvalues:
     1.000000

 Minimum Search - Taking Simple RFO Step
 Searching for Lamda that Minimizes Along All modes
 Value Taken    Lamda =  -0.01583430
 Step Taken.  Stepsize is  0.124850

                             Maximum     Tolerance    Cnvgd?
         Gradient           0.089680      0.000300      NO
         Displacement       0.088282      0.001200      NO
         Energy change     *********      0.000001      NO

 Writing REM_CC_EA            2
 ----------------------------------------------------
       Standard Nuclear Orientation (Angstroms)
    I     Atom         X            Y            Z
 ----------------------------------------------------
    1      O       0.000000     0.000000     0.046717
    2      O       0.000000     0.000000     1.167818
 ----------------------------------------------------
 Nuclear Repulsion Energy =    30.2090092836 hartrees
 There are        9 alpha and        7 beta electrons
 Applying Cartesian multipole field
    Component          Value
    ---------          -----
     (2,0,0)        1.00000E-10
     (0,2,0)        2.00000E-10
     (0,0,2)       -3.00000E-11
 Nucleus-field energy     =    -0.0000000012 hartrees
 Requested basis set is G3large
 There are 20 shells and 84 basis functions
 A cutoff of  1.0D-11 yielded    207 shell pairs
 There are   3687 function pairs (  4845 Cartesian)
Evaluating contribution to one-electron hamiltonian from nuclear
 Smallest overlap matrix eigenvalue = 4.62E-04
 Multipole matrices computed through 2nd order
 Guess MOs from SCF MO coefficient file
Reading MOs from coefficient file
Reading MOs from coefficient file
 An unrestricted hybrid HF-DFT SCF calculation will be
 performed using Pulay DIIS extrapolation
 Exchange:     1.0000 Hartree-Fock + 1.0000 BNL
 Correlation:  1.0000 LYP
 Using SG-1 standard quadrature grid
 SCF converges when DIIS error is below 1.0E-08
 Warning!  Inaccurate integrated density:
   Number of electrons =    16
   Numerical integral  =    16.038359437461
   Relative error      =     0.2397464841 %
 ---------------------------------------
  Cycle       Energy         DIIS Error
 ---------------------------------------
    1    -149.2785152634      1.02E-02
    2    -149.1824709981      1.46E-03
    3    -149.1834727162      4.47E-04
    4    -149.1835600042      7.51E-05
    5    -149.1835647072      2.03E-05
    6    -149.1835653204      2.47E-06
    7    -149.1835653331      3.14E-07
    8    -149.1835653290      7.82E-08
    9    -149.1835653256      1.90E-08
   10    -149.1835653253      1.15E-08
   11    -149.1835653251      6.47E-10 Convergence criterion met
 ---------------------------------------
 One-Electron    Energy =  -265.7566359413
 Total Coulomb   Energy =   102.2533035455
 Alpha Exchange  Energy =    -2.8235571827
 Beta  Exchange  Energy =    -2.1354539071
 DFT   Exchange  Energy =   -10.3546908648
 DFT Correlation Energy =    -0.5755402571
 Nuclear Repu.   Energy =    30.2090092825
 Nuclear Attr.   Energy =  -414.7428815457
 Kinetic         Energy =   148.9862456043
 <S^2> = 2.0092
 SCF time:  CPU 12.00 s  wall 12.66 s
 Final Alpha MO Eigenvalues
            1           2           3           4           5           6
    1 -19.0875828 -19.0874757  -1.6210700  -1.0287032  -0.8123553  -0.8123553
            7           8           9          10          11          12
    1  -0.7638230  -0.4708893  -0.4708893   0.1582042   0.1586219   0.1900867
           13          14
    1   0.1900867   0.2583584
 Final Beta MO Eigenvalues
            1           2           3           4           5           6
    1 -19.0552875 -19.0545354  -1.5664346  -0.9185264  -0.7136614  -0.6757665
            7           8           9          10          11          12
    1  -0.6757665   0.0394829   0.0394829   0.1602711   0.1612526   0.1946918
 Analysis of SCF Wavefunction
 
 --------------------------------------------------------------
                    Orbital Energies (a.u.)
 --------------------------------------------------------------
 
 Alpha MOs
 -- Occupied --
-19.088 -19.087  -1.621  -1.029  -0.812  -0.812  -0.764  -0.471
 -0.471
 -- Virtual --
  0.158   0.159   0.190   0.190   0.258   0.267   0.267   0.407
  0.521   1.037   1.041   1.055   1.055   1.139   1.139   1.294
  1.340   1.340   1.497   1.497   1.618   1.807   1.807   2.471
  2.471   2.496   2.642   4.626   4.626   4.628   4.628   4.692
  4.906   4.906   4.927   4.927   5.062   5.062   5.287   5.287
  5.444   5.582   6.030   6.030   6.542   6.695   6.696   6.871
  6.871   6.984   6.984   7.140   7.140   7.621   7.621   8.265
  8.380  43.572  43.624  43.654  43.707  43.752  43.752  43.754
 43.797  43.797  44.061  45.601  45.601  45.937  45.937  46.112
 46.794  50.088  50.907
 
 Beta MOs
 -- Occupied --
-19.055 -19.055  -1.566  -0.919  -0.714  -0.676  -0.676
 -- Virtual --
  0.039   0.039   0.160   0.161   0.195   0.195   0.258   0.285
  0.285   0.409   0.570   1.051   1.055   1.089   1.089   1.185
  1.185   1.321   1.380   1.380   1.550   1.550   1.651   1.879
  1.879   2.508   2.508   2.532   2.668   4.668   4.668   4.681
  4.681   4.729   4.979   4.979   4.990   4.990   5.118   5.118
  5.356   5.356   5.486   5.626   6.083   6.083   6.585   6.800
  6.801   6.974   6.974   7.050   7.050   7.205   7.205   7.663
  7.663   8.307   8.420  43.654  43.706  43.736  43.789  43.800
 43.807  43.807  43.851  43.851  44.108  45.644  45.644  45.980
 45.980  46.134  46.818  50.125  50.942
 --------------------------------------------------------------
 
          Ground-State Mulliken Net Atomic Charges

     Atom                 Charge (a.u.)    Spin (a.u.)
  --------------------------------------------------------
      1 O                     0.000000       1.000000
      2 O                     0.000000       1.000000
  --------------------------------------------------------
  Sum of atomic charges =     0.000000
  Sum of spin   charges =     2.000000

 -----------------------------------------------------------------
                    Cartesian Multipole Moments
 -----------------------------------------------------------------
    Charge (ESU x 10^10)
                 0.0000
    Dipole Moment (Debye)
         X       0.0000      Y       0.0000      Z       0.0000
       Tot       0.0000
    Quadrupole Moments (Debye-Ang)
        XX      -9.9793     XY       0.0000     YY      -9.9793
        XZ       0.0000     YZ       0.0000     ZZ     -10.8116
    Octapole Moments (Debye-Ang^2)
       XXX       0.0000    XXY       0.0000    XYY       0.0000
       YYY       0.0000    XXZ      -6.0601    XYZ       0.0000
       YYZ      -6.0601    XZZ       0.0000    YZZ       0.0000
       ZZZ     -19.6965
    Hexadecapole Moments (Debye-Ang^3)
      XXXX      -7.2063   XXXY       0.0000   XXYY      -2.4021
      XYYY       0.0000   YYYY      -7.2063   XXXZ       0.0000
      XXYZ       0.0000   XYYZ       0.0000   YYYZ       0.0000
      XXZZ      -9.5834   XYZZ       0.0000   YYZZ      -9.5834
      XZZZ       0.0000   YZZZ       0.0000   ZZZZ     -50.7012
 -----------------------------------------------------------------
 Calculating analytic gradient of the SCF energy
 Gradient of AOints
            1           2
    1   0.0000000  -0.0000000
    2  -0.0000000   0.0000000
    3  14.3205915 -14.3205915
 Gradient of XC Energy
            1           2
    1  -0.0000000   0.0000000
    2   0.0000000  -0.0000000
    3  -0.4309653   0.4309653
 Gradient of SCF Energy
            1           2
    1   0.0000000  -0.0000000
    2  -0.0000000   0.0000000
    3   0.1058648  -0.1058648
 Max gradient component =       1.059E-01
 RMS gradient           =       6.112E-02
 Gradient time:  CPU 4.28 s  wall 4.33 s
 Geometry Optimization Parameters
   NAtoms,    NIC,     NZ,  NCons,   NDum,   NFix, NCnnct, MaxDiis
        2       5       2       0       0       0       0       0

 Cartesian Hessian Update
 Hessian Updated using BFGS Update


** GEOMETRY OPTIMIZATION IN CARTESIAN COORDINATES **
   Searching for a Minimum

   Optimization Cycle:   2

                       Coordinates (Angstroms)
     ATOM              X           Y           Z
    1  O           0.000000    0.000000    0.046717
    2  O           0.000000    0.000000    1.167818
   Point Group: c1    Number of degrees of freedom:   0


   Energy is   -149.183565325


 Translations and Rotations Projected Out of Hessian

  1 Hessian modes will be used to form the next step
  Hessian Eigenvalues:
     2.215001

 Minimum Search - Taking Simple RFO Step
 Searching for Lamda that Minimizes Along All modes
 Value Taken    Lamda =  -0.01007348
 Step Taken.  Stepsize is  0.067286

                             Maximum     Tolerance    Cnvgd?
         Gradient           0.105865      0.000300      NO
         Displacement       0.047578      0.001200      NO
         Energy change     -0.000395      0.000001      NO

 Writing REM_CC_EA            2
 ----------------------------------------------------
       Standard Nuclear Orientation (Angstroms)
    I     Atom         X            Y            Z
 ----------------------------------------------------
    1      O       0.000000     0.000000     0.021540
    2      O       0.000000     0.000000     1.192995
 ----------------------------------------------------
 Nuclear Repulsion Energy =    28.9104882317 hartrees
 There are        9 alpha and        7 beta electrons
 Applying Cartesian multipole field
    Component          Value
    ---------          -----
     (2,0,0)        1.00000E-10
     (0,2,0)        2.00000E-10
     (0,0,2)       -3.00000E-11
 Nucleus-field energy     =    -0.0000000012 hartrees
 Requested basis set is G3large
 There are 20 shells and 84 basis functions
 A cutoff of  1.0D-11 yielded    206 shell pairs
 There are   3662 function pairs (  4809 Cartesian)
Evaluating contribution to one-electron hamiltonian from nuclear
 Smallest overlap matrix eigenvalue = 5.91E-04
 Multipole matrices computed through 2nd order
 Guess MOs from SCF MO coefficient file
Reading MOs from coefficient file
Reading MOs from coefficient file
 An unrestricted hybrid HF-DFT SCF calculation will be
 performed using Pulay DIIS extrapolation
 Exchange:     1.0000 Hartree-Fock + 1.0000 BNL
 Correlation:  1.0000 LYP
 Using SG-1 standard quadrature grid
 SCF converges when DIIS error is below 1.0E-08
 ---------------------------------------
  Cycle       Energy         DIIS Error
 ---------------------------------------
    1    -149.1670587156      5.86E-03
    2    -149.1872634653      7.85E-04
    3    -149.1875529810      2.14E-04
    4    -149.1875728193      3.46E-05
    5    -149.1875741008      1.11E-05
    6    -149.1875742062      1.39E-06
    7    -149.1875742185      1.66E-07
    8    -149.1875742206      4.35E-08
    9    -149.1875742213      3.83E-09 Convergence criterion met
 ---------------------------------------
 One-Electron    Energy =  -263.2877672177
 Total Coulomb   Energy =   101.0167067901
 Alpha Exchange  Energy =    -2.8192850766
 Beta  Exchange  Energy =    -2.1239131452
 DFT   Exchange  Energy =   -10.3107271067
 DFT Correlation Energy =    -0.5730766957
 Nuclear Repu.   Energy =    28.9104882305
 Nuclear Attr.   Energy =  -412.0364211292
 Kinetic         Energy =   148.7486539115
 <S^2> = 2.0106
 SCF time:  CPU 9.85 s  wall 10.24 s
 Final Alpha MO Eigenvalues
            1           2           3           4           5           6
    1 -19.0953788 -19.0952950  -1.5781984  -1.0449631  -0.7923956  -0.7923956
            7           8           9          10          11          12
    1  -0.7532946  -0.4914686  -0.4914686   0.1545588   0.1577051   0.1912828
           13          14
    1   0.1912828   0.2581903
 Final Beta MO Eigenvalues
            1           2           3           4           5           6
    1 -19.0628164 -19.0621450  -1.5209238  -0.9342569  -0.7049511  -0.6510073
            7           8           9          10          11          12
    1  -0.6510073   0.0190796   0.0190796   0.1578946   0.1606582   0.1972948
 Analysis of SCF Wavefunction
 
 --------------------------------------------------------------
                    Orbital Energies (a.u.)
 --------------------------------------------------------------
 
 Alpha MOs
 -- Occupied --
-19.095 -19.095  -1.578  -1.045  -0.792  -0.792  -0.753  -0.491
 -0.491
 -- Virtual --
  0.155   0.158   0.191   0.191   0.258   0.265   0.265   0.405
  0.443   1.022   1.057   1.060   1.060   1.140   1.140   1.298
  1.353   1.353   1.463   1.463   1.617   1.785   1.785   2.425
  2.431   2.431   2.624   4.575   4.575   4.641   4.641   4.755
  4.900   4.900   4.962   4.962   5.056   5.056   5.255   5.255
  5.270   5.444   5.900   5.900   6.693   6.694   6.727   6.870
  6.870   6.953   6.953   7.072   7.072   7.450   7.450   8.143
  8.197  43.565  43.617  43.647  43.699  43.748  43.748  43.773
 43.773  43.834  43.898  45.590  45.590  45.864  45.864  45.881
 46.983  50.067  50.574
 
 Beta MOs
 -- Occupied --
-19.063 -19.062  -1.521  -0.934  -0.705  -0.651  -0.651
 -- Virtual --
  0.019   0.019   0.158   0.161   0.197   0.197   0.258   0.282
  0.282   0.408   0.493   1.038   1.068   1.098   1.098   1.186
  1.186   1.325   1.394   1.394   1.513   1.513   1.651   1.856
  1.856   2.462   2.468   2.468   2.649   4.625   4.625   4.684
  4.684   4.792   4.974   4.974   5.026   5.026   5.115   5.115
  5.310   5.324   5.324   5.488   5.953   5.953   6.773   6.799
  6.800   6.974   6.975   7.020   7.020   7.138   7.138   7.491
  7.491   8.182   8.241  43.647  43.699  43.730  43.782  43.803
 43.803  43.828  43.828  43.882  43.945  45.634  45.634  45.904
 45.908  45.908  47.007  50.104  50.611
 --------------------------------------------------------------
 
          Ground-State Mulliken Net Atomic Charges

     Atom                 Charge (a.u.)    Spin (a.u.)
  --------------------------------------------------------
      1 O                     0.000000       1.000000
      2 O                     0.000000       1.000000
  --------------------------------------------------------
  Sum of atomic charges =     0.000000
  Sum of spin   charges =     2.000000

 -----------------------------------------------------------------
                    Cartesian Multipole Moments
 -----------------------------------------------------------------
    Charge (ESU x 10^10)
                 0.0000
    Dipole Moment (Debye)
         X       0.0000      Y       0.0000      Z       0.0000
       Tot       0.0000
    Quadrupole Moments (Debye-Ang)
        XX     -10.0816     XY       0.0000     YY     -10.0816
        XZ       0.0000     YZ       0.0000     ZZ     -10.7265
    Octapole Moments (Debye-Ang^2)
       XXX       0.0000    XXY       0.0000    XYY       0.0000
       YYY       0.0000    XXZ      -6.1222    XYZ       0.0000
       YYZ      -6.1222    XZZ       0.0000    YZZ       0.0000
       ZZZ     -19.5416
    Hexadecapole Moments (Debye-Ang^3)
      XXXX      -7.3479   XXXY       0.0000   XXYY      -2.4493
      XYYY       0.0000   YYYY      -7.3479   XXXZ       0.0000
      XXYZ       0.0000   XYYZ       0.0000   YYYZ       0.0000
      XXZZ      -9.9060   XYZZ       0.0000   YYZZ      -9.9060
      XZZZ       0.0000   YZZZ       0.0000   ZZZZ     -52.0429
 -----------------------------------------------------------------
 Calculating analytic gradient of the SCF energy
 Gradient of AOints
            1           2
    1  -0.0000000   0.0000000
    2   0.0000000  -0.0000000
    3  13.9706361 -13.9706361
 Gradient of XC Energy
            1           2
    1   0.0000000  -0.0000000
    2  -0.0000000   0.0000000
    3  -0.4085162   0.4085162
 Gradient of SCF Energy
            1           2
    1   0.0000000  -0.0000000
    2  -0.0000000   0.0000000
    3  -0.0147961   0.0147961
 Max gradient component =       1.480E-02
 RMS gradient           =       8.543E-03
 Gradient time:  CPU 4.22 s  wall 4.28 s
 Geometry Optimization Parameters
   NAtoms,    NIC,     NZ,  NCons,   NDum,   NFix, NCnnct, MaxDiis
        2       5       2       0       0       0       0       0

 Cartesian Hessian Update
 Hessian Updated using BFGS Update


** GEOMETRY OPTIMIZATION IN CARTESIAN COORDINATES **
   Searching for a Minimum

   Optimization Cycle:   3

                       Coordinates (Angstroms)
     ATOM              X           Y           Z
    1  O           0.000000    0.000000    0.021540
    2  O           0.000000    0.000000    1.192995
   Point Group: c1    Number of degrees of freedom:   0


   Energy is   -149.187574221


 Translations and Rotations Projected Out of Hessian

  1 Hessian modes will be used to form the next step
  Hessian Eigenvalues:
     2.536060

 Minimum Search - Taking Simple RFO Step
 Searching for Lamda that Minimizes Along All modes
 Value Taken    Lamda =  -0.00017265
 Step Taken.  Stepsize is  0.008250

                             Maximum     Tolerance    Cnvgd?
         Gradient           0.014796      0.000300      NO
         Displacement       0.005834      0.001200      NO
         Energy change     -0.004009      0.000001      NO

 Writing REM_CC_EA            2
 ----------------------------------------------------
       Standard Nuclear Orientation (Angstroms)
    I     Atom         X            Y            Z
 ----------------------------------------------------
    1      O       0.000000     0.000000     0.024627
    2      O       0.000000     0.000000     1.189908
 ----------------------------------------------------
 Nuclear Repulsion Energy =    29.0636724996 hartrees
 There are        9 alpha and        7 beta electrons
 Applying Cartesian multipole field
    Component          Value
    ---------          -----
     (2,0,0)        1.00000E-10
     (0,2,0)        2.00000E-10
     (0,0,2)       -3.00000E-11
 Nucleus-field energy     =    -0.0000000012 hartrees
 Requested basis set is G3large
 There are 20 shells and 84 basis functions
 A cutoff of  1.0D-11 yielded    206 shell pairs
 There are   3662 function pairs (  4809 Cartesian)
Evaluating contribution to one-electron hamiltonian from nuclear
 Smallest overlap matrix eigenvalue = 5.74E-04
 Multipole matrices computed through 2nd order
 Guess MOs from SCF MO coefficient file
Reading MOs from coefficient file
Reading MOs from coefficient file
 An unrestricted hybrid HF-DFT SCF calculation will be
 performed using Pulay DIIS extrapolation
 Exchange:     1.0000 Hartree-Fock + 1.0000 BNL
 Correlation:  1.0000 LYP
 Using SG-1 standard quadrature grid
 SCF converges when DIIS error is below 1.0E-08
 ---------------------------------------
  Cycle       Energy         DIIS Error
 ---------------------------------------
    1    -149.1920457829      6.70E-04
    2    -149.1876687069      9.64E-05
    3    -149.1876730950      2.80E-05
    4    -149.1876734492      4.67E-06
    5    -149.1876734186      1.37E-06
    6    -149.1876734387      1.64E-07
    7    -149.1876734383      1.91E-08
    8    -149.1876734381      6.03E-09 Convergence criterion met
 ---------------------------------------
 One-Electron    Energy =  -263.5804513369
 Total Coulomb   Energy =   101.1634244741
 Alpha Exchange  Energy =    -2.8198240831
 Beta  Exchange  Energy =    -2.1253170483
 DFT   Exchange  Energy =   -10.3158072308
 DFT Correlation Energy =    -0.5733707115
 Nuclear Repu.   Energy =    29.0636724984
 Nuclear Attr.   Energy =  -412.3554695366
 Kinetic         Energy =   148.7750181997
 <S^2> = 2.0104
 SCF time:  CPU 8.71 s  wall 9.10 s
 Final Alpha MO Eigenvalues
            1           2           3           4           5           6
    1 -19.0944466 -19.0943624  -1.5832388  -1.0429829  -0.7947011  -0.7947011
            7           8           9          10          11          12
    1  -0.7545756  -0.4890782  -0.4890782   0.1550739   0.1578175   0.1911469
           13          14
    1   0.1911469   0.2582031
 Final Beta MO Eigenvalues
            1           2           3           4           5           6
    1 -19.0619125 -19.0612337  -1.5262840  -0.9323391  -0.7060101  -0.6538964
            7           8           9          10          11          12
    1  -0.6538964   0.0215053   0.0215053   0.1582337   0.1607359   0.1969879
 Analysis of SCF Wavefunction
 
 --------------------------------------------------------------
                    Orbital Energies (a.u.)
 --------------------------------------------------------------
 
 Alpha MOs
 -- Occupied --
-19.094 -19.094  -1.583  -1.043  -0.795  -0.795  -0.755  -0.489
 -0.489
 -- Virtual --
  0.155   0.158   0.191   0.191   0.258   0.266   0.266   0.405
  0.452   1.023   1.055   1.060   1.060   1.140   1.140   1.298
  1.352   1.352   1.467   1.467   1.617   1.787   1.787   2.434
  2.436   2.436   2.626   4.581   4.581   4.638   4.638   4.749
  4.901   4.901   4.958   4.958   5.057   5.057   5.258   5.258
  5.288   5.460   5.915   5.915   6.694   6.694   6.704   6.870
  6.871   6.964   6.964   7.080   7.080   7.464   7.464   8.171
  8.207  43.566  43.617  43.648  43.700  43.749  43.749  43.775
 43.775  43.826  43.915  45.591  45.591  45.872  45.872  45.905
 46.963  50.070  50.613
 
 Beta MOs
 -- Occupied --
-19.062 -19.061  -1.526  -0.932  -0.706  -0.654  -0.654
 -- Virtual --
  0.022   0.022   0.158   0.161   0.197   0.197   0.258   0.282
  0.282   0.408   0.502   1.040   1.066   1.097   1.097   1.185
  1.185   1.324   1.392   1.392   1.517   1.517   1.651   1.859
  1.859   2.471   2.473   2.473   2.651   4.631   4.631   4.682
  4.682   4.786   4.974   4.974   5.022   5.022   5.115   5.115
  5.328   5.328   5.329   5.504   5.968   5.968   6.750   6.800
  6.800   6.975   6.975   7.032   7.032   7.146   7.146   7.504
  7.504   8.210   8.251  43.648  43.700  43.731  43.782  43.804
 43.804  43.830  43.830  43.873  43.962  45.635  45.635  45.916
 45.916  45.928  46.987  50.108  50.650
 --------------------------------------------------------------
 
          Ground-State Mulliken Net Atomic Charges

     Atom                 Charge (a.u.)    Spin (a.u.)
  --------------------------------------------------------
      1 O                     0.000000       1.000000
      2 O                     0.000000       1.000000
  --------------------------------------------------------
  Sum of atomic charges =     0.000000
  Sum of spin   charges =     2.000000

 -----------------------------------------------------------------
                    Cartesian Multipole Moments
 -----------------------------------------------------------------
    Charge (ESU x 10^10)
                 0.0000
    Dipole Moment (Debye)
         X       0.0000      Y       0.0000      Z       0.0000
       Tot       0.0000
    Quadrupole Moments (Debye-Ang)
        XX     -10.0692     XY       0.0000     YY     -10.0692
        XZ       0.0000     YZ       0.0000     ZZ     -10.7372
    Octapole Moments (Debye-Ang^2)
       XXX       0.0000    XXY       0.0000    XYY       0.0000
       YYY       0.0000    XXZ      -6.1147    XYZ       0.0000
       YYZ      -6.1147    XZZ       0.0000    YZZ       0.0000
       ZZZ     -19.5610
    Hexadecapole Moments (Debye-Ang^3)
      XXXX      -7.3300   XXXY       0.0000   XXYY      -2.4433
      XYYY       0.0000   YYYY      -7.3300   XXXZ       0.0000
      XXYZ       0.0000   XYYZ       0.0000   YYYZ       0.0000
      XXZZ      -9.8651   XYZZ       0.0000   YYZZ      -9.8651
      XZZZ       0.0000   YZZZ       0.0000   ZZZZ     -51.8744
 -----------------------------------------------------------------
 Calculating analytic gradient of the SCF energy
 Gradient of AOints
            1           2
    1  -0.0000000   0.0000000
    2   0.0000000  -0.0000000
    3  14.0190116 -14.0190116
 Gradient of XC Energy
            1           2
    1  -0.0000000   0.0000000
    2  -0.0000000   0.0000000
    3  -0.4114559   0.4114559
 Gradient of SCF Energy
            1           2
    1  -0.0000000   0.0000000
    2   0.0000000  -0.0000000
    3  -0.0021174   0.0021174
 Max gradient component =       2.117E-03
 RMS gradient           =       1.222E-03
 Gradient time:  CPU 4.24 s  wall 4.48 s
 Geometry Optimization Parameters
   NAtoms,    NIC,     NZ,  NCons,   NDum,   NFix, NCnnct, MaxDiis
        2       5       2       0       0       0       0       0

 Cartesian Hessian Update
 Hessian Updated using BFGS Update


** GEOMETRY OPTIMIZATION IN CARTESIAN COORDINATES **
   Searching for a Minimum

   Optimization Cycle:   4

                       Coordinates (Angstroms)
     ATOM              X           Y           Z
    1  O           0.000000    0.000000    0.024627
    2  O           0.000000    0.000000    1.189908
   Point Group: c1    Number of degrees of freedom:   0


   Energy is   -149.187673438


 Translations and Rotations Projected Out of Hessian

  1 Hessian modes will be used to form the next step
  Hessian Eigenvalues:
     2.173284

 Minimum Search - Taking Simple RFO Step
 Searching for Lamda that Minimizes Along All modes
 Value Taken    Lamda =  -0.00000413
 Step Taken.  Stepsize is  0.001378

                             Maximum     Tolerance    Cnvgd?
         Gradient           0.002117      0.000300      NO
         Displacement       0.000974      0.001200     YES
         Energy change     -0.000099      0.000001      NO

 Writing REM_CC_EA            2
 ----------------------------------------------------
       Standard Nuclear Orientation (Angstroms)
    I     Atom         X            Y            Z
 ----------------------------------------------------
    1      O       0.000000     0.000000     0.025142
    2      O       0.000000     0.000000     1.189392
 ----------------------------------------------------
 Nuclear Repulsion Energy =    29.0894132201 hartrees
 There are        9 alpha and        7 beta electrons
 Applying Cartesian multipole field
    Component          Value
    ---------          -----
     (2,0,0)        1.00000E-10
     (0,2,0)        2.00000E-10
     (0,0,2)       -3.00000E-11
 Nucleus-field energy     =    -0.0000000012 hartrees
 Requested basis set is G3large
 There are 20 shells and 84 basis functions
 A cutoff of  1.0D-11 yielded    206 shell pairs
 There are   3662 function pairs (  4809 Cartesian)
Evaluating contribution to one-electron hamiltonian from nuclear
 Smallest overlap matrix eigenvalue = 5.71E-04
 Multipole matrices computed through 2nd order
 Guess MOs from SCF MO coefficient file
Reading MOs from coefficient file
Reading MOs from coefficient file
 An unrestricted hybrid HF-DFT SCF calculation will be
 performed using Pulay DIIS extrapolation
 Exchange:     1.0000 Hartree-Fock + 1.0000 BNL
 Correlation:  1.0000 LYP
 Using SG-1 standard quadrature grid
 SCF converges when DIIS error is below 1.0E-08
 ---------------------------------------
  Cycle       Energy         DIIS Error
 ---------------------------------------
    1    -149.1883745343      1.13E-04
    2    -149.1876753405      1.61E-05
    3    -149.1876754427      4.64E-06
    4    -149.1876754791      7.73E-07
    5    -149.1876754715      2.29E-07
    6    -149.1876754744      2.88E-08
    7    -149.1876754742      1.17E-08
    8    -149.1876754742      3.91E-09 Convergence criterion met
 ---------------------------------------
 One-Electron    Energy =  -263.6295967041
 Total Coulomb   Energy =   101.1880573574
 Alpha Exchange  Energy =    -2.8199136417
 Beta  Exchange  Energy =    -2.1255519028
 DFT   Exchange  Energy =   -10.3166637632
 DFT Correlation Energy =    -0.5734200386
 Nuclear Repu.   Energy =    29.0894132189
 Nuclear Attr.   Energy =  -412.4090887580
 Kinetic         Energy =   148.7794920539
 <S^2> = 2.0104
 SCF time:  CPU 8.56 s  wall 8.98 s
 Final Alpha MO Eigenvalues
            1           2           3           4           5           6
    1 -19.0942902 -19.0942058  -1.5840864  -1.0426517  -0.7950898  -0.7950898
            7           8           9          10          11          12
    1  -0.7547898  -0.4886755  -0.4886755   0.1551578   0.1578363   0.1911239
           13          14
    1   0.1911239   0.2582055
 Final Beta MO Eigenvalues
            1           2           3           4           5           6
    1 -19.0617609 -19.0610809  -1.5271852  -0.9320185  -0.7061872  -0.6543827
            7           8           9          10          11          12
    1  -0.6543827   0.0219124   0.0219124   0.1582889   0.1607487   0.1969363
 Analysis of SCF Wavefunction
 
 --------------------------------------------------------------
                    Orbital Energies (a.u.)
 --------------------------------------------------------------
 
 Alpha MOs
 -- Occupied --
-19.094 -19.094  -1.584  -1.043  -0.795  -0.795  -0.755  -0.489
 -0.489
 -- Virtual --
  0.155   0.158   0.191   0.191   0.258   0.266   0.266   0.405
  0.453   1.023   1.055   1.060   1.060   1.140   1.140   1.298
  1.351   1.351   1.468   1.468   1.617   1.788   1.788   2.436
  2.437   2.437   2.626   4.582   4.582   4.638   4.638   4.748
  4.901   4.901   4.957   4.957   5.057   5.057   5.259   5.259
  5.292   5.463   5.918   5.918   6.694   6.694   6.700   6.870
  6.871   6.966   6.966   7.082   7.082   7.466   7.466   8.176
  8.209  43.566  43.618  43.648  43.700  43.749  43.749  43.775
 43.775  43.824  43.918  45.592  45.592  45.874  45.874  45.910
 46.959  50.071  50.619
 
 Beta MOs
 -- Occupied --
-19.062 -19.061  -1.527  -0.932  -0.706  -0.654  -0.654
 -- Virtual --
  0.022   0.022   0.158   0.161   0.197   0.197   0.258   0.282
  0.282   0.408   0.504   1.040   1.066   1.097   1.097   1.185
  1.185   1.324   1.392   1.392   1.518   1.518   1.651   1.859
  1.859   2.473   2.474   2.474   2.651   4.632   4.632   4.681
  4.681   4.785   4.974   4.974   5.021   5.021   5.116   5.116
  5.328   5.328   5.332   5.507   5.971   5.971   6.746   6.800
  6.800   6.975   6.975   7.034   7.034   7.148   7.148   7.507
  7.507   8.214   8.253  43.648  43.700  43.731  43.783  43.805
 43.805  43.830  43.830  43.872  43.965  45.635  45.635  45.917
 45.917  45.932  46.984  50.108  50.656
 --------------------------------------------------------------
 
          Ground-State Mulliken Net Atomic Charges

     Atom                 Charge (a.u.)    Spin (a.u.)
  --------------------------------------------------------
      1 O                     0.000000       1.000000
      2 O                     0.000000       1.000000
  --------------------------------------------------------
  Sum of atomic charges =     0.000000
  Sum of spin   charges =     2.000000

 -----------------------------------------------------------------
                    Cartesian Multipole Moments
 -----------------------------------------------------------------
    Charge (ESU x 10^10)
                 0.0000
    Dipole Moment (Debye)
         X       0.0000      Y       0.0000      Z       0.0000
       Tot       0.0000
    Quadrupole Moments (Debye-Ang)
        XX     -10.0671     XY       0.0000     YY     -10.0671
        XZ       0.0000     YZ       0.0000     ZZ     -10.7389
    Octapole Moments (Debye-Ang^2)
       XXX       0.0000    XXY       0.0000    XYY       0.0000
       YYY       0.0000    XXZ      -6.1134    XYZ       0.0000
       YYZ      -6.1134    XZZ       0.0000    YZZ       0.0000
       ZZZ     -19.5642
    Hexadecapole Moments (Debye-Ang^3)
      XXXX      -7.3270   XXXY       0.0000   XXYY      -2.4423
      XYYY       0.0000   YYYY      -7.3270   XXXZ       0.0000
      XXYZ       0.0000   XYYZ       0.0000   YYYZ       0.0000
      XXZZ      -9.8584   XYZZ       0.0000   YYZZ      -9.8584
      XZZZ       0.0000   YZZZ       0.0000   ZZZZ     -51.8464
 -----------------------------------------------------------------
 Calculating analytic gradient of the SCF energy
 Gradient of AOints
            1           2
    1   0.0000000  -0.0000000
    2   0.0000000  -0.0000000
    3  14.0269548 -14.0269548
 Gradient of XC Energy
            1           2
    1  -0.0000000   0.0000000
    2  -0.0000000   0.0000000
    3  -0.4119422   0.4119422
 Gradient of SCF Energy
            1           2
    1   0.0000000  -0.0000000
    2  -0.0000000   0.0000000
    3   0.0000528  -0.0000528
 Max gradient component =       5.278E-05
 RMS gradient           =       3.047E-05
 Gradient time:  CPU 4.23 s  wall 4.29 s
 Geometry Optimization Parameters
   NAtoms,    NIC,     NZ,  NCons,   NDum,   NFix, NCnnct, MaxDiis
        2       5       2       0       0       0       0       0

 Cartesian Hessian Update
 Hessian Updated using BFGS Update


** GEOMETRY OPTIMIZATION IN CARTESIAN COORDINATES **
   Searching for a Minimum

   Optimization Cycle:   5

                       Coordinates (Angstroms)
     ATOM              X           Y           Z
    1  O           0.000000    0.000000    0.025142
    2  O           0.000000    0.000000    1.189392
   Point Group: c1    Number of degrees of freedom:   0


   Energy is   -149.187675474


 Translations and Rotations Projected Out of Hessian

  1 Hessian modes will be used to form the next step
  Hessian Eigenvalues:
     2.227460

 Minimum Search - Taking Simple RFO Step
 Searching for Lamda that Minimizes Along All modes
 Value Taken    Lamda =   0.00000000
 Step Taken.  Stepsize is  0.000034

                             Maximum     Tolerance    Cnvgd?
         Gradient           0.000053      0.000300     YES
         Displacement       0.000024      0.001200     YES
         Energy change     -0.000002      0.000001      NO


                       Distance Matrix (Angstroms)
             O (  1)
   O (  2)  1.164250
 


 ******************************
 **  OPTIMIZATION CONVERGED  **
 ******************************
 Analysis of SCF Wavefunction
 
 --------------------------------------------------------------
                    Orbital Energies (a.u.)
 --------------------------------------------------------------
 
 Alpha MOs
 -- Occupied --
-19.094 -19.094  -1.584  -1.043  -0.795  -0.795  -0.755  -0.489
 -0.489
 -- Virtual --
  0.155   0.158   0.191   0.191   0.258   0.266   0.266   0.405
  0.453   1.023   1.055   1.060   1.060   1.140   1.140   1.298
  1.351   1.351   1.468   1.468   1.617   1.788   1.788   2.436
  2.437   2.437   2.626   4.582   4.582   4.638   4.638   4.748
  4.901   4.901   4.957   4.957   5.057   5.057   5.259   5.259
  5.292   5.463   5.918   5.918   6.694   6.694   6.700   6.870
  6.871   6.966   6.966   7.082   7.082   7.466   7.466   8.176
  8.209  43.566  43.618  43.648  43.700  43.749  43.749  43.775
 43.775  43.824  43.918  45.592  45.592  45.874  45.874  45.910
 46.959  50.071  50.619
 
 Beta MOs
 -- Occupied --
-19.062 -19.061  -1.527  -0.932  -0.706  -0.654  -0.654
 -- Virtual --
  0.022   0.022   0.158   0.161   0.197   0.197   0.258   0.282
  0.282   0.408   0.504   1.040   1.066   1.097   1.097   1.185
  1.185   1.324   1.392   1.392   1.518   1.518   1.651   1.859
  1.859   2.473   2.474   2.474   2.651   4.632   4.632   4.681
  4.681   4.785   4.974   4.974   5.021   5.021   5.116   5.116
  5.328   5.328   5.332   5.507   5.971   5.971   6.746   6.800
  6.800   6.975   6.975   7.034   7.034   7.148   7.148   7.507
  7.507   8.214   8.253  43.648  43.700  43.731  43.783  43.805
 43.805  43.830  43.830  43.872  43.965  45.635  45.635  45.917
 45.917  45.932  46.984  50.108  50.656
 --------------------------------------------------------------
 
          Ground-State Mulliken Net Atomic Charges

     Atom                 Charge (a.u.)    Spin (a.u.)
  --------------------------------------------------------
      1 O                     0.000000       1.000000
      2 O                     0.000000       1.000000
  --------------------------------------------------------
  Sum of atomic charges =     0.000000
  Sum of spin   charges =     2.000000

 -----------------------------------------------------------------
                    Cartesian Multipole Moments
 -----------------------------------------------------------------
    Charge (ESU x 10^10)
                 0.0000
    Dipole Moment (Debye)
         X       0.0000      Y       0.0000      Z       0.0000
       Tot       0.0000
    Quadrupole Moments (Debye-Ang)
        XX     -10.0671     XY       0.0000     YY     -10.0671
        XZ       0.0000     YZ       0.0000     ZZ     -10.7389
    Octapole Moments (Debye-Ang^2)
       XXX       0.0000    XXY       0.0000    XYY       0.0000
       YYY       0.0000    XXZ      -6.1134    XYZ       0.0000
       YYZ      -6.1134    XZZ       0.0000    YZZ       0.0000
       ZZZ     -19.5642
    Hexadecapole Moments (Debye-Ang^3)
      XXXX      -7.3270   XXXY       0.0000   XXYY      -2.4423
      XYYY       0.0000   YYYY      -7.3270   XXXZ       0.0000
      XXYZ       0.0000   XYYZ       0.0000   YYYZ       0.0000
      XXZZ      -9.8584   XYZZ       0.0000   YYZZ      -9.8584
      XZZZ       0.0000   YZZZ       0.0000   ZZZZ     -51.8464
 -----------------------------------------------------------------
 Total job time:  77.21s(wall), 74.08s(cpu) 
 Thu Apr 21 21:05:18 2011

        *************************************************************
        *                                                           *
        *  Thank you very much for using Q-Chem.  Have a nice day.  *
        *                                                           *
        *************************************************************


0 sent ACK to 0 
now end server 0 ... 
 
**********************************************************************
Job 2 of 2 
**********************************************************************
 
Process 0 of 1 is on cl247.stfx.acenet.ca - thread support 1
initial socket setup ...start
initial socket setup ...done 
now start server 0 ... 

cmd = /usr/bin/ssh clhead /usr/local/qchem/bin/get_hostid 2041643501 > /scratch/tmp/4506581.1.long.q/qchem18098/lic.dat
                  Welcome to Q-Chem
     A Quantum Leap Into The Future Of Chemistry

 Y. Shao, L. Fusti-Molnar, Y. Jung, J. Kussmann, C. Ochsenfeld,
 S. T. Brown, A. T. B. Gilbert, L. V. Slipchenko,S. V. Levchenko,
 D. P. O'Neill, R. A. DiStasio Jr., R. C. Lochan, T. Wang,
 G. J. O. Beran, N. A. Besley, J. M. Herbert, C. Y. Lin,
 T. Van Voorhis, S. H. Chien, A. Sodt, R. P. Steele, 
 V. A. Rassolov, P. E. Maslen, P. P. Korambath, R. D. Adamson,
 B. Austin, J. Baker, E. F. C. Byrd, H. Dachsel, R. J. Doerksen,
 A. Dreuw, B. D. Dunietz, A. D. Dutoi, T. R. Furlani,
 S. R. Gwaltney, A. Heyden, S. Hirata, C.-P. Hsu, G. Kedziora,
 R. Z. Khaliullin, P. Klunzinger, A. M. Lee, M. S. Lee, W. Liang,
 I. Lotan, N. Nair, B. Peters, E. I. Proynov, P. A. Pieniazek, 
 Y. M. Rhee, J. Ritchie, E. Rosta, C. D. Sherrill, 
 A. C. Simmonett, J. E. Subotnik, H. L. Woodcock III,
 W. Zhang, A. T. Bell, A. K. Chakraborty, D. M. Chipman,
 F. J. Keil, A. Warshel, W. J. Hehre, H. F. Schaefer III,
 J. Kong, A. I. Krylov, P. M. W. Gill, M. Head-Gordon,
 Q-Chem, Version 3.1, Q-Chem, Inc., Pittsburgh, PA (2007).

 Additional authors for Version 3.1: 
 Z. Gan, Y. Zhao, N. E. Schultz, D. Truhlar, E. Epifanovsky and M. Oana.

 Additional authors for Version 3.2: 
 R. Baer, B. R. Brooks, D. Casanova, J.-D. Chai, C.-L. Cheng, 
 C. Cramer, D. Crittenden, A. Ghysels, G. Hawkins, E. G. Hohenstein, 
 C. Kelley, W. Kurlancheek, D. Liotard, E. Livshits, P. Manohar, 
 A. Marenich, D. Neuhauser, R. Olson, M. A. Rohrdanz, K. S. Thanthiriwatte, 
 A. J. W. Thom, V. Vanovschi, C. F. Williams, Q. Wu and Z.-Q. You. 


 Intel X86 Linux Version

 Q-chem begins on Thu Apr 21 21:05:20 2011  

 Parallel job on  1  processors
Processing $rem in /usr/local/qchem/config/preferences.

theFileMan(): MAXOPENFILES=974 MAX_SUB_FILE_NUM=16
Maximum size of a physical file is 2.0 GB, maximum size of a tmp-file is 32.0 GB


--------------------------------------------------------------
User input:
--------------------------------------------------------------

$molecule 
READ 
$end 

$xc_functional
   X HF 1.0
   X BNL 1.0
   C LYP 1.0
$end

$rem
SYMMETRY_DECOMPOSITION	0
exchange 		general
BASIS                   g3large
omega			660 
JOBTYPE                 freq
IDERIV 1
SCF_GUESS READ
separate_jk		true
mem_static              760
max_scf_cycles          200
scf_final_print         1
sym_ignore              true
$end

--------------------------------------------------------------
 Writing REM_CC_EA            2
 ----------------------------------------------------
       Standard Nuclear Orientation (Angstroms)
    I     Atom         X            Y            Z
 ----------------------------------------------------
    1      O       0.000000     0.000000     0.025142
    2      O       0.000000     0.000000     1.189392
 ----------------------------------------------------
 Nuclear Repulsion Energy =    29.0894132201 hartrees
 There are        9 alpha and        7 beta electrons
 Requested basis set is G3large
 There are 20 shells and 84 basis functions

Total QAlloc Memory Limit   2000 MB
Mega-Array Size       759 MB
MEM_STATIC part       760 MB

                       Distance Matrix (Angstroms)
             O (  1)
   O (  2)  1.164250
 
 A cutoff of  1.0D-11 yielded    206 shell pairs
 There are   3662 function pairs (  4809 Cartesian)
Evaluating contribution to one-electron hamiltonian from nuclear
 Smallest overlap matrix eigenvalue = 5.71E-04
 Multipole matrices computed through 2nd order
 Guess MOs from SCF MO coefficient file
Reading MOs from coefficient file
Reading MOs from coefficient file
 An unrestricted hybrid HF-DFT SCF calculation will be
 performed using Pulay DIIS extrapolation
 Exchange:     1.0000 Hartree-Fock + 1.0000 BNL
 Correlation:  1.0000 LYP
 Using SG-1 standard quadrature grid
 SCF converges when DIIS error is below 1.0E-08
 ---------------------------------------
  Cycle       Energy         DIIS Error
 ---------------------------------------
    1    -149.1876754776      6.44E-10
    2    -149.1876754775      2.48E-10 Convergence criterion met
 ---------------------------------------
 One-Electron    Energy =  -263.6295966464
 Total Coulomb   Energy =   101.1880572559
 Alpha Exchange  Energy =    -2.8199135858
 Beta  Exchange  Energy =    -2.1255519468
 DFT   Exchange  Energy =   -10.3166637327
 DFT Correlation Energy =    -0.5734200418
 Nuclear Repu.   Energy =    29.0894132201
 Nuclear Attr.   Energy =  -412.4090886593
 Kinetic         Energy =   148.7794920129
 <S^2> = 2.0104
 SCF time:  CPU 2.15 s  wall 2.25 s
 Final Alpha MO Eigenvalues
            1           2           3           4           5           6
    1 -19.0942902 -19.0942058  -1.5840864  -1.0426517  -0.7950898  -0.7950898
            7           8           9          10          11          12
    1  -0.7547898  -0.4886754  -0.4886754   0.1551578   0.1578363   0.1911240
           13          14
    1   0.1911240   0.2582055
 Final Beta MO Eigenvalues
            1           2           3           4           5           6
    1 -19.0617609 -19.0610809  -1.5271852  -0.9320185  -0.7061872  -0.6543827
            7           8           9          10          11          12
    1  -0.6543827   0.0219124   0.0219124   0.1582889   0.1607487   0.1969363
 Analysis of SCF Wavefunction
 
 --------------------------------------------------------------
                    Orbital Energies (a.u.)
 --------------------------------------------------------------
 
 Alpha MOs
 -- Occupied --
-19.094 -19.094  -1.584  -1.043  -0.795  -0.795  -0.755  -0.489
 -0.489
 -- Virtual --
  0.155   0.158   0.191   0.191   0.258   0.266   0.266   0.405
  0.453   1.023   1.055   1.060   1.060   1.140   1.140   1.298
  1.351   1.351   1.468   1.468   1.617   1.788   1.788   2.436
  2.437   2.437   2.626   4.582   4.582   4.638   4.638   4.748
  4.901   4.901   4.957   4.957   5.057   5.057   5.259   5.259
  5.292   5.463   5.918   5.918   6.694   6.694   6.700   6.870
  6.871   6.966   6.966   7.082   7.082   7.466   7.466   8.176
  8.209  43.566  43.618  43.648  43.700  43.749  43.749  43.775
 43.775  43.824  43.918  45.592  45.592  45.874  45.874  45.910
 46.959  50.071  50.619
 
 Beta MOs
 -- Occupied --
-19.062 -19.061  -1.527  -0.932  -0.706  -0.654  -0.654
 -- Virtual --
  0.022   0.022   0.158   0.161   0.197   0.197   0.258   0.282
  0.282   0.408   0.504   1.040   1.066   1.097   1.097   1.185
  1.185   1.324   1.392   1.392   1.518   1.518   1.651   1.859
  1.859   2.473   2.474   2.474   2.651   4.632   4.632   4.681
  4.681   4.785   4.974   4.974   5.021   5.021   5.116   5.116
  5.328   5.328   5.332   5.507   5.971   5.971   6.746   6.800
  6.800   6.975   6.975   7.034   7.034   7.148   7.148   7.507
  7.507   8.214   8.253  43.648  43.700  43.731  43.783  43.805
 43.805  43.830  43.830  43.872  43.965  45.635  45.635  45.917
 45.917  45.932  46.984  50.108  50.656
 --------------------------------------------------------------
 
          Ground-State Mulliken Net Atomic Charges

     Atom                 Charge (a.u.)    Spin (a.u.)
  --------------------------------------------------------
      1 O                     0.000000       1.000000
      2 O                     0.000000       1.000000
  --------------------------------------------------------
  Sum of atomic charges =     0.000000
  Sum of spin   charges =     2.000000

 -----------------------------------------------------------------
                    Cartesian Multipole Moments
 -----------------------------------------------------------------
    Charge (ESU x 10^10)
                 0.0000
    Dipole Moment (Debye)
         X       0.0000      Y       0.0000      Z       0.0000
       Tot       0.0000
    Quadrupole Moments (Debye-Ang)
        XX     -10.0671     XY       0.0000     YY     -10.0671
        XZ       0.0000     YZ       0.0000     ZZ     -10.7389
    Octapole Moments (Debye-Ang^2)
       XXX       0.0000    XXY       0.0000    XYY       0.0000
       YYY       0.0000    XXZ      -6.1134    XYZ       0.0000
       YYZ      -6.1134    XZZ       0.0000    YZZ       0.0000
       ZZZ     -19.5642
    Hexadecapole Moments (Debye-Ang^3)
      XXXX      -7.3270   XXXY       0.0000   XXYY      -2.4423
      XYYY       0.0000   YYYY      -7.3270   XXXZ       0.0000
      XXYZ       0.0000   XYYZ       0.0000   YYYZ       0.0000
      XXZZ      -9.8584   XYZZ       0.0000   YYZZ      -9.8584
      XZZZ       0.0000   YZZZ       0.0000   ZZZZ     -51.8464
 -----------------------------------------------------------------
 Calculating analytic gradient of the SCF energy
 Gradient of AOints
            1           2
    1   0.0000000  -0.0000000
    2   0.0000000  -0.0000000
    3  14.0269546 -14.0269546
 Gradient of XC Energy
            1           2
    1   0.0000000  -0.0000000
    2  -0.0000000   0.0000000
    3  -0.4119422   0.4119422
 Gradient of SCF Energy
            1           2
    1   0.0000000  -0.0000000
    2  -0.0000000   0.0000000
    3   0.0000528  -0.0000528
 Max gradient component =       5.277E-05
 RMS gradient           =       3.047E-05
 Gradient time:  CPU 4.24 s  wall 4.34 s
 ######################################################
 ######################################################
 # Starting finite difference calculation for IDERIV  #
 Finite diff step size: 1.89e-03 a.u.
 Writing REM_CC_EA            2
 ----------------------------------------------------
       Standard Nuclear Orientation (Angstroms)
    I     Atom         X            Y            Z
 ----------------------------------------------------
    1      O       0.001000     0.000000     0.025142
    2      O       0.000000     0.000000     1.189392
 ----------------------------------------------------
 Nuclear Repulsion Energy =    29.0894024898 hartrees
 There are        9 alpha and        7 beta electrons

                       Distance Matrix (Angstroms)
             O (  1)
   O (  2)  1.164250
 
 Requested basis set is G3large
 There are 20 shells and 84 basis functions
 A cutoff of  1.0D-11 yielded    206 shell pairs
 There are   3662 function pairs (  4809 Cartesian)
Evaluating contribution to one-electron hamiltonian from nuclear
 Smallest overlap matrix eigenvalue = 5.71E-04
 Multipole matrices computed through 2nd order
 Guess MOs from SCF MO coefficient file
Reading MOs from coefficient file
Reading MOs from coefficient file
 An unrestricted hybrid HF-DFT SCF calculation will be
 performed using Pulay DIIS extrapolation
 Exchange:     1.0000 Hartree-Fock + 1.0000 BNL
 Correlation:  1.0000 LYP
 Using SG-1 standard quadrature grid
 SCF converges when DIIS error is below 1.0E-08
 ---------------------------------------
  Cycle       Energy         DIIS Error
 ---------------------------------------
    1    -149.1876745644      5.36E-05
    2    -149.1876753833      5.41E-06
    3    -149.1876754583      1.99E-06
    4    -149.1876754746      4.89E-07
    5    -149.1876754771      2.67E-07
    6    -149.1876754776      5.18E-08
    7    -149.1876754779      1.00E-08
    8    -149.1876754777      5.55E-09 Convergence criterion met
 ---------------------------------------
 One-Electron    Energy =  -263.6295763395
 Total Coulomb   Energy =   101.1880471857
 Alpha Exchange  Energy =    -2.8199135448
 Beta  Exchange  Energy =    -2.1255518555
 DFT   Exchange  Energy =   -10.3166633915
 DFT Correlation Energy =    -0.5734200219
 Nuclear Repu.   Energy =    29.0894024898
 Nuclear Attr.   Energy =  -412.4090666990
 Kinetic         Energy =   148.7794903596
 <S^2> = 2.0104
 SCF time:  CPU 8.69 s  wall 9.16 s
 Final Alpha MO Eigenvalues
            1           2           3           4           5           6
    1 -19.0942903 -19.0942060  -1.5840860  -1.0426519  -0.7950896  -0.7950896
            7           8           9          10          11          12
    1  -0.7547897  -0.4886756  -0.4886756   0.1551577   0.1578363   0.1911240
           13          14
    1   0.1911240   0.2582055
 Final Beta MO Eigenvalues
            1           2           3           4           5           6
    1 -19.0617611 -19.0610810  -1.5271848  -0.9320186  -0.7061872  -0.6543826
            7           8           9          10          11          12
    1  -0.6543826   0.0219122   0.0219122   0.1582889   0.1607487   0.1969363
 Analysis of SCF Wavefunction
 
 --------------------------------------------------------------
                    Orbital Energies (a.u.)
 --------------------------------------------------------------
 
 Alpha MOs
 -- Occupied --
-19.094 -19.094  -1.584  -1.043  -0.795  -0.795  -0.755  -0.489
 -0.489
 -- Virtual --
  0.155   0.158   0.191   0.191   0.258   0.266   0.266   0.405
  0.453   1.023   1.055   1.060   1.060   1.140   1.140   1.298
  1.351   1.351   1.468   1.468   1.617   1.788   1.788   2.436
  2.437   2.437   2.626   4.582   4.582   4.638   4.638   4.748
  4.901   4.901   4.957   4.957   5.057   5.057   5.259   5.259
  5.292   5.463   5.918   5.918   6.694   6.694   6.700   6.870
  6.871   6.966   6.966   7.082   7.082   7.466   7.466   8.176
  8.209  43.566  43.618  43.648  43.700  43.749  43.749  43.775
 43.775  43.824  43.918  45.592  45.592  45.874  45.874  45.910
 46.959  50.071  50.619
 
 Beta MOs
 -- Occupied --
-19.062 -19.061  -1.527  -0.932  -0.706  -0.654  -0.654
 -- Virtual --
  0.022   0.022   0.158   0.161   0.197   0.197   0.258   0.282
  0.282   0.408   0.504   1.040   1.066   1.097   1.097   1.185
  1.185   1.324   1.392   1.392   1.518   1.518   1.651   1.859
  1.859   2.473   2.474   2.474   2.651   4.632   4.632   4.681
  4.681   4.785   4.974   4.974   5.021   5.021   5.116   5.116
  5.328   5.328   5.332   5.507   5.971   5.971   6.746   6.800
  6.800   6.975   6.975   7.034   7.034   7.148   7.148   7.507
  7.507   8.214   8.253  43.648  43.700  43.731  43.783  43.805
 43.805  43.830  43.830  43.872  43.965  45.635  45.635  45.917
 45.917  45.932  46.984  50.108  50.656
 --------------------------------------------------------------
 
          Ground-State Mulliken Net Atomic Charges

     Atom                 Charge (a.u.)    Spin (a.u.)
  --------------------------------------------------------
      1 O                     0.000000       1.000000
      2 O                     0.000000       1.000000
  --------------------------------------------------------
  Sum of atomic charges =     0.000000
  Sum of spin   charges =     2.000000

 -----------------------------------------------------------------
                    Cartesian Multipole Moments
 -----------------------------------------------------------------
    Charge (ESU x 10^10)
                 0.0000
    Dipole Moment (Debye)
         X       0.0000      Y       0.0000      Z       0.0000
       Tot       0.0000
    Quadrupole Moments (Debye-Ang)
        XX     -10.0671     XY       0.0000     YY     -10.0671
        XZ       0.0006     YZ       0.0000     ZZ     -10.7389
    Octapole Moments (Debye-Ang^2)
       XXX      -0.0151    XXY       0.0000    XYY      -0.0050
       YYY       0.0000    XXZ      -6.1134    XYZ       0.0000
       YYZ      -6.1134    XZZ      -0.0047    YZZ       0.0000
       ZZZ     -19.5642
    Hexadecapole Moments (Debye-Ang^3)
      XXXX      -7.3271   XXXY       0.0000   XXYY      -2.4423
      XYYY       0.0000   YYYY      -7.3270   XXXZ       0.0004
      XXYZ       0.0000   XYYZ       0.0001   YYYZ       0.0000
      XXZZ      -9.8584   XYZZ       0.0000   YYZZ      -9.8584
      XZZZ      -0.0009   YZZZ       0.0000   ZZZZ     -51.8464
 -----------------------------------------------------------------
 Calculating analytic gradient of the SCF energy
 Gradient of AOints
            1           2
    1  -0.0120657   0.0120657
    2   0.0000000  -0.0000000
    3  14.0269461 -14.0269461
 Gradient of XC Energy
            1           2
    1   0.0003550  -0.0003550
    2  -0.0000000   0.0000000
    3  -0.4119419   0.4119419
 Gradient of SCF Energy
            1           2
    1   0.0000007  -0.0000007
    2  -0.0000000   0.0000000
    3   0.0000519  -0.0000519
 Max gradient component =       5.187E-05
 RMS gradient           =       2.995E-05
 Gradient time:  CPU 4.93 s  wall 5.02 s
 Writing REM_CC_EA            2
 ----------------------------------------------------
       Standard Nuclear Orientation (Angstroms)
    I     Atom         X            Y            Z
 ----------------------------------------------------
    1      O      -0.001000     0.000000     0.025142
    2      O       0.000000     0.000000     1.189392
 ----------------------------------------------------
 Nuclear Repulsion Energy =    29.0894024898 hartrees
 There are        9 alpha and        7 beta electrons

                       Distance Matrix (Angstroms)
             O (  1)
   O (  2)  1.164250
 
 Requested basis set is G3large
 There are 20 shells and 84 basis functions
 A cutoff of  1.0D-11 yielded    206 shell pairs
 There are   3662 function pairs (  4809 Cartesian)
Evaluating contribution to one-electron hamiltonian from nuclear
 Smallest overlap matrix eigenvalue = 5.71E-04
 Multipole matrices computed through 2nd order
 Guess MOs from SCF MO coefficient file
Reading MOs from coefficient file
Reading MOs from coefficient file
 An unrestricted hybrid HF-DFT SCF calculation will be
 performed using Pulay DIIS extrapolation
 Exchange:     1.0000 Hartree-Fock + 1.0000 BNL
 Correlation:  1.0000 LYP
 Using SG-1 standard quadrature grid
 SCF converges when DIIS error is below 1.0E-08
 ---------------------------------------
  Cycle       Energy         DIIS Error
 ---------------------------------------
    1    -149.1876729876      1.07E-04
    2    -149.1876750998      1.08E-05
    3    -149.1876753990      3.97E-06
    4    -149.1876754646      9.79E-07
    5    -149.1876754737      5.34E-07
    6    -149.1876754764      1.10E-07
    7    -149.1876754771      5.33E-08
    8    -149.1876754768      1.56E-08
    9    -149.1876754766      3.75E-09 Convergence criterion met
 ---------------------------------------
 One-Electron    Energy =  -263.6295766024
 Total Coulomb   Energy =   101.1880474835
 Alpha Exchange  Energy =    -2.8199135484
 Beta  Exchange  Energy =    -2.1255518578
 DFT   Exchange  Energy =   -10.3166634187
 DFT Correlation Energy =    -0.5734200226
 Nuclear Repu.   Energy =    29.0894024898
 Nuclear Attr.   Energy =  -412.4090672761
 Kinetic         Energy =   148.7794906737
 <S^2> = 2.0104
 SCF time:  CPU 9.97 s  wall 10.43 s
 Final Alpha MO Eigenvalues
            1           2           3           4           5           6
    1 -19.0942903 -19.0942059  -1.5840860  -1.0426518  -0.7950896  -0.7950896
            7           8           9          10          11          12
    1  -0.7547897  -0.4886756  -0.4886756   0.1551577   0.1578363   0.1911240
           13          14
    1   0.1911240   0.2582055
 Final Beta MO Eigenvalues
            1           2           3           4           5           6
    1 -19.0617610 -19.0610810  -1.5271848  -0.9320186  -0.7061871  -0.6543825
            7           8           9          10          11          12
    1  -0.6543825   0.0219122   0.0219122   0.1582889   0.1607487   0.1969363
 Analysis of SCF Wavefunction
 
 --------------------------------------------------------------
                    Orbital Energies (a.u.)
 --------------------------------------------------------------
 
 Alpha MOs
 -- Occupied --
-19.094 -19.094  -1.584  -1.043  -0.795  -0.795  -0.755  -0.489
 -0.489
 -- Virtual --
  0.155   0.158   0.191   0.191   0.258   0.266   0.266   0.405
  0.453   1.023   1.055   1.060   1.060   1.140   1.140   1.298
  1.351   1.351   1.468   1.468   1.617   1.788   1.788   2.436
  2.437   2.437   2.626   4.582   4.582   4.638   4.638   4.748
  4.901   4.901   4.957   4.957   5.057   5.057   5.259   5.259
  5.292   5.463   5.918   5.918   6.694   6.694   6.700   6.870
  6.871   6.966   6.966   7.082   7.082   7.466   7.466   8.176
  8.209  43.566  43.618  43.648  43.700  43.749  43.749  43.775
 43.775  43.824  43.918  45.592  45.592  45.874  45.874  45.910
 46.959  50.071  50.619
 
 Beta MOs
 -- Occupied --
-19.062 -19.061  -1.527  -0.932  -0.706  -0.654  -0.654
 -- Virtual --
  0.022   0.022   0.158   0.161   0.197   0.197   0.258   0.282
  0.282   0.408   0.504   1.040   1.066   1.097   1.097   1.185
  1.185   1.324   1.392   1.392   1.518   1.518   1.651   1.859
  1.859   2.473   2.474   2.474   2.651   4.632   4.632   4.681
  4.681   4.785   4.974   4.974   5.021   5.021   5.116   5.116
  5.328   5.328   5.332   5.507   5.971   5.971   6.746   6.800
  6.800   6.975   6.975   7.034   7.034   7.148   7.148   7.507
  7.507   8.214   8.253  43.648  43.700  43.731  43.783  43.805
 43.805  43.830  43.830  43.872  43.965  45.635  45.635  45.917
 45.917  45.932  46.984  50.108  50.656
 --------------------------------------------------------------
 
          Ground-State Mulliken Net Atomic Charges

     Atom                 Charge (a.u.)    Spin (a.u.)
  --------------------------------------------------------
      1 O                     0.000000       1.000000
      2 O                     0.000000       1.000000
  --------------------------------------------------------
  Sum of atomic charges =     0.000000
  Sum of spin   charges =     2.000000

 -----------------------------------------------------------------
                    Cartesian Multipole Moments
 -----------------------------------------------------------------
    Charge (ESU x 10^10)
                 0.0000
    Dipole Moment (Debye)
         X       0.0000      Y       0.0000      Z       0.0000
       Tot       0.0000
    Quadrupole Moments (Debye-Ang)
        XX     -10.0671     XY       0.0000     YY     -10.0671
        XZ      -0.0006     YZ       0.0000     ZZ     -10.7389
    Octapole Moments (Debye-Ang^2)
       XXX       0.0151    XXY       0.0000    XYY       0.0050
       YYY       0.0000    XXZ      -6.1134    XYZ       0.0000
       YYZ      -6.1134    XZZ       0.0047    YZZ       0.0000
       ZZZ     -19.5642
    Hexadecapole Moments (Debye-Ang^3)
      XXXX      -7.3271   XXXY       0.0000   XXYY      -2.4423
      XYYY       0.0000   YYYY      -7.3270   XXXZ      -0.0004
      XXYZ       0.0000   XYYZ      -0.0001   YYYZ       0.0000
      XXZZ      -9.8584   XYZZ       0.0000   YYZZ      -9.8584
      XZZZ       0.0009   YZZZ       0.0000   ZZZZ     -51.8464
 -----------------------------------------------------------------
 Calculating analytic gradient of the SCF energy
 Gradient of AOints
            1           2
    1   0.0120661  -0.0120661
    2  -0.0000000   0.0000000
    3  14.0269460 -14.0269460
 Gradient of XC Energy
            1           2
    1  -0.0003550   0.0003550
    2   0.0000000  -0.0000000
    3  -0.4119419   0.4119419
 Gradient of SCF Energy
            1           2
    1  -0.0000007   0.0000007
    2   0.0000000  -0.0000000
    3   0.0000519  -0.0000519
 Max gradient component =       5.187E-05
 RMS gradient           =       2.995E-05
 Gradient time:  CPU 4.92 s  wall 4.98 s
 Writing REM_CC_EA            2
 ----------------------------------------------------
       Standard Nuclear Orientation (Angstroms)
    I     Atom         X            Y            Z
 ----------------------------------------------------
    1      O       0.000000     0.001000     0.025142
    2      O       0.000000     0.000000     1.189392
 ----------------------------------------------------
 Nuclear Repulsion Energy =    29.0894024898 hartrees
 There are        9 alpha and        7 beta electrons

                       Distance Matrix (Angstroms)
             O (  1)
   O (  2)  1.164250
 
 Requested basis set is G3large
 There are 20 shells and 84 basis functions
 A cutoff of  1.0D-11 yielded    206 shell pairs
 There are   3662 function pairs (  4809 Cartesian)
Evaluating contribution to one-electron hamiltonian from nuclear
 Smallest overlap matrix eigenvalue = 5.71E-04
 Multipole matrices computed through 2nd order
 Guess MOs from SCF MO coefficient file
Reading MOs from coefficient file
Reading MOs from coefficient file
 An unrestricted hybrid HF-DFT SCF calculation will be
 performed using Pulay DIIS extrapolation
 Exchange:     1.0000 Hartree-Fock + 1.0000 BNL
 Correlation:  1.0000 LYP
 Using SG-1 standard quadrature grid
 SCF converges when DIIS error is below 1.0E-08
 ---------------------------------------
  Cycle       Energy         DIIS Error
 ---------------------------------------
    1    -149.1876742323      7.58E-05
    2    -149.1876752884      7.65E-06
    3    -149.1876754380      2.81E-06
    4    -149.1876754704      6.92E-07
    5    -149.1876754753      3.77E-07
    6    -149.1876754764      7.36E-08
    7    -149.1876754770      1.26E-08
    8    -149.1876754767      3.67E-09 Convergence criterion met
 ---------------------------------------
 One-Electron    Energy =  -263.6295766027
 Total Coulomb   Energy =   101.1880474838
 Alpha Exchange  Energy =    -2.8199135483
 Beta  Exchange  Energy =    -2.1255518578
 DFT   Exchange  Energy =   -10.3166634190
 DFT Correlation Energy =    -0.5734200226
 Nuclear Repu.   Energy =    29.0894024898
 Nuclear Attr.   Energy =  -412.4090672785
 Kinetic         Energy =   148.7794906758
 <S^2> = 2.0104
 SCF time:  CPU 8.93 s  wall 9.41 s
 Final Alpha MO Eigenvalues
            1           2           3           4           5           6
    1 -19.0942903 -19.0942059  -1.5840860  -1.0426518  -0.7950896  -0.7950896
            7           8           9          10          11          12
    1  -0.7547897  -0.4886756  -0.4886756   0.1551577   0.1578363   0.1911240
           13          14
    1   0.1911240   0.2582055
 Final Beta MO Eigenvalues
            1           2           3           4           5           6
    1 -19.0617610 -19.0610810  -1.5271848  -0.9320186  -0.7061871  -0.6543825
            7           8           9          10          11          12
    1  -0.6543825   0.0219122   0.0219122   0.1582889   0.1607487   0.1969363
 Analysis of SCF Wavefunction
 
 --------------------------------------------------------------
                    Orbital Energies (a.u.)
 --------------------------------------------------------------
 
 Alpha MOs
 -- Occupied --
-19.094 -19.094  -1.584  -1.043  -0.795  -0.795  -0.755  -0.489
 -0.489
 -- Virtual --
  0.155   0.158   0.191   0.191   0.258   0.266   0.266   0.405
  0.453   1.023   1.055   1.060   1.060   1.140   1.140   1.298
  1.351   1.351   1.468   1.468   1.617   1.788   1.788   2.436
  2.437   2.437   2.626   4.582   4.582   4.638   4.638   4.748
  4.901   4.901   4.957   4.957   5.057   5.057   5.259   5.259
  5.292   5.463   5.918   5.918   6.694   6.694   6.700   6.870
  6.871   6.966   6.966   7.082   7.082   7.466   7.466   8.176
  8.209  43.566  43.618  43.648  43.700  43.749  43.749  43.775
 43.775  43.824  43.918  45.592  45.592  45.874  45.874  45.910
 46.959  50.071  50.619
 
 Beta MOs
 -- Occupied --
-19.062 -19.061  -1.527  -0.932  -0.706  -0.654  -0.654
 -- Virtual --
  0.022   0.022   0.158   0.161   0.197   0.197   0.258   0.282
  0.282   0.408   0.504   1.040   1.066   1.097   1.097   1.185
  1.185   1.324   1.392   1.392   1.518   1.518   1.651   1.859
  1.859   2.473   2.474   2.474   2.651   4.632   4.632   4.681
  4.681   4.785   4.974   4.974   5.021   5.021   5.116   5.116
  5.328   5.328   5.332   5.507   5.971   5.971   6.746   6.800
  6.800   6.975   6.975   7.034   7.034   7.148   7.148   7.507
  7.507   8.214   8.253  43.648  43.700  43.731  43.783  43.805
 43.805  43.830  43.830  43.872  43.965  45.635  45.635  45.917
 45.917  45.932  46.984  50.108  50.656
 --------------------------------------------------------------
 
          Ground-State Mulliken Net Atomic Charges

     Atom                 Charge (a.u.)    Spin (a.u.)
  --------------------------------------------------------
      1 O                     0.000000       1.000000
      2 O                     0.000000       1.000000
  --------------------------------------------------------
  Sum of atomic charges =     0.000000
  Sum of spin   charges =     2.000000

 -----------------------------------------------------------------
                    Cartesian Multipole Moments
 -----------------------------------------------------------------
    Charge (ESU x 10^10)
                 0.0000
    Dipole Moment (Debye)
         X       0.0000      Y       0.0000      Z       0.0000
       Tot       0.0000
    Quadrupole Moments (Debye-Ang)
        XX     -10.0671     XY       0.0000     YY     -10.0671
        XZ       0.0000     YZ       0.0006     ZZ     -10.7389
    Octapole Moments (Debye-Ang^2)
       XXX       0.0000    XXY      -0.0050    XYY       0.0000
       YYY      -0.0151    XXZ      -6.1134    XYZ       0.0000
       YYZ      -6.1134    XZZ       0.0000    YZZ      -0.0047
       ZZZ     -19.5642
    Hexadecapole Moments (Debye-Ang^3)
      XXXX      -7.3270   XXXY       0.0000   XXYY      -2.4423
      XYYY       0.0000   YYYY      -7.3271   XXXZ       0.0000
      XXYZ       0.0001   XYYZ       0.0000   YYYZ       0.0004
      XXZZ      -9.8584   XYZZ       0.0000   YYZZ      -9.8584
      XZZZ       0.0000   YZZZ      -0.0009   ZZZZ     -51.8464
 -----------------------------------------------------------------
 Calculating analytic gradient of the SCF energy
 Gradient of AOints
            1           2
    1   0.0000001  -0.0000001
    2  -0.0120661   0.0120661
    3  14.0269461 -14.0269461
 Gradient of XC Energy
            1           2
    1  -0.0000000   0.0000000
    2   0.0003550  -0.0003550
    3  -0.4119419   0.4119419
 Gradient of SCF Energy
            1           2
    1  -0.0000000   0.0000000
    2   0.0000007  -0.0000007
    3   0.0000519  -0.0000519
 Max gradient component =       5.187E-05
 RMS gradient           =       2.995E-05
 Gradient time:  CPU 4.65 s  wall 4.73 s
 Writing REM_CC_EA            2
 ----------------------------------------------------
       Standard Nuclear Orientation (Angstroms)
    I     Atom         X            Y            Z
 ----------------------------------------------------
    1      O       0.000000    -0.001000     0.025142
    2      O       0.000000     0.000000     1.189392
 ----------------------------------------------------
 Nuclear Repulsion Energy =    29.0894024898 hartrees
 There are        9 alpha and        7 beta electrons

                       Distance Matrix (Angstroms)
             O (  1)
   O (  2)  1.164250
 
 Requested basis set is G3large
 There are 20 shells and 84 basis functions
 A cutoff of  1.0D-11 yielded    206 shell pairs
 There are   3662 function pairs (  4809 Cartesian)
Evaluating contribution to one-electron hamiltonian from nuclear
 Smallest overlap matrix eigenvalue = 5.71E-04
 Multipole matrices computed through 2nd order
 Guess MOs from SCF MO coefficient file
Reading MOs from coefficient file
Reading MOs from coefficient file
 An unrestricted hybrid HF-DFT SCF calculation will be
 performed using Pulay DIIS extrapolation
 Exchange:     1.0000 Hartree-Fock + 1.0000 BNL
 Correlation:  1.0000 LYP
 Using SG-1 standard quadrature grid
 SCF converges when DIIS error is below 1.0E-08
[...]
       ZZZ     -19.5642
    Hexadecapole Moments (Debye-Ang^3)
      XXXX      -7.3270   XXXY       0.0000   XXYY      -2.4423
      XYYY       0.0000   YYYY      -7.3271   XXXZ       0.0000
      XXYZ       0.0062   XYYZ       0.0000   YYYZ       0.0187
      XXZZ      -9.8584   XYZZ       0.0000   YYZZ      -9.8584
      XZZZ       0.0000   YZZZ       0.0187   ZZZZ     -51.8464
 -----------------------------------------------------------------
 Calculating analytic gradient of the SCF energy
 Gradient of AOints
            1           2
    1   0.0000000  -0.0000000
    2  -0.0120661   0.0120661
    3  14.0269461 -14.0269461
 Gradient of XC Energy
            1           2
    1  -0.0000000   0.0000000
    2   0.0003550  -0.0003550
    3  -0.4119419   0.4119419
 Gradient of SCF Energy
            1           2
    1   0.0000000  -0.0000000
    2   0.0000007  -0.0000007
    3   0.0000519  -0.0000519
 Max gradient component =       5.187E-05
 RMS gradient           =       2.995E-05
 Gradient time:  CPU 4.94 s  wall 5.05 s
 Writing REM_CC_EA            2
 ----------------------------------------------------
       Standard Nuclear Orientation (Angstroms)
    I     Atom         X            Y            Z
 ----------------------------------------------------
    1      O       0.000000     0.000000     0.025142
    2      O       0.000000     0.000000     1.190392
 ----------------------------------------------------
 Nuclear Repulsion Energy =    29.0644491180 hartrees
 There are        9 alpha and        7 beta electrons

                       Distance Matrix (Angstroms)
             O (  1)
   O (  2)  1.165250
 
 Requested basis set is G3large
 There are 20 shells and 84 basis functions
 A cutoff of  1.0D-11 yielded    206 shell pairs
 There are   3662 function pairs (  4809 Cartesian)
Evaluating contribution to one-electron hamiltonian from nuclear
 Smallest overlap matrix eigenvalue = 5.74E-04
 Multipole matrices computed through 2nd order
 Guess MOs from SCF MO coefficient file
Reading MOs from coefficient file
Reading MOs from coefficient file
 An unrestricted hybrid HF-DFT SCF calculation will be
 performed using Pulay DIIS extrapolation
 Exchange:     1.0000 Hartree-Fock + 1.0000 BNL
 Correlation:  1.0000 LYP
 Using SG-1 standard quadrature grid
 SCF converges when DIIS error is below 1.0E-08
 ---------------------------------------
  Cycle       Energy         DIIS Error
 ---------------------------------------
    1    -149.1870028773      1.22E-04
    2    -149.1876733741      1.65E-05
    3    -149.1876735902      5.03E-06
    4    -149.1876735855      1.30E-06
    5    -149.1876735928      5.43E-07
    6    -149.1876735896      2.24E-07
    7    -149.1876735907      6.37E-08
    8    -149.1876735903      6.66E-09 Convergence criterion met
 ---------------------------------------
 One-Electron    Energy =  -263.5819346696
 Total Coulomb   Energy =   101.1641681685
 Alpha Exchange  Energy =    -2.8198266966
 Beta  Exchange  Energy =    -2.1253242299
 DFT   Exchange  Energy =   -10.3158330717
 DFT Correlation Energy =    -0.5733722090
 Nuclear Repu.   Energy =    29.0644491180
 Nuclear Attr.   Energy =  -412.3570880086
 Kinetic         Energy =   148.7751533390
 <S^2> = 2.0104
 SCF time:  CPU 9.08 s  wall 9.50 s
 Final Alpha MO Eigenvalues
            1           2           3           4           5           6
    1 -19.0944419 -19.0943577  -1.5832643  -1.0429729  -0.7947128  -0.7947128
            7           8           9          10          11          12
    1  -0.7545821  -0.4890660  -0.4890660   0.1550765   0.1578181   0.1911463
           13          14
    1   0.1911463   0.2582032
 Final Beta MO Eigenvalues
            1           2           3           4           5           6
    1 -19.0619079 -19.0612291  -1.5263112  -0.9323294  -0.7060155  -0.6539111
            7           8           9          10          11          12
    1  -0.6539111   0.0215175   0.0215175   0.1582354   0.1607362   0.1969863
 Analysis of SCF Wavefunction
 
 --------------------------------------------------------------
                    Orbital Energies (a.u.)
 --------------------------------------------------------------
 
 Alpha MOs
 -- Occupied --
-19.094 -19.094  -1.583  -1.043  -0.795  -0.795  -0.755  -0.489
 -0.489
 -- Virtual --
  0.155   0.158   0.191   0.191   0.258   0.266   0.266   0.405
  0.452   1.023   1.055   1.060   1.060   1.140   1.140   1.298
  1.352   1.352   1.467   1.467   1.617   1.787   1.787   2.434
  2.436   2.436   2.626   4.581   4.581   4.638   4.638   4.749
  4.901   4.901   4.958   4.958   5.057   5.057   5.258   5.258
  5.288   5.460   5.915   5.915   6.694   6.694   6.704   6.870
  6.871   6.964   6.964   7.080   7.080   7.464   7.464   8.171
  8.207  43.566  43.617  43.648  43.700  43.749  43.749  43.775
 43.775  43.826  43.916  45.591  45.591  45.872  45.872  45.906
 46.963  50.070  50.613
 
 Beta MOs
 -- Occupied --
-19.062 -19.061  -1.526  -0.932  -0.706  -0.654  -0.654
 -- Virtual --
  0.022   0.022   0.158   0.161   0.197   0.197   0.258   0.282
  0.282   0.408   0.502   1.040   1.066   1.097   1.097   1.185
  1.185   1.324   1.392   1.392   1.517   1.517   1.651   1.859
  1.859   2.471   2.473   2.473   2.651   4.631   4.631   4.682
  4.682   4.786   4.974   4.974   5.022   5.022   5.115   5.115
  5.328   5.328   5.329   5.504   5.968   5.968   6.750   6.800
  6.800   6.975   6.975   7.032   7.032   7.146   7.146   7.505
  7.505   8.210   8.251  43.648  43.700  43.731  43.782  43.804
 43.804  43.830  43.830  43.873  43.962  45.635  45.635  45.916
 45.916  45.928  46.987  50.108  50.650
 --------------------------------------------------------------
 
          Ground-State Mulliken Net Atomic Charges

     Atom                 Charge (a.u.)    Spin (a.u.)
  --------------------------------------------------------
      1 O                     0.000000       1.000000
      2 O                     0.000000       1.000000
  --------------------------------------------------------
  Sum of atomic charges =     0.000000
  Sum of spin   charges =     2.000000

 -----------------------------------------------------------------
                    Cartesian Multipole Moments
 -----------------------------------------------------------------
    Charge (ESU x 10^10)
                 0.0000
    Dipole Moment (Debye)
         X       0.0000      Y       0.0000      Z       0.0000
       Tot       0.0000
    Quadrupole Moments (Debye-Ang)
        XX     -10.0691     XY       0.0000     YY     -10.0691
        XZ       0.0000     YZ       0.0000     ZZ     -10.7372
    Octapole Moments (Debye-Ang^2)
       XXX       0.0000    XXY       0.0000    XYY       0.0000
       YYY       0.0000    XXZ      -6.1197    XYZ       0.0000
       YYZ      -6.1197    XZZ       0.0000    YZZ       0.0000
       ZZZ     -19.5772
    Hexadecapole Moments (Debye-Ang^3)
      XXXX      -7.3299   XXXY       0.0000   XXYY      -2.4433
      XYYY       0.0000   YYYY      -7.3299   XXXZ       0.0000
      XXYZ       0.0000   XYYZ       0.0000   YYYZ       0.0000
      XXZZ      -9.8711   XYZZ       0.0000   YYZZ      -9.8711
      XZZZ       0.0000   YZZZ       0.0000   ZZZZ     -51.9127
 -----------------------------------------------------------------
 Calculating analytic gradient of the SCF energy
 Gradient of AOints
            1           2
    1  -0.0000000   0.0000000
    2  -0.0000006   0.0000006
    3  14.0192518 -14.0192518
 Gradient of XC Energy
            1           2
    1   0.0000000  -0.0000000
    2   0.0000000  -0.0000000
    3  -0.4114706   0.4114706
 Gradient of SCF Energy
            1           2
    1   0.0000000  -0.0000000
    2   0.0000000  -0.0000000
    3  -0.0020521   0.0020521
 Max gradient component =       2.052E-03
 RMS gradient           =       1.185E-03
 Gradient time:  CPU 4.30 s  wall 4.36 s
 Writing REM_CC_EA            2
 ----------------------------------------------------
       Standard Nuclear Orientation (Angstroms)
    I     Atom         X            Y            Z
 ----------------------------------------------------
    1      O       0.000000     0.000000     0.025142
    2      O       0.000000     0.000000     1.188392
 ----------------------------------------------------
 Nuclear Repulsion Energy =    29.1144202435 hartrees
 There are        9 alpha and        7 beta electrons

                       Distance Matrix (Angstroms)
             O (  1)
   O (  2)  1.163250
 
 Requested basis set is G3large
 There are 20 shells and 84 basis functions
 A cutoff of  1.0D-11 yielded    206 shell pairs
 There are   3662 function pairs (  4809 Cartesian)
Evaluating contribution to one-electron hamiltonian from nuclear
 Smallest overlap matrix eigenvalue = 5.68E-04
 Multipole matrices computed through 2nd order
 Guess MOs from SCF MO coefficient file
Reading MOs from coefficient file
Reading MOs from coefficient file
 An unrestricted hybrid HF-DFT SCF calculation will be
 performed using Pulay DIIS extrapolation
 Exchange:     1.0000 Hartree-Fock + 1.0000 BNL
 Correlation:  1.0000 LYP
 Using SG-1 standard quadrature grid
 SCF converges when DIIS error is below 1.0E-08
 ---------------------------------------
  Cycle       Energy         DIIS Error
 ---------------------------------------
    1    -149.1890331211      2.20E-04
    2    -149.1876728797      3.12E-05
    3    -149.1876732791      9.00E-06
    4    -149.1876733841      1.50E-06
    5    -149.1876733678      4.43E-07
    6    -149.1876733739      5.37E-08
    7    -149.1876733737      9.44E-09 Convergence criterion met
 ---------------------------------------
 One-Electron    Energy =  -263.6773310902
 Total Coulomb   Energy =   101.2119823476
 Alpha Exchange  Energy =    -2.8200005998
 Beta  Exchange  Energy =    -2.1257795831
 DFT   Exchange  Energy =   -10.3174967680
 DFT Correlation Energy =    -0.5734679237
 Nuclear Repu.   Energy =    29.1144202435
 Nuclear Attr.   Energy =  -412.4611813915
 Kinetic         Energy =   148.7838503013
 <S^2> = 2.0103
 SCF time:  CPU 7.68 s  wall 8.01 s
 Final Alpha MO Eigenvalues
            1           2           3           4           5           6
    1 -19.0941383 -19.0940538  -1.5849100  -1.0423305  -0.7954678  -0.7954678
            7           8           9          10          11          12
    1  -0.7549975  -0.4882840  -0.4882840   0.1552385   0.1578545   0.1911016
           13          14
    1   0.1911016   0.2582078
 Final Beta MO Eigenvalues
            1           2           3           4           5           6
    1 -19.0616137 -19.0609324  -1.5280607  -0.9317073  -0.7063589  -0.6548553
            7           8           9          10          11          12
    1  -0.6548553   0.0223080   0.0223080   0.1583421   0.1607612   0.1968862
 Analysis of SCF Wavefunction
 
 --------------------------------------------------------------
                    Orbital Energies (a.u.)
 --------------------------------------------------------------
 
 Alpha MOs
 -- Occupied --
-19.094 -19.094  -1.585  -1.042  -0.795  -0.795  -0.755  -0.488
 -0.488
 -- Virtual --
  0.155   0.158   0.191   0.191   0.258   0.266   0.266   0.405
  0.455   1.024   1.055   1.060   1.060   1.140   1.140   1.298
  1.351   1.351   1.469   1.469   1.617   1.788   1.788   2.437
  2.437   2.437   2.626   4.583   4.583   4.638   4.638   4.747
  4.901   4.901   4.957   4.957   5.057   5.057   5.259   5.259
  5.295   5.466   5.920   5.920   6.694   6.694   6.697   6.870
  6.871   6.968   6.968   7.083   7.083   7.469   7.469   8.180
  8.210  43.566  43.618  43.648  43.700  43.750  43.750  43.775
 43.775  43.823  43.921  45.592  45.592  45.875  45.875  45.914
 46.956  50.071  50.625
 
 Beta MOs
 -- Occupied --
-19.062 -19.061  -1.528  -0.932  -0.706  -0.655  -0.655
 -- Virtual --
  0.022   0.022   0.158   0.161   0.197   0.197   0.258   0.282
  0.282   0.408   0.505   1.040   1.065   1.096   1.096   1.185
  1.185   1.324   1.391   1.391   1.519   1.519   1.651   1.860
  1.860   2.474   2.475   2.475   2.651   4.633   4.633   4.681
  4.681   4.784   4.974   4.974   5.021   5.021   5.116   5.116
  5.329   5.329   5.335   5.510   5.973   5.973   6.742   6.800
  6.800   6.975   6.975   7.035   7.035   7.149   7.149   7.509
  7.509   8.219   8.254  43.649  43.700  43.731  43.783  43.805
 43.805  43.830  43.830  43.870  43.968  45.635  45.635  45.919
 45.919  45.936  46.980  50.109  50.663
 --------------------------------------------------------------
 
          Ground-State Mulliken Net Atomic Charges

     Atom                 Charge (a.u.)    Spin (a.u.)
  --------------------------------------------------------
      1 O                     0.000000       1.000000
      2 O                     0.000000       1.000000
  --------------------------------------------------------
  Sum of atomic charges =     0.000000
  Sum of spin   charges =     2.000000

 -----------------------------------------------------------------
                    Cartesian Multipole Moments
 -----------------------------------------------------------------
    Charge (ESU x 10^10)
                 0.0000
    Dipole Moment (Debye)
         X       0.0000      Y       0.0000      Z       0.0000
       Tot       0.0000
    Quadrupole Moments (Debye-Ang)
        XX     -10.0651     XY       0.0000     YY     -10.0651
        XZ       0.0000     YZ       0.0000     ZZ     -10.7407
    Octapole Moments (Debye-Ang^2)
       XXX       0.0000    XXY       0.0000    XYY       0.0000
       YYY       0.0000    XXZ      -6.1072    XYZ       0.0000
       YYZ      -6.1072    XZZ       0.0000    YZZ       0.0000
       ZZZ     -19.5512
    Hexadecapole Moments (Debye-Ang^3)
      XXXX      -7.3241   XXXY       0.0000   XXYY      -2.4414
      XYYY       0.0000   YYYY      -7.3241   XXXZ       0.0000
      XXYZ       0.0000   XYYZ       0.0000   YYYZ       0.0000
      XXZZ      -9.8457   XYZZ       0.0000   YYZZ      -9.8457
      XZZZ       0.0000   YZZZ       0.0000   ZZZZ     -51.7801
 -----------------------------------------------------------------
 Calculating analytic gradient of the SCF energy
 Gradient of AOints
            1           2
    1   0.0000000  -0.0000000
    2   0.0000000  -0.0000000
    3  14.0346221 -14.0346221
 Gradient of XC Energy
            1           2
    1  -0.0000000   0.0000000
    2  -0.0000000   0.0000000
    3  -0.4124126   0.4124126
 Gradient of SCF Energy
            1           2
    1  -0.0000000   0.0000000
    2  -0.0000000   0.0000000
    3   0.0021721  -0.0021721
 Max gradient component =       2.172E-03
 RMS gradient           =       1.254E-03
 Gradient time:  CPU 3.99 s  wall 4.06 s
Dipole drv :
gprntSymmMtrx error report: 
 Final Hessian.
            1           2           3           4           5           6
    1   0.0003478  -0.0000005   0.0000006  -0.0003481   0.0000021  -0.0000006
    2  -0.0000005   0.0003499  -0.0000017   0.0000005  -0.0003483   0.0000018
    3   0.0000006  -0.0000017   1.1176802   0.0000003   0.0000031  -1.1176810
    4  -0.0003481   0.0000005   0.0000003   0.0003483  -0.0000021  -0.0000003
    5   0.0000021  -0.0003483   0.0000031  -0.0000021   0.0003467  -0.0000032
    6  -0.0000006   0.0000018  -1.1176810  -0.0000003  -0.0000032   1.1176818
 Writing REM_CC_EA            2
 ----------------------------------------------------
       Standard Nuclear Orientation (Angstroms)
    I     Atom         X            Y            Z
 ----------------------------------------------------
    1      O       0.000000     0.000000     0.025142
    2      O       0.000000     0.000000     1.189392
 ----------------------------------------------------
 Nuclear Repulsion Energy =    29.0894132201 hartrees
 There are        9 alpha and        7 beta electrons
 old dipole drv.
            1           2           3           4           5           6
    1  -0.0000009  -0.0000010  -0.0000012   0.0000027   0.0000009   0.0000012
    2  -0.0000009  -0.0000010  -0.0000021   0.0000031   0.0000014   0.0000020
    3  -0.0000298   0.0000144  -0.0001391   0.0000290  -0.0000077   0.0001577
 New transposed dipole drv.
            1           2           3
    1  -0.0000009  -0.0000009  -0.0000298
    2  -0.0000010  -0.0000010   0.0000144
    3  -0.0000012  -0.0000021  -0.0001391
    4   0.0000027   0.0000031   0.0000290
    5   0.0000009   0.0000014  -0.0000077
    6   0.0000012   0.0000020   0.0001577
FINAL TENSOR RESULT:
Order 2, Length 6
Order 1, Length 6
   0.0003478  -0.0000005   0.0000006  -0.0003481   0.0000021  -0.0000006
Order 1, Length 6
  -0.0000005   0.0003499  -0.0000017   0.0000005  -0.0003483   0.0000018
Order 1, Length 6
   0.0000006  -0.0000017   1.1176802   0.0000003   0.0000031  -1.1176810
Order 1, Length 6
  -0.0003481   0.0000005   0.0000003   0.0003483  -0.0000021  -0.0000003
Order 1, Length 6
   0.0000021  -0.0003483   0.0000031  -0.0000021   0.0003467  -0.0000032
Order 1, Length 6
  -0.0000006   0.0000018  -1.1176810  -0.0000003  -0.0000032   1.1176818


 # Finishing finite difference calculation for IDERIV #
 ######################################################
 ######################################################
 Requested basis set is G3large
 There are 20 shells and 84 basis functions
 **********************************************************************
 **                                                                  **
 **                       VIBRATIONAL ANALYSIS                       **
 **                       --------------------                       **
 **                                                                  **
 **        VIBRATIONAL FREQUENCIES (CM**-1) AND NORMAL MODES         **
 **     FORCE CONSTANTS (mDYN/ANGSTROM) AND REDUCED MASSES (AMU)     **
 **                  INFRARED INTENSITIES (KM/MOL)                   **
 **                                                                  **
 **********************************************************************
 

 Mode:                 1
 Frequency:      1921.71
 Force Cnst:     34.8024
 Red. Mass:      15.9949
 IR Active:          YES
 IR Intens:        0.000
 Raman Active:       YES
               X      Y      Z
 O          0.000  0.000  0.707
 O          0.000  0.000 -0.707
 TransDip   0.000  0.000  0.000

 STANDARD THERMODYNAMIC QUANTITIES AT   298.18 K  AND     1.00 ATM

   This Molecule has  0 Imaginary Frequencies
   Zero point vibrational energy:        2.747 kcal/mol

   Atom    1 Element O  Has Mass   15.99491
   Atom    2 Element O  Has Mass   15.99491
   Molecular Mass:    31.989820 amu
   Principal axes and moments of inertia in atomic units:
                             1           2           3
    Eigenvalues --        0.00000    38.71166    38.71166
          X               0.00000     0.00000     1.00000
          Y               0.00000     1.00000     0.00000
          Z               1.00000     0.00000     0.00000
   Rotational Symmetry Number is   1
   The Molecule is a Symmetric Top
   Translational Enthalpy:        0.889 kcal/mol
   Rotational Enthalpy:           0.889 kcal/mol
   Vibrational Enthalpy:          2.748 kcal/mol
   gas constant (RT):             0.593 kcal/mol
   Translational Entropy:        36.321  cal/mol.K
   Rotational Entropy:          -42.776  cal/mol.K
   Vibrational Entropy:           0.002  cal/mol.K

   Total Enthalpy:                5.118 kcal/mol
   Total Entropy:                -6.453  cal/mol.K
 Total job time:  177.65s(wall), 171.22s(cpu) 
 Thu Apr 21 21:08:18 2011

        *************************************************************
        *                                                           *
        *  Thank you very much for using Q-Chem.  Have a nice day.  *
        *                                                           *
        *************************************************************


0 sent ACK to 0 
now end server 0 ... 
