Process 0 of 1 is on cl170.stfx.acenet.ca - thread support 1
initial socket setup ...start
initial socket setup ...done 
now start server 0 ... 

cmd = /usr/bin/ssh clhead /usr/local/qchem/bin/get_hostid 116514852 > /scratch/tmp/6064094.1.medium.q/qchem28413/lic.dat
                  Welcome to Q-Chem
     A Quantum Leap Into The Future Of Chemistry

 Y. Shao, L. Fusti-Molnar, Y. Jung, J. Kussmann, C. Ochsenfeld,
 S. T. Brown, A. T. B. Gilbert, L. V. Slipchenko,S. V. Levchenko,
 D. P. O'Neill, R. A. DiStasio Jr., R. C. Lochan, T. Wang,
 G. J. O. Beran, N. A. Besley, J. M. Herbert, C. Y. Lin,
 T. Van Voorhis, S. H. Chien, A. Sodt, R. P. Steele, 
 V. A. Rassolov, P. E. Maslen, P. P. Korambath, R. D. Adamson,
 B. Austin, J. Baker, E. F. C. Byrd, H. Dachsel, R. J. Doerksen,
 A. Dreuw, B. D. Dunietz, A. D. Dutoi, T. R. Furlani,
 S. R. Gwaltney, A. Heyden, S. Hirata, C.-P. Hsu, G. Kedziora,
 R. Z. Khaliullin, P. Klunzinger, A. M. Lee, M. S. Lee, W. Liang,
 I. Lotan, N. Nair, B. Peters, E. I. Proynov, P. A. Pieniazek, 
 Y. M. Rhee, J. Ritchie, E. Rosta, C. D. Sherrill, 
 A. C. Simmonett, J. E. Subotnik, H. L. Woodcock III,
 W. Zhang, A. T. Bell, A. K. Chakraborty, D. M. Chipman,
 F. J. Keil, A. Warshel, W. J. Hehre, H. F. Schaefer III,
 J. Kong, A. I. Krylov, P. M. W. Gill, M. Head-Gordon,
 Q-Chem, Version 3.1, Q-Chem, Inc., Pittsburgh, PA (2007).

 Additional authors for Version 3.1: 
 Z. Gan, Y. Zhao, N. E. Schultz, D. Truhlar, E. Epifanovsky and M. Oana.

 Additional authors for Version 3.2: 
 R. Baer, B. R. Brooks, D. Casanova, J.-D. Chai, C.-L. Cheng, 
 C. Cramer, D. Crittenden, A. Ghysels, G. Hawkins, E. G. Hohenstein, 
 C. Kelley, W. Kurlancheek, D. Liotard, E. Livshits, P. Manohar, 
 A. Marenich, D. Neuhauser, R. Olson, M. A. Rohrdanz, K. S. Thanthiriwatte, 
 A. J. W. Thom, V. Vanovschi, C. F. Williams, Q. Wu and Z.-Q. You. 


 Intel X86 Linux Version

 Q-chem begins on Sun Jul  7 09:41:18 2013  

 Parallel job on  1  processors
Processing $rem in /usr/local/qchem/config/preferences.

theFileMan(): MAXOPENFILES=974 MAX_SUB_FILE_NUM=16
Maximum size of a physical file is 2.0 GB, maximum size of a tmp-file is 32.0 GB


--------------------------------------------------------------
User input:
--------------------------------------------------------------

$molecule
-1,2
C          0.74096        0.79405        0.00000
S          0.00000       -0.83481        0.00000
C         -0.74096        0.79405        0.00000
H          1.24877        1.08067       -0.91461
H          1.24877        1.08067        0.91461
H         -1.24877        1.08067        0.91461
H         -1.24877        1.08067       -0.91461
$end

$comment
negative
$end

$xc_functional
C PBE   1.00
X wPBE  1.00
$end

$rem
SYMMETRY_DECOMPOSITION	0
exchange 		general
LRC_DFT                 true
BASIS                   g3large
omega			270
mem_static              760
max_scf_cycles          200
scf_final_print         1
sym_ignore              true
$end

--------------------------------------------------------------
 Writing REM_CC_EA            7
 ----------------------------------------------------
       Standard Nuclear Orientation (Angstroms)
    I     Atom         X            Y            Z
 ----------------------------------------------------
    1      C       0.740960     0.794050     0.000000
    2      S       0.000000    -0.834810     0.000000
    3      C      -0.740960     0.794050     0.000000
    4      H       1.248770     1.080670    -0.914610
    5      H       1.248770     1.080670     0.914610
    6      H      -1.248770     1.080670     0.914610
    7      H      -1.248770     1.080670    -0.914610
 ----------------------------------------------------
 Nuclear Repulsion Energy =   102.1883315095 hartrees
 There are       17 alpha and       16 beta electrons
 Requested basis set is G3large
 There are 63 shells and 190 basis functions

Total QAlloc Memory Limit   2000 MB
Mega-Array Size       743 MB
MEM_STATIC part       760 MB

                       Distance Matrix (Angstroms)
             C (  1)   S (  2)   C (  3)   H (  4)   H (  5)   H (  6)
   S (  2)  1.789471
   C (  3)  1.481920  1.789471
   H (  4)  1.084681  2.462722  2.208549
   H (  5)  1.084681  2.462722  2.208549  1.829220
   H (  6)  2.208549  2.462722  1.084681  3.095764  2.497540
   H (  7)  2.208549  2.462722  1.084681  2.497540  3.095764  1.829220

 
 A cutoff of  1.0D-08 yielded   1930 shell pairs
 There are  17755 function pairs ( 22821 Cartesian)
Evaluating contribution to one-electron hamiltonian from nuclear
 Smallest overlap matrix eigenvalue = 7.57E-05

 Q-Chem warning in module mkSTV.C, line 194:

 Overlap eigenvalue is smaller than square root of threshold

 Multipole matrices computed through 2nd order

  Scale SEOQF with 1.000000e-01/1.000000e-01/1.000000e-01

 Standard Electronic Orientation quadrupole field applied
 Nucleus-field energy     =     0.0000000018 hartrees
 Guess from superposition of atomic densities
 Warning:  Energy on first SCF cycle will be non-variational
 Long-range K will be added via erf
 Coulomb attenuation parameter = 0.27 bohr**(-1)
 An unrestricted Kohn-Sham SCF calculation will be
 performed using Pulay DIIS extrapolation
 Exchange:  wPBE + LR-HF      Correlation:  PBE
 Using SG-1 standard quadrature grid
 SCF converges when DIIS error is below 1.0E-05
 Requested basis set is G3large
 There are 63 shells and 190 basis functions
 A cutoff of  1.0D-08 yielded   1930 shell pairs
 There are  17755 function pairs ( 22821 Cartesian)
 Warning!  Inaccurate integrated density:
   Number of electrons =    33
   Numerical integral  =    32.000168574254
   Relative error      =    -3.0297921992 %
 ---------------------------------------
  Cycle       Energy         DIIS Error
 ---------------------------------------
    1    -477.3171248282      3.20E-02
    2    -476.4247575004      3.97E-03
    3    -476.4543202693      4.57E-03
    4    -476.5507922438      5.59E-04
    5    -476.5548772007      3.57E-04
    6    -476.5577172984      2.26E-04
    7    -476.5595404962      1.47E-04
    8    -476.5614371615      7.89E-05
    9    -476.5623443427      3.57E-05
   10    -476.5626708361      3.51E-05
   11    -476.5627667692      3.52E-05
   12    -476.5625637250      3.31E-05
   13    -476.5621735746      1.58E-05
   14    -476.5621421868      1.13E-05
   15    -476.5621361222      2.56E-06 Convergence criterion met
 ---------------------------------------
 One-Electron    Energy =  -862.1954335585
 Total Coulomb   Energy =   321.3630040983
 Alpha Exchange  Energy =    -2.3547631208
 Beta  Exchange  Energy =    -2.2925058262
 DFT   Exchange  Energy =   -32.1231047558
 DFT Correlation Energy =    -1.1476644703
 Nuclear Repu.   Energy =   102.1883315112
 Nuclear Attr.   Energy = -1338.0248291157
 Kinetic         Energy =   475.8293955572
 <S^2> = 0.7505
 SCF time:  CPU 216.63 s  wall 217.59 s
 Final Alpha MO Eigenvalues
            1           2           3           4           5           6
    1 -88.0419071  -9.9268605  -9.9267154  -7.6762105  -5.6959535  -5.6934425
            7           8           9          10          11          12
    1  -5.6855499  -0.8162603  -0.5683223  -0.5661083  -0.4452409  -0.3995835
           13          14          15          16          17          18
    1  -0.3279957  -0.2713915  -0.2696712  -0.1775605   0.0396597   0.1267330
           19          20          21          22
    1   0.1517757   0.1681610   0.1779088   0.1911524
 Final Beta MO Eigenvalues
            1           2           3           4           5           6
    1 -88.0418674  -9.9260266  -9.9258799  -7.6761442  -5.6959744  -5.6931544
            7           8           9          10          11          12
    1  -5.6855606  -0.8148251  -0.5660371  -0.5651290  -0.4443466  -0.3976005
           13          14          15          16          17          18
    1  -0.3268410  -0.2689885  -0.2659344  -0.1770704   0.1451478   0.1502090
           19          20          21
    1   0.1567526   0.1801672   0.1809093
 Analysis of SCF Wavefunction
 
 --------------------------------------------------------------
                    Orbital Energies (a.u.)
 --------------------------------------------------------------
 
 Alpha MOs
 -- Occupied --
-88.042  -9.927  -9.927  -7.676  -5.696  -5.693  -5.686  -0.816
 -0.568  -0.566  -0.445  -0.400  -0.328  -0.271  -0.270  -0.178
  0.040
 -- Virtual --
  0.127   0.152   0.168   0.178   0.191   0.228   0.231   0.236
  0.237   0.267   0.279   0.290   0.302   0.304   0.306   0.311
  0.332   0.362   0.400   0.414   0.441   0.463   0.504   0.515
  0.540   0.540   0.560   0.605   0.611   0.643   0.662   0.686
  0.749   0.756   0.768   0.771   0.790   0.793   0.814   0.845
  0.888   0.946   0.995   1.006   1.070   1.076   1.095   1.097
  1.137   1.186   1.192   1.199   1.218   1.228   1.268   1.279
  1.344   1.381   1.406   1.419   1.452   1.460   1.491   1.515
  1.521   1.558   1.560   1.586   1.624   1.640   1.664   1.680
  1.714   1.719   1.752   1.794   1.825   2.115   2.319   2.382
  2.688   2.694   2.863   2.865   2.974   3.009   3.018   3.068
  3.103   3.165   3.236   3.238   3.284   3.313   3.319   3.332
  3.348   3.458   3.517   3.556   3.570   3.587   3.606   3.705
  3.717   3.742   3.762   3.838   3.853   3.855   3.859   3.948
  3.994   4.024   4.168   4.176   4.191   4.281   4.372   4.403
  4.407   4.425   4.499   4.502   4.617   4.709   4.714   4.830
  4.873   4.992   5.162   5.280   5.312   5.517   5.576   5.744
  5.802   5.842   8.601  17.247  17.452  17.615  23.550  23.665
 23.710  23.744  23.815  24.160  24.343  27.543  27.856  28.085
 28.155  28.213  28.525  30.991  30.992  30.998  31.004  31.009
 31.019  31.043  40.944  41.009  41.029  41.130  41.217  41.232
 41.239  41.242  41.319  41.339 189.144
 
 Beta MOs
 -- Occupied --
-88.042  -9.926  -9.926  -7.676  -5.696  -5.693  -5.686  -0.815
 -0.566  -0.565  -0.444  -0.398  -0.327  -0.269  -0.266  -0.177
 -- Virtual --
  0.145   0.150   0.157   0.180   0.181   0.207   0.233   0.235
  0.236   0.238   0.267   0.280   0.293   0.303   0.305   0.306
  0.315   0.333   0.363   0.401   0.416   0.441   0.461   0.504
  0.516   0.540   0.540   0.561   0.607   0.611   0.643   0.662
  0.686   0.748   0.756   0.771   0.772   0.790   0.791   0.814
  0.846   0.889   0.947   0.997   1.007   1.072   1.077   1.095
  1.098   1.137   1.188   1.193   1.200   1.220   1.229   1.270
  1.280   1.345   1.383   1.407   1.419   1.453   1.460   1.492
  1.516   1.523   1.560   1.561   1.588   1.625   1.642   1.665
  1.682   1.716   1.721   1.753   1.796   1.826   2.116   2.321
  2.382   2.689   2.695   2.864   2.865   2.975   3.011   3.018
  3.071   3.103   3.167   3.238   3.239   3.286   3.314   3.320
  3.333   3.349   3.459   3.520   3.557   3.572   3.589   3.608
  3.707   3.718   3.744   3.764   3.838   3.855   3.856   3.861
  3.949   3.994   4.026   4.169   4.177   4.192   4.282   4.373
  4.403   4.408   4.425   4.500   4.503   4.618   4.710   4.715
  4.831   4.873   4.994   5.162   5.281   5.313   5.518   5.577
  5.745   5.803   5.843   8.601  17.247  17.452  17.615  23.550
 23.665  23.710  23.744  23.815  24.161  24.344  27.544  27.857
 28.086  28.155  28.214  28.525  30.991  30.992  30.998  31.004
 31.009  31.019  31.043  40.945  41.010  41.030  41.131  41.218
 41.233  41.240  41.242  41.319  41.339 189.144
 --------------------------------------------------------------
 
          Ground-State Mulliken Net Atomic Charges

     Atom                 Charge (a.u.)    Spin (a.u.)
  --------------------------------------------------------
      1 C                     1.040477      -1.021281
      2 S                    -0.802833       0.441634
      3 C                     1.032446      -1.013041
      4 H                    -0.568968       0.649629
      5 H                    -0.568531       0.649193
      6 H                    -0.566576       0.647218
      7 H                    -0.566015       0.646647
  --------------------------------------------------------
  Sum of atomic charges =    -1.000000
  Sum of spin   charges =     1.000000

 -----------------------------------------------------------------
                    Cartesian Multipole Moments
 -----------------------------------------------------------------
    Charge (ESU x 10^10)
                -4.8032
    Dipole Moment (Debye)
         X      -0.0146      Y      -2.2276      Z       0.0001
       Tot       2.2277
    Quadrupole Moments (Debye-Ang)
        XX     -71.8949     XY       0.0038     YY     -47.8145
        XZ       0.0078     YZ      -0.0003     ZZ     -45.6405
    Octapole Moments (Debye-Ang^2)
       XXX      -0.1683    XXY     -50.2639    XYY      -0.0578
       YYY     -46.1673    XXZ      -0.0014    XYZ       0.0095
       YYZ      -0.0005    XZZ      -0.0800    YZZ     -16.9610
       ZZZ      -0.0013
    Hexadecapole Moments (Debye-Ang^3)
      XXXX    -848.0796   XXXY      -0.0316   XXYY    -236.5659
      XYYY       0.0195   YYYY    -375.1945   XXXZ       0.0845
      XXYZ      -0.0028   XYYZ       0.0328   YYYZ      -0.0029
      XXZZ    -198.5591   XYZZ      -0.0387   YYZZ    -111.9145
      XZZZ       0.0737   YZZZ      -0.0029   ZZZZ    -247.8649
 -----------------------------------------------------------------
 Total job time:  217.84s(wall), 216.87s(cpu) 
 Sun Jul  7 09:44:56 2013

        *************************************************************
        *                                                           *
        *  Thank you very much for using Q-Chem.  Have a nice day.  *
        *                                                           *
        *************************************************************


0 sent ACK to 0 
now end server 0 ... 
 
**********************************************************************
Job 2 of 3 
**********************************************************************
 
Process 0 of 1 is on cl170.stfx.acenet.ca - thread support 1
initial socket setup ...start
initial socket setup ...done 
now start server 0 ... 

cmd = /usr/bin/ssh clhead /usr/local/qchem/bin/get_hostid 546954196 > /scratch/tmp/6064094.1.medium.q/qchem28413/lic.dat
                  Welcome to Q-Chem
     A Quantum Leap Into The Future Of Chemistry

 Y. Shao, L. Fusti-Molnar, Y. Jung, J. Kussmann, C. Ochsenfeld,
 S. T. Brown, A. T. B. Gilbert, L. V. Slipchenko,S. V. Levchenko,
 D. P. O'Neill, R. A. DiStasio Jr., R. C. Lochan, T. Wang,
 G. J. O. Beran, N. A. Besley, J. M. Herbert, C. Y. Lin,
 T. Van Voorhis, S. H. Chien, A. Sodt, R. P. Steele, 
 V. A. Rassolov, P. E. Maslen, P. P. Korambath, R. D. Adamson,
 B. Austin, J. Baker, E. F. C. Byrd, H. Dachsel, R. J. Doerksen,
 A. Dreuw, B. D. Dunietz, A. D. Dutoi, T. R. Furlani,
 S. R. Gwaltney, A. Heyden, S. Hirata, C.-P. Hsu, G. Kedziora,
 R. Z. Khaliullin, P. Klunzinger, A. M. Lee, M. S. Lee, W. Liang,
 I. Lotan, N. Nair, B. Peters, E. I. Proynov, P. A. Pieniazek, 
 Y. M. Rhee, J. Ritchie, E. Rosta, C. D. Sherrill, 
 A. C. Simmonett, J. E. Subotnik, H. L. Woodcock III,
 W. Zhang, A. T. Bell, A. K. Chakraborty, D. M. Chipman,
 F. J. Keil, A. Warshel, W. J. Hehre, H. F. Schaefer III,
 J. Kong, A. I. Krylov, P. M. W. Gill, M. Head-Gordon,
 Q-Chem, Version 3.1, Q-Chem, Inc., Pittsburgh, PA (2007).

 Additional authors for Version 3.1: 
 Z. Gan, Y. Zhao, N. E. Schultz, D. Truhlar, E. Epifanovsky and M. Oana.

 Additional authors for Version 3.2: 
 R. Baer, B. R. Brooks, D. Casanova, J.-D. Chai, C.-L. Cheng, 
 C. Cramer, D. Crittenden, A. Ghysels, G. Hawkins, E. G. Hohenstein, 
 C. Kelley, W. Kurlancheek, D. Liotard, E. Livshits, P. Manohar, 
 A. Marenich, D. Neuhauser, R. Olson, M. A. Rohrdanz, K. S. Thanthiriwatte, 
 A. J. W. Thom, V. Vanovschi, C. F. Williams, Q. Wu and Z.-Q. You. 


 Intel X86 Linux Version

 Q-chem begins on Sun Jul  7 09:44:59 2013  

 Parallel job on  1  processors
Processing $rem in /usr/local/qchem/config/preferences.

theFileMan(): MAXOPENFILES=974 MAX_SUB_FILE_NUM=16
Maximum size of a physical file is 2.0 GB, maximum size of a tmp-file is 32.0 GB


--------------------------------------------------------------
User input:
--------------------------------------------------------------

$molecule
0,1
C          0.74096        0.79405        0.00000
S          0.00000       -0.83481        0.00000
C         -0.74096        0.79405        0.00000
H          1.24877        1.08067       -0.91461
H          1.24877        1.08067        0.91461
H         -1.24877        1.08067        0.91461
H         -1.24877        1.08067       -0.91461
$end

$comment
neutral
$end

$xc_functional
C PBE   1.00
X wPBE  1.00
$end


$rem
SYMMETRY_DECOMPOSITION	0
LRC_DFT                 true
exchange 		general
BASIS                   g3large
omega			270
mem_static              760
max_scf_cycles          200
scf_final_print         1
sym_ignore              true
$end

--------------------------------------------------------------
 Writing REM_CC_EA            7
 ----------------------------------------------------
       Standard Nuclear Orientation (Angstroms)
    I     Atom         X            Y            Z
 ----------------------------------------------------
    1      C       0.740960     0.794050     0.000000
    2      S       0.000000    -0.834810     0.000000
    3      C      -0.740960     0.794050     0.000000
    4      H       1.248770     1.080670    -0.914610
    5      H       1.248770     1.080670     0.914610
    6      H      -1.248770     1.080670     0.914610
    7      H      -1.248770     1.080670    -0.914610
 ----------------------------------------------------
 Nuclear Repulsion Energy =   102.1883315095 hartrees
 There are       16 alpha and       16 beta electrons
 Requested basis set is G3large
 There are 63 shells and 190 basis functions

Total QAlloc Memory Limit   2000 MB
Mega-Array Size       743 MB
MEM_STATIC part       760 MB

                       Distance Matrix (Angstroms)
             C (  1)   S (  2)   C (  3)   H (  4)   H (  5)   H (  6)
   S (  2)  1.789471
   C (  3)  1.481920  1.789471
   H (  4)  1.084681  2.462722  2.208549
   H (  5)  1.084681  2.462722  2.208549  1.829220
   H (  6)  2.208549  2.462722  1.084681  3.095764  2.497540
   H (  7)  2.208549  2.462722  1.084681  2.497540  3.095764  1.829220

 
 A cutoff of  1.0D-08 yielded   1930 shell pairs
 There are  17755 function pairs ( 22821 Cartesian)
Evaluating contribution to one-electron hamiltonian from nuclear
 Smallest overlap matrix eigenvalue = 7.57E-05

 Q-Chem warning in module mkSTV.C, line 194:

 Overlap eigenvalue is smaller than square root of threshold

 Multipole matrices computed through 2nd order

  Scale SEOQF with 1.000000e-01/1.000000e-01/1.000000e-01

 Standard Electronic Orientation quadrupole field applied
 Nucleus-field energy     =     0.0000000018 hartrees
 Guess from superposition of atomic densities
 Warning:  Energy on first SCF cycle will be non-variational
 Long-range K will be added via erf
 Coulomb attenuation parameter = 0.27 bohr**(-1)
 A restricted Kohn-Sham SCF calculation will be
 performed using Pulay DIIS extrapolation
 Exchange:  wPBE + LR-HF      Correlation:  PBE
 Using SG-1 standard quadrature grid
 SCF converges when DIIS error is below 1.0E-05
 Requested basis set is G3large
 There are 63 shells and 190 basis functions
 A cutoff of  1.0D-08 yielded   1930 shell pairs
 There are  17755 function pairs ( 22821 Cartesian)
 ---------------------------------------
  Cycle       Energy         DIIS Error
 ---------------------------------------
    1    -477.3171248282      3.20E-02
    2    -476.5724656762      2.36E-03
    3    -476.5953819238      1.46E-03
    4    -476.6033944774      4.17E-04
    5    -476.6042326991      1.26E-04
    6    -476.6043352104      4.28E-05
    7    -476.6043476936      1.46E-05
    8    -476.6043488719      5.78E-06 Convergence criterion met
 ---------------------------------------
 One-Electron    Energy =  -857.7040799079
 Total Coulomb   Energy =   316.7421025286
 Alpha Exchange  Energy =    -2.2938311126
 Beta  Exchange  Energy =    -2.2938311126
 DFT   Exchange  Energy =   -32.1041604618
 DFT Correlation Energy =    -1.1388803169
 Nuclear Repu.   Energy =   102.1883315112
 Nuclear Attr.   Energy = -1333.4394332767
 Kinetic         Energy =   475.7353533688
 SCF time:  CPU 92.35 s  wall 93.00 s
 Final Alpha MO Eigenvalues
            1           2           3           4           5           6
    1 -88.1818638 -10.0727909 -10.0726238  -7.8169033  -5.8366587  -5.8343981
            7           8           9          10          11          12
    1  -5.8257486  -0.9584740  -0.7106751  -0.7070654  -0.5868990  -0.5410414
           13          14          15          16          17          18
    1  -0.4700954  -0.4118417  -0.4099702  -0.3160315   0.0398787   0.0460526
           19          20          21
    1   0.0549813   0.0724251   0.0826886
 Analysis of SCF Wavefunction
 
 --------------------------------------------------------------
                    Orbital Energies (a.u.)
 --------------------------------------------------------------
 
 Alpha MOs
 -- Occupied --
-88.182 -10.073 -10.073  -7.817  -5.837  -5.834  -5.826  -0.958
 -0.711  -0.707  -0.587  -0.541  -0.470  -0.412  -0.410  -0.316
 -- Virtual --
  0.040   0.046   0.055   0.072   0.083   0.085   0.121   0.123
  0.129   0.131   0.163   0.164   0.184   0.184   0.190   0.196
  0.196   0.204   0.232   0.271   0.284   0.310   0.335   0.371
  0.385   0.412   0.413   0.436   0.475   0.481   0.508   0.531
  0.557   0.617   0.621   0.635   0.638   0.656   0.658   0.679
  0.707   0.752   0.808   0.858   0.867   0.932   0.940   0.956
  0.960   1.000   1.050   1.054   1.061   1.084   1.090   1.130
  1.141   1.205   1.242   1.270   1.279   1.315   1.321   1.353
  1.379   1.381   1.420   1.422   1.449   1.486   1.501   1.528
  1.542   1.576   1.582   1.615   1.657   1.684   1.978   2.180
  2.242   2.547   2.553   2.721   2.725   2.832   2.868   2.877
  2.927   2.961   3.023   3.094   3.097   3.143   3.171   3.177
  3.191   3.206   3.316   3.375   3.414   3.429   3.444   3.465
  3.564   3.576   3.601   3.621   3.697   3.711   3.713   3.718
  3.807   3.852   3.882   4.027   4.034   4.049   4.138   4.230
  4.261   4.265   4.283   4.357   4.360   4.475   4.567   4.572
  4.689   4.732   4.850   5.021   5.137   5.171   5.375   5.435
  5.602   5.659   5.699   8.460  17.107  17.311  17.475  23.409
 23.525  23.569  23.603  23.674  24.015  24.197  27.398  27.710
 27.940  28.009  28.068  28.379  30.851  30.851  30.857  30.863
 30.868  30.878  30.902  40.798  40.864  40.884  40.984  41.072
 41.086  41.094  41.096  41.173  41.193 189.004
 --------------------------------------------------------------
 
          Ground-State Mulliken Net Atomic Charges

     Atom                 Charge (a.u.)
  ----------------------------------------
      1 C                    -0.007554
      2 S                    -0.327469
      3 C                    -0.006909
      4 H                     0.085507
      5 H                     0.085511
      6 H                     0.085443
      7 H                     0.085471
  ----------------------------------------
  Sum of atomic charges =     0.000000

 -----------------------------------------------------------------
                    Cartesian Multipole Moments
 -----------------------------------------------------------------
    Charge (ESU x 10^10)
                 0.0000
    Dipole Moment (Debye)
         X      -0.0005      Y       1.8566      Z       0.0000
       Tot       1.8566
    Quadrupole Moments (Debye-Ang)
        XX     -24.4523     XY       0.0000     YY     -26.2819
        XZ       0.0001     YZ      -0.0001     ZZ     -26.1739
    Octapole Moments (Debye-Ang^2)
       XXX      -0.0004    XXY       1.3428    XYY      -0.0011
       YYY      -3.0948    XXZ       0.0001    XYZ      -0.0005
       YYZ       0.0004    XZZ       0.0001    YZZ       3.5698
       ZZZ       0.0001
    Hexadecapole Moments (Debye-Ang^3)
      XXXX     -90.6136   XXXY       0.0009   XXYY     -36.8214
      XYYY      -0.0002   YYYY    -146.6267   XXXZ       0.0001
      XXYZ      -0.0001   XYYZ       0.0003   YYYZ      -0.0004
      XXZZ     -19.9534   XYZZ       0.0002   YYZZ     -32.7143
      XZZZ       0.0002   YZZZ      -0.0001   ZZZZ     -47.3766
 -----------------------------------------------------------------
 Total job time:  93.25s(wall), 92.56s(cpu) 
 Sun Jul  7 09:46:33 2013

        *************************************************************
        *                                                           *
        *  Thank you very much for using Q-Chem.  Have a nice day.  *
        *                                                           *
        *************************************************************


0 sent ACK to 0 
now end server 0 ... 
 
**********************************************************************
Job 3 of 3 
**********************************************************************
 
Process 0 of 1 is on cl170.stfx.acenet.ca - thread support 1
initial socket setup ...start
initial socket setup ...done 
now start server 0 ... 

cmd = /usr/bin/ssh clhead /usr/local/qchem/bin/get_hostid 354333901 > /scratch/tmp/6064094.1.medium.q/qchem28413/lic.dat
                  Welcome to Q-Chem
     A Quantum Leap Into The Future Of Chemistry

 Y. Shao, L. Fusti-Molnar, Y. Jung, J. Kussmann, C. Ochsenfeld,
 S. T. Brown, A. T. B. Gilbert, L. V. Slipchenko,S. V. Levchenko,
 D. P. O'Neill, R. A. DiStasio Jr., R. C. Lochan, T. Wang,
 G. J. O. Beran, N. A. Besley, J. M. Herbert, C. Y. Lin,
 T. Van Voorhis, S. H. Chien, A. Sodt, R. P. Steele, 
 V. A. Rassolov, P. E. Maslen, P. P. Korambath, R. D. Adamson,
 B. Austin, J. Baker, E. F. C. Byrd, H. Dachsel, R. J. Doerksen,
 A. Dreuw, B. D. Dunietz, A. D. Dutoi, T. R. Furlani,
 S. R. Gwaltney, A. Heyden, S. Hirata, C.-P. Hsu, G. Kedziora,
 R. Z. Khaliullin, P. Klunzinger, A. M. Lee, M. S. Lee, W. Liang,
 I. Lotan, N. Nair, B. Peters, E. I. Proynov, P. A. Pieniazek, 
 Y. M. Rhee, J. Ritchie, E. Rosta, C. D. Sherrill, 
 A. C. Simmonett, J. E. Subotnik, H. L. Woodcock III,
 W. Zhang, A. T. Bell, A. K. Chakraborty, D. M. Chipman,
 F. J. Keil, A. Warshel, W. J. Hehre, H. F. Schaefer III,
 J. Kong, A. I. Krylov, P. M. W. Gill, M. Head-Gordon,
 Q-Chem, Version 3.1, Q-Chem, Inc., Pittsburgh, PA (2007).

 Additional authors for Version 3.1: 
 Z. Gan, Y. Zhao, N. E. Schultz, D. Truhlar, E. Epifanovsky and M. Oana.

 Additional authors for Version 3.2: 
 R. Baer, B. R. Brooks, D. Casanova, J.-D. Chai, C.-L. Cheng, 
 C. Cramer, D. Crittenden, A. Ghysels, G. Hawkins, E. G. Hohenstein, 
 C. Kelley, W. Kurlancheek, D. Liotard, E. Livshits, P. Manohar, 
 A. Marenich, D. Neuhauser, R. Olson, M. A. Rohrdanz, K. S. Thanthiriwatte, 
 A. J. W. Thom, V. Vanovschi, C. F. Williams, Q. Wu and Z.-Q. You. 


 Intel X86 Linux Version

 Q-chem begins on Sun Jul  7 09:46:36 2013  

 Parallel job on  1  processors
Processing $rem in /usr/local/qchem/config/preferences.

theFileMan(): MAXOPENFILES=974 MAX_SUB_FILE_NUM=16
Maximum size of a physical file is 2.0 GB, maximum size of a tmp-file is 32.0 GB


--------------------------------------------------------------
User input:
--------------------------------------------------------------

$molecule
1,2
C          0.74096        0.79405        0.00000
S          0.00000       -0.83481        0.00000
C         -0.74096        0.79405        0.00000
H          1.24877        1.08067       -0.91461
H          1.24877        1.08067        0.91461
H         -1.24877        1.08067        0.91461
H         -1.24877        1.08067       -0.91461
$end

$comment
positive
$end

$xc_functional
C PBE   1.00
X wPBE  1.00
$end

$rem
SYMMETRY_DECOMPOSITION	0
LRC_DFT                 true
exchange 		general
BASIS                   g3large
omega			270
mem_static              760
max_scf_cycles          200
scf_final_print         1
sym_ignore              true
$end

--------------------------------------------------------------
 Writing REM_CC_EA            7
 ----------------------------------------------------
       Standard Nuclear Orientation (Angstroms)
    I     Atom         X            Y            Z
 ----------------------------------------------------
    1      C       0.740960     0.794050     0.000000
    2      S       0.000000    -0.834810     0.000000
    3      C      -0.740960     0.794050     0.000000
    4      H       1.248770     1.080670    -0.914610
    5      H       1.248770     1.080670     0.914610
    6      H      -1.248770     1.080670     0.914610
    7      H      -1.248770     1.080670    -0.914610
 ----------------------------------------------------
 Nuclear Repulsion Energy =   102.1883315095 hartrees
 There are       16 alpha and       15 beta electrons
 Requested basis set is G3large
 There are 63 shells and 190 basis functions

Total QAlloc Memory Limit   2000 MB
Mega-Array Size       743 MB
MEM_STATIC part       760 MB

                       Distance Matrix (Angstroms)
             C (  1)   S (  2)   C (  3)   H (  4)   H (  5)   H (  6)
   S (  2)  1.789471
   C (  3)  1.481920  1.789471
   H (  4)  1.084681  2.462722  2.208549
   H (  5)  1.084681  2.462722  2.208549  1.829220
   H (  6)  2.208549  2.462722  1.084681  3.095764  2.497540
   H (  7)  2.208549  2.462722  1.084681  2.497540  3.095764  1.829220

 
 A cutoff of  1.0D-08 yielded   1930 shell pairs
 There are  17755 function pairs ( 22821 Cartesian)
Evaluating contribution to one-electron hamiltonian from nuclear
 Smallest overlap matrix eigenvalue = 7.57E-05

 Q-Chem warning in module mkSTV.C, line 194:

 Overlap eigenvalue is smaller than square root of threshold

 Multipole matrices computed through 2nd order

  Scale SEOQF with 1.000000e-01/1.000000e-01/1.000000e-01

 Standard Electronic Orientation quadrupole field applied
 Nucleus-field energy     =     0.0000000018 hartrees
 Guess from superposition of atomic densities
 Warning:  Energy on first SCF cycle will be non-variational
 Long-range K will be added via erf
 Coulomb attenuation parameter = 0.27 bohr**(-1)
 An unrestricted Kohn-Sham SCF calculation will be
 performed using Pulay DIIS extrapolation
 Exchange:  wPBE + LR-HF      Correlation:  PBE
 Using SG-1 standard quadrature grid
 SCF converges when DIIS error is below 1.0E-05
 Requested basis set is G3large
 There are 63 shells and 190 basis functions
 A cutoff of  1.0D-08 yielded   1930 shell pairs
 There are  17755 function pairs ( 22821 Cartesian)
 Warning!  Inaccurate integrated density:
   Number of electrons =    31
   Numerical integral  =    32.000168574254
   Relative error      =     3.2263502395 %
 ---------------------------------------
  Cycle       Energy         DIIS Error
 ---------------------------------------
    1    -477.3171248282      3.20E-02
    2    -476.2146928607      3.05E-03
    3    -476.2490939790      2.33E-03
    4    -476.2713441929      4.39E-04
    5    -476.2724994728      1.96E-04
    6    -476.2727514805      4.66E-05
    7    -476.2727980990      1.68E-05
    8    -476.2728055157      9.68E-06 Convergence criterion met
 ---------------------------------------
 One-Electron    Energy =  -848.5768060447
 Total Coulomb   Energy =   307.6446255692
 Alpha Exchange  Energy =    -2.3017204835
 Beta  Exchange  Energy =    -2.1601848602
 DFT   Exchange  Energy =   -31.9669509591
 DFT Correlation Energy =    -1.1001002487
 Nuclear Repu.   Energy =   102.1883315112
 Nuclear Attr.   Energy = -1324.0153402189
 Kinetic         Energy =   475.4385341742
 <S^2> = 0.7554
 SCF time:  CPU 112.48 s  wall 113.27 s
 Final Alpha MO Eigenvalues
            1           2           3           4           5           6
    1 -88.5320780 -10.3187606 -10.3185827  -8.1617212  -6.1849646  -6.1769231
            7           8           9          10          11          12
    1  -6.1740068  -1.2408468  -0.9924773  -0.9530443  -0.8402385  -0.8007091
           13          14          15          16          17          18
    1  -0.7067941  -0.6896215  -0.6735748  -0.6506693  -0.1808040  -0.1367402
           19          20          21
    1  -0.1076431  -0.0925070  -0.0800512
 Final Beta MO Eigenvalues
            1           2           3           4           5           6
    1 -88.5269592 -10.3189379 -10.3187604  -8.1569508  -6.1743129  -6.1711413
            7           8           9          10          11          12
    1  -6.1703113  -1.2270342  -0.9649014  -0.9510585  -0.8234336  -0.7929890
           13          14          15          16          17          18
    1  -0.7009979  -0.6798159  -0.6692757  -0.3437996  -0.1767702  -0.1216327
           19          20
    1  -0.1051289  -0.0890923
 Analysis of SCF Wavefunction
 
 --------------------------------------------------------------
                    Orbital Energies (a.u.)
 --------------------------------------------------------------
 
 Alpha MOs
 -- Occupied --
-88.532 -10.319 -10.319  -8.162  -6.185  -6.177  -6.174  -1.241
 -0.992  -0.953  -0.840  -0.801  -0.707  -0.690  -0.674  -0.651
 -- Virtual --
 -0.181  -0.137  -0.108  -0.093  -0.080  -0.056  -0.037  -0.036
 -0.027  -0.023  -0.023   0.004   0.009   0.016   0.027   0.030
  0.032   0.040   0.050   0.059   0.087   0.108   0.130   0.151
  0.157   0.190   0.200   0.226   0.256   0.261   0.302   0.323
  0.358   0.409   0.412   0.414   0.436   0.453   0.455   0.478
  0.482   0.519   0.564   0.613   0.656   0.674   0.677   0.693
  0.724   0.725   0.779   0.781   0.821   0.847   0.856   0.883
  0.907   0.982   1.007   1.020   1.053   1.059   1.066   1.097
  1.125   1.155   1.190   1.192   1.236   1.253   1.261   1.305
  1.314   1.336   1.356   1.392   1.438   1.454   1.662   1.909
  1.963   2.303   2.316   2.476   2.494   2.588   2.625   2.641
  2.681   2.706   2.771   2.837   2.843   2.880   2.898   2.936
  2.944   2.962   3.070   3.134   3.168   3.179   3.208   3.209
  3.237   3.238   3.346   3.347   3.372   3.430   3.431   3.454
  3.502   3.610   3.644   3.766   3.767   3.810   3.890   3.993
  4.004   4.012   4.053   4.109   4.116   4.223   4.309   4.332
  4.365   4.412   4.608   4.716   4.891   4.897   5.074   5.149
  5.365   5.423   5.461   8.127  16.748  16.974  17.137  23.061
 23.174  23.218  23.266  23.338  23.762  23.952  27.151  27.463
 27.693  27.763  27.822  28.134  30.503  30.504  30.516  30.519
 30.525  30.532  30.566  40.552  40.617  40.638  40.739  40.825
 40.840  40.847  40.850  40.927  40.947 188.655
 
 Beta MOs
 -- Occupied --
-88.527 -10.319 -10.319  -8.157  -6.174  -6.171  -6.170  -1.227
 -0.965  -0.951  -0.823  -0.793  -0.701  -0.680  -0.669
 -- Virtual --
 -0.344  -0.177  -0.122  -0.105  -0.089  -0.080  -0.047  -0.035
 -0.034  -0.026  -0.023  -0.018   0.016   0.016   0.024   0.030
  0.031   0.033   0.045   0.050   0.071   0.095   0.109   0.150
  0.152   0.178   0.204   0.207   0.231   0.265   0.275   0.307
  0.330   0.361   0.411   0.417   0.417   0.439   0.456   0.458
  0.484   0.484   0.525   0.580   0.622   0.659   0.695   0.697
  0.714   0.726   0.753   0.795   0.806   0.832   0.850   0.863
  0.891   0.916   0.993   1.020   1.039   1.058   1.076   1.076
  1.112   1.148   1.156   1.193   1.194   1.240   1.257   1.263
  1.309   1.322   1.345   1.359   1.397   1.440   1.456   1.707
  1.916   1.970   2.304   2.318   2.477   2.498   2.591   2.627
  2.643   2.681   2.714   2.774   2.840   2.848   2.881   2.915
  2.939   2.949   2.963   3.078   3.134   3.174   3.182   3.209
  3.224   3.271   3.285   3.350   3.366   3.414   3.434   3.444
  3.459   3.528   3.613   3.646   3.768   3.771   3.813   3.893
  3.997   4.012   4.016   4.057   4.112   4.118   4.229   4.316
  4.334   4.378   4.427   4.608   4.732   4.896   4.908   5.078
  5.159   5.369   5.427   5.464   8.137  16.774  16.978  17.141
 23.071  23.184  23.229  23.272  23.340  23.763  23.952  27.151
 27.463  27.692  27.764  27.823  28.133  30.508  30.508  30.520
 30.522  30.528  30.536  30.567  40.551  40.616  40.638  40.738
 40.825  40.839  40.846  40.850  40.927  40.947 188.661
 --------------------------------------------------------------
 
          Ground-State Mulliken Net Atomic Charges

     Atom                 Charge (a.u.)    Spin (a.u.)
  --------------------------------------------------------
      1 C                     0.047478      -0.021251
      2 S                     0.305047       0.960520
      3 C                     0.047864      -0.020994
      4 H                     0.149865       0.020301
      5 H                     0.149985       0.020642
      6 H                     0.149855       0.020292
      7 H                     0.149906       0.020490
  --------------------------------------------------------
  Sum of atomic charges =     1.000000
  Sum of spin   charges =     1.000000

 -----------------------------------------------------------------
                    Cartesian Multipole Moments
 -----------------------------------------------------------------
    Charge (ESU x 10^10)
                 4.8032
    Dipole Moment (Debye)
         X      -0.0005      Y       0.9857      Z       0.0012
       Tot       0.9857
    Quadrupole Moments (Debye-Ang)
        XX     -19.0453     XY       0.0004     YY     -17.5947
        XZ       0.0038     YZ      -0.0034     ZZ     -19.8450
    Octapole Moments (Debye-Ang^2)
       XXX      -0.0005    XXY       4.2063    XYY       0.0004
       YYY      -3.5606    XXZ       0.0009    XYZ      -0.0001
       YYZ       0.0037    XZZ       0.0004    YZZ       1.9360
       ZZZ       0.0011
    Hexadecapole Moments (Debye-Ang^3)
      XXXX     -73.2164   XXXY       0.0010   XXYY     -26.4742
      XYYY       0.0010   YYYY    -115.5122   XXXZ       0.0053
      XXYZ      -0.0003   XYYZ       0.0059   YYYZ      -0.0106
      XXZZ     -12.9981   XYZZ       0.0007   YYZZ     -21.6877
      XZZZ       0.0037   YZZZ      -0.0031   ZZZZ     -31.0123
 -----------------------------------------------------------------
 Total job time:  113.51s(wall), 112.70s(cpu) 
 Sun Jul  7 09:48:29 2013

        *************************************************************
        *                                                           *
        *  Thank you very much for using Q-Chem.  Have a nice day.  *
        *                                                           *
        *************************************************************


0 sent ACK to 0 
now end server 0 ... 
