Process 0 of 1 is on cl042.stfx.acenet.ca - thread support 1
initial socket setup ...start
initial socket setup ...done 
now start server 0 ... 

cmd = /usr/bin/ssh clhead /usr/local/qchem/bin/get_hostid 436443535 > /scratch/tmp/5955512.1.short.q/qchem20113/lic.dat
                  Welcome to Q-Chem
     A Quantum Leap Into The Future Of Chemistry

 Y. Shao, L. Fusti-Molnar, Y. Jung, J. Kussmann, C. Ochsenfeld,
 S. T. Brown, A. T. B. Gilbert, L. V. Slipchenko,S. V. Levchenko,
 D. P. O'Neill, R. A. DiStasio Jr., R. C. Lochan, T. Wang,
 G. J. O. Beran, N. A. Besley, J. M. Herbert, C. Y. Lin,
 T. Van Voorhis, S. H. Chien, A. Sodt, R. P. Steele, 
 V. A. Rassolov, P. E. Maslen, P. P. Korambath, R. D. Adamson,
 B. Austin, J. Baker, E. F. C. Byrd, H. Dachsel, R. J. Doerksen,
 A. Dreuw, B. D. Dunietz, A. D. Dutoi, T. R. Furlani,
 S. R. Gwaltney, A. Heyden, S. Hirata, C.-P. Hsu, G. Kedziora,
 R. Z. Khaliullin, P. Klunzinger, A. M. Lee, M. S. Lee, W. Liang,
 I. Lotan, N. Nair, B. Peters, E. I. Proynov, P. A. Pieniazek, 
 Y. M. Rhee, J. Ritchie, E. Rosta, C. D. Sherrill, 
 A. C. Simmonett, J. E. Subotnik, H. L. Woodcock III,
 W. Zhang, A. T. Bell, A. K. Chakraborty, D. M. Chipman,
 F. J. Keil, A. Warshel, W. J. Hehre, H. F. Schaefer III,
 J. Kong, A. I. Krylov, P. M. W. Gill, M. Head-Gordon,
 Q-Chem, Version 3.1, Q-Chem, Inc., Pittsburgh, PA (2007).

 Additional authors for Version 3.1: 
 Z. Gan, Y. Zhao, N. E. Schultz, D. Truhlar, E. Epifanovsky and M. Oana.

 Additional authors for Version 3.2: 
 R. Baer, B. R. Brooks, D. Casanova, J.-D. Chai, C.-L. Cheng, 
 C. Cramer, D. Crittenden, A. Ghysels, G. Hawkins, E. G. Hohenstein, 
 C. Kelley, W. Kurlancheek, D. Liotard, E. Livshits, P. Manohar, 
 A. Marenich, D. Neuhauser, R. Olson, M. A. Rohrdanz, K. S. Thanthiriwatte, 
 A. J. W. Thom, V. Vanovschi, C. F. Williams, Q. Wu and Z.-Q. You. 


 Intel X86 Linux Version

 Q-chem begins on Tue Apr 30 20:56:49 2013  

 Parallel job on  1  processors
Processing $rem in /usr/local/qchem/config/preferences.

theFileMan(): MAXOPENFILES=974 MAX_SUB_FILE_NUM=16
Maximum size of a physical file is 2.0 GB, maximum size of a tmp-file is 32.0 GB


--------------------------------------------------------------
User input:
--------------------------------------------------------------

$molecule
-1,2
F
H,1,R

 R=0.933891

$end

$comment
negative
$end

$xc_functional
C PBE   1.00
X wPBE  1.00
$end

$rem
SYMMETRY_DECOMPOSITION	0
exchange 		general
LRC_DFT                 true
BASIS                   g3large
omega			570
mem_static              760
max_scf_cycles          200
scf_final_print         1
sym_ignore              true
$end

--------------------------------------------------------------
 Writing REM_CC_EA            2
 ----------------------------------------------------
       Standard Nuclear Orientation (Angstroms)
    I     Atom         X            Y            Z
 ----------------------------------------------------
    1      F       0.000000     0.000000     0.000000
    2      H       0.000000     0.000000     0.933891
 ----------------------------------------------------
 Nuclear Repulsion Energy =     5.0997331564 hartrees
 There are        6 alpha and        5 beta electrons
 Requested basis set is G3large
 There are 16 shells and 52 basis functions

Total QAlloc Memory Limit   2000 MB
Mega-Array Size       743 MB
MEM_STATIC part       760 MB

                       Distance Matrix (Angstroms)
             F (  1)
   H (  2)  0.933891
 
 A cutoff of  1.0D-08 yielded    136 shell pairs
 There are   1462 function pairs (  1834 Cartesian)
Evaluating contribution to one-electron hamiltonian from nuclear
 Smallest overlap matrix eigenvalue = 5.47E-03
 Multipole matrices computed through 2nd order

  Scale SEOQF with 1.000000e+00/1.000000e+00/1.000000e-01

 Standard Electronic Orientation quadrupole field applied
 Guess from superposition of atomic densities
 Warning:  Energy on first SCF cycle will be non-variational
 Long-range K will be added via erf
 Coulomb attenuation parameter = 0.57 bohr**(-1)
 An unrestricted Kohn-Sham SCF calculation will be
 performed using Pulay DIIS extrapolation
 Exchange:  wPBE + LR-HF      Correlation:  PBE
 Using SG-1 standard quadrature grid
 SCF converges when DIIS error is below 1.0E-05
 Requested basis set is G3large
 There are 16 shells and 52 basis functions
 A cutoff of  1.0D-08 yielded    136 shell pairs
 There are   1462 function pairs (  1834 Cartesian)
 Warning!  Inaccurate integrated density:
   Number of electrons =    11
   Numerical integral  =     9.999998307283
   Relative error      =    -9.0909244792 %
 ---------------------------------------
  Cycle       Energy         DIIS Error
 ---------------------------------------
    1    -100.3277441746      4.41E-02
    2    -100.3578976385      1.31E-02
    3    -100.3795624138      1.24E-02
    4    -100.4060666916      1.00E-03
    5    -100.4072441853      3.33E-04
    6    -100.4075863214      1.42E-04
    7    -100.4076999982      4.97E-05
    8    -100.4077120110      1.10E-05
    9    -100.4077124029      1.39E-06 Convergence criterion met
 ---------------------------------------
 One-Electron    Energy =  -152.4337070873
 Total Coulomb   Energy =    57.8218902680
 Alpha Exchange  Energy =    -1.4939414087
 Beta  Exchange  Energy =    -1.3971935420
 DFT   Exchange  Energy =    -7.6603916676
 DFT Correlation Energy =    -0.3441021216
 Nuclear Repu.   Energy =     5.0997331563
 Nuclear Attr.   Energy =  -252.7101218646
 Kinetic         Energy =   100.2764147772
 <S^2> = 0.7501
 SCF time:  CPU 5.25 s  wall 5.82 s
 Final Alpha MO Eigenvalues
            1           2           3           4           5           6
    1 -24.3341195  -1.1869296  -0.5133322  -0.3811353  -0.3811351   0.0275456
            7           8           9          10          11
    1   0.3560556   0.4521511   0.4523931   0.4523944   0.5704998
 Final Beta MO Eigenvalues
            1           2           3           4           5           6
    1 -24.3331224  -1.1834076  -0.5092121  -0.3800801  -0.3800798   0.1979145
            7           8           9          10
    1   0.3818819   0.4605882   0.4617952   0.4618017
 Analysis of SCF Wavefunction
 
 --------------------------------------------------------------
                    Orbital Energies (a.u.)
 --------------------------------------------------------------
 
 Alpha MOs
 -- Occupied --
-24.334  -1.187  -0.513  -0.381  -0.381   0.028
 -- Virtual --
  0.356   0.452   0.452   0.452   0.570   0.789   1.042   1.042
  1.452   1.621   1.621   1.715   2.082   2.362   2.362   2.524
  2.609   2.609   3.518   4.103   4.103   4.760   6.500   6.500
  6.812   6.977   6.977   7.012   7.012   7.337   7.337   8.575
  9.400   9.400   9.575   9.575  10.247  50.390  50.436  50.509
 50.509  50.705  55.874  55.874  56.287  66.857
 
 Beta MOs
 -- Occupied --
-24.333  -1.183  -0.509  -0.380  -0.380
 -- Virtual --
  0.198   0.382   0.461   0.462   0.462   0.576   0.792   1.048
  1.048   1.454   1.621   1.621   1.719   2.082   2.362   2.362
  2.526   2.611   2.611   3.519   4.105   4.105   4.765   6.500
  6.500   6.814   6.978   6.978   7.012   7.012   7.339   7.339
  8.579   9.401   9.401   9.578   9.578  10.250  50.390  50.436
 50.510  50.510  50.707  55.874  55.874  56.289  66.858
 --------------------------------------------------------------
 
          Ground-State Mulliken Net Atomic Charges

     Atom                 Charge (a.u.)    Spin (a.u.)
  --------------------------------------------------------
      1 F                    -0.199595      -0.212301
      2 H                    -0.800405       1.212301
  --------------------------------------------------------
  Sum of atomic charges =    -1.000000
  Sum of spin   charges =     1.000000

 -----------------------------------------------------------------
                    Cartesian Multipole Moments
 -----------------------------------------------------------------
    Charge (ESU x 10^10)
                -4.8032
    Dipole Moment (Debye)
         X       0.0000      Y       0.0000      Z      -4.3042
       Tot       4.3042
    Quadrupole Moments (Debye-Ang)
        XX     -18.0696     XY       0.0000     YY     -18.0696
        XZ       0.0000     YZ       0.0000     ZZ     -22.4490
    Octapole Moments (Debye-Ang^2)
       XXX       0.0001    XXY       0.0000    XYY       0.0000
       YYY       0.0000    XXZ     -14.0562    XYZ       0.0000
       YYZ     -14.0562    XZZ       0.0000    YZZ       0.0000
       ZZZ     -46.9059
    Hexadecapole Moments (Debye-Ang^3)
      XXXX     -86.6161   XXXY       0.0000   XXYY     -28.8720
      XYYY       0.0000   YYYY     -86.6161   XXXZ       0.0000
      XXYZ       0.0000   XYYZ       0.0000   YYYZ       0.0000
      XXZZ     -42.7606   XYZZ       0.0000   YYZZ     -42.7606
      XZZZ       0.0000   YZZZ       0.0000   ZZZZ    -174.2342
 -----------------------------------------------------------------
 Total job time:  5.89s(wall), 5.32s(cpu) 
 Tue Apr 30 20:56:55 2013

        *************************************************************
        *                                                           *
        *  Thank you very much for using Q-Chem.  Have a nice day.  *
        *                                                           *
        *************************************************************


0 sent ACK to 0 
now end server 0 ... 
 
**********************************************************************
Job 2 of 3 
**********************************************************************
 
Process 0 of 1 is on cl042.stfx.acenet.ca - thread support 1
initial socket setup ...start
initial socket setup ...done 
now start server 0 ... 

cmd = /usr/bin/ssh clhead /usr/local/qchem/bin/get_hostid 1977776829 > /scratch/tmp/5955512.1.short.q/qchem20113/lic.dat
                  Welcome to Q-Chem
     A Quantum Leap Into The Future Of Chemistry

 Y. Shao, L. Fusti-Molnar, Y. Jung, J. Kussmann, C. Ochsenfeld,
 S. T. Brown, A. T. B. Gilbert, L. V. Slipchenko,S. V. Levchenko,
 D. P. O'Neill, R. A. DiStasio Jr., R. C. Lochan, T. Wang,
 G. J. O. Beran, N. A. Besley, J. M. Herbert, C. Y. Lin,
 T. Van Voorhis, S. H. Chien, A. Sodt, R. P. Steele, 
 V. A. Rassolov, P. E. Maslen, P. P. Korambath, R. D. Adamson,
 B. Austin, J. Baker, E. F. C. Byrd, H. Dachsel, R. J. Doerksen,
 A. Dreuw, B. D. Dunietz, A. D. Dutoi, T. R. Furlani,
 S. R. Gwaltney, A. Heyden, S. Hirata, C.-P. Hsu, G. Kedziora,
 R. Z. Khaliullin, P. Klunzinger, A. M. Lee, M. S. Lee, W. Liang,
 I. Lotan, N. Nair, B. Peters, E. I. Proynov, P. A. Pieniazek, 
 Y. M. Rhee, J. Ritchie, E. Rosta, C. D. Sherrill, 
 A. C. Simmonett, J. E. Subotnik, H. L. Woodcock III,
 W. Zhang, A. T. Bell, A. K. Chakraborty, D. M. Chipman,
 F. J. Keil, A. Warshel, W. J. Hehre, H. F. Schaefer III,
 J. Kong, A. I. Krylov, P. M. W. Gill, M. Head-Gordon,
 Q-Chem, Version 3.1, Q-Chem, Inc., Pittsburgh, PA (2007).

 Additional authors for Version 3.1: 
 Z. Gan, Y. Zhao, N. E. Schultz, D. Truhlar, E. Epifanovsky and M. Oana.

 Additional authors for Version 3.2: 
 R. Baer, B. R. Brooks, D. Casanova, J.-D. Chai, C.-L. Cheng, 
 C. Cramer, D. Crittenden, A. Ghysels, G. Hawkins, E. G. Hohenstein, 
 C. Kelley, W. Kurlancheek, D. Liotard, E. Livshits, P. Manohar, 
 A. Marenich, D. Neuhauser, R. Olson, M. A. Rohrdanz, K. S. Thanthiriwatte, 
 A. J. W. Thom, V. Vanovschi, C. F. Williams, Q. Wu and Z.-Q. You. 


 Intel X86 Linux Version

 Q-chem begins on Tue Apr 30 20:56:57 2013  

 Parallel job on  1  processors
Processing $rem in /usr/local/qchem/config/preferences.

theFileMan(): MAXOPENFILES=974 MAX_SUB_FILE_NUM=16
Maximum size of a physical file is 2.0 GB, maximum size of a tmp-file is 32.0 GB


--------------------------------------------------------------
User input:
--------------------------------------------------------------

$molecule
0,1
F
H,1,R

 R=0.933891

$end

$comment
neutral
$end

$xc_functional
C PBE   1.00
X wPBE  1.00
$end


$rem
SYMMETRY_DECOMPOSITION	0
LRC_DFT                 true
exchange 		general
BASIS                   g3large
omega			570
mem_static              760
max_scf_cycles          200
scf_final_print         1
sym_ignore              true
$end

--------------------------------------------------------------
 Writing REM_CC_EA            2
 ----------------------------------------------------
       Standard Nuclear Orientation (Angstroms)
    I     Atom         X            Y            Z
 ----------------------------------------------------
    1      F       0.000000     0.000000     0.000000
    2      H       0.000000     0.000000     0.933891
 ----------------------------------------------------
 Nuclear Repulsion Energy =     5.0997331564 hartrees
 There are        5 alpha and        5 beta electrons
 Requested basis set is G3large
 There are 16 shells and 52 basis functions

Total QAlloc Memory Limit   2000 MB
Mega-Array Size       743 MB
MEM_STATIC part       760 MB

                       Distance Matrix (Angstroms)
             F (  1)
   H (  2)  0.933891
 
 A cutoff of  1.0D-08 yielded    136 shell pairs
 There are   1462 function pairs (  1834 Cartesian)
Evaluating contribution to one-electron hamiltonian from nuclear
 Smallest overlap matrix eigenvalue = 5.47E-03
 Multipole matrices computed through 2nd order

  Scale SEOQF with 1.000000e+00/1.000000e+00/1.000000e-01

 Standard Electronic Orientation quadrupole field applied
 Guess from superposition of atomic densities
 Warning:  Energy on first SCF cycle will be non-variational
 Long-range K will be added via erf
 Coulomb attenuation parameter = 0.57 bohr**(-1)
 A restricted Kohn-Sham SCF calculation will be
 performed using Pulay DIIS extrapolation
 Exchange:  wPBE + LR-HF      Correlation:  PBE
 Using SG-1 standard quadrature grid
 SCF converges when DIIS error is below 1.0E-05
 Requested basis set is G3large
 There are 16 shells and 52 basis functions
 A cutoff of  1.0D-08 yielded    136 shell pairs
 There are   1462 function pairs (  1834 Cartesian)
 ---------------------------------------
  Cycle       Energy         DIIS Error
 ---------------------------------------
    1    -100.3277441746      4.41E-02
    2    -100.4077526902      1.21E-02
    3    -100.4234135821      1.01E-02
    4    -100.4398397547      7.23E-04
    5    -100.4399142677      1.46E-04
    6    -100.4399209500      2.26E-05
    7    -100.4399212826      3.27E-06 Convergence criterion met
 ---------------------------------------
 One-Electron    Energy =  -150.3642242295
 Total Coulomb   Energy =    55.6082546846
 Alpha Exchange  Energy =    -1.3986893488
 Beta  Exchange  Energy =    -1.3986893488
 DFT   Exchange  Energy =    -7.6504899647
 DFT Correlation Energy =    -0.3358162318
 Nuclear Repu.   Energy =     5.0997331563
 Nuclear Attr.   Energy =  -250.5424488524
 Kinetic         Energy =   100.1782246229
 SCF time:  CPU 3.80 s  wall 4.18 s
 Final Alpha MO Eigenvalues
            1           2           3           4           5           6
    1 -24.5480487  -1.3983903  -0.7211724  -0.5899494  -0.5899470   0.0393324
            7           8           9          10
    1   0.1916644   0.2921215   0.2921221   0.2989231
 Analysis of SCF Wavefunction
 
 --------------------------------------------------------------
                    Orbital Energies (a.u.)
 --------------------------------------------------------------
 
 Alpha MOs
 -- Occupied --
-24.548  -1.398  -0.721  -0.590  -0.590
 -- Virtual --
  0.039   0.192   0.292   0.292   0.299   0.395   0.582   0.824
  0.824   1.254   1.425   1.425   1.509   1.880   2.155   2.155
  2.304   2.400   2.400   3.304   3.874   3.874   4.538   6.292
  6.292   6.602   6.768   6.768   6.804   6.804   7.125   7.125
  8.359   9.191   9.191   9.366   9.366  10.039  50.177  50.223
 50.295  50.295  50.492  55.661  55.661  56.073  66.643
 --------------------------------------------------------------
 
          Ground-State Mulliken Net Atomic Charges

     Atom                 Charge (a.u.)
  ----------------------------------------
      1 F                    -0.359000
      2 H                     0.359000
  ----------------------------------------
  Sum of atomic charges =     0.000000

 -----------------------------------------------------------------
                    Cartesian Multipole Moments
 -----------------------------------------------------------------
    Charge (ESU x 10^10)
                 0.0000
    Dipole Moment (Debye)
         X       0.0000      Y       0.0000      Z       1.9655
       Tot       1.9655
    Quadrupole Moments (Debye-Ang)
        XX      -5.8232     XY       0.0000     YY      -5.8232
        XZ       0.0000     YZ       0.0000     ZZ      -3.2588
    Octapole Moments (Debye-Ang^2)
       XXX      -0.0001    XXY       0.0000    XYY       0.0000
       YYY      -0.0001    XXZ      -0.3637    XYZ       0.0000
       YYZ      -0.3637    XZZ       0.0000    YZZ       0.0000
       ZZZ       1.0612
    Hexadecapole Moments (Debye-Ang^3)
      XXXX      -3.9904   XXXY       0.0000   XXYY      -1.3301
      XYYY       0.0000   YYYY      -3.9904   XXXZ       0.0000
      XXYZ       0.0000   XYYZ       0.0000   YYYZ       0.0000
      XXZZ      -1.5330   XYZZ       0.0000   YYZZ      -1.5330
      XZZZ       0.0000   YZZZ       0.0000   ZZZZ      -2.8703
 -----------------------------------------------------------------
 Total job time:  4.25s(wall), 3.86s(cpu) 
 Tue Apr 30 20:57:01 2013

        *************************************************************
        *                                                           *
        *  Thank you very much for using Q-Chem.  Have a nice day.  *
        *                                                           *
        *************************************************************


0 sent ACK to 0 
now end server 0 ... 
 
**********************************************************************
Job 3 of 3 
**********************************************************************
 
Process 0 of 1 is on cl042.stfx.acenet.ca - thread support 1
initial socket setup ...start
initial socket setup ...done 
now start server 0 ... 

cmd = /usr/bin/ssh clhead /usr/local/qchem/bin/get_hostid 940283524 > /scratch/tmp/5955512.1.short.q/qchem20113/lic.dat
                  Welcome to Q-Chem
     A Quantum Leap Into The Future Of Chemistry

 Y. Shao, L. Fusti-Molnar, Y. Jung, J. Kussmann, C. Ochsenfeld,
 S. T. Brown, A. T. B. Gilbert, L. V. Slipchenko,S. V. Levchenko,
 D. P. O'Neill, R. A. DiStasio Jr., R. C. Lochan, T. Wang,
 G. J. O. Beran, N. A. Besley, J. M. Herbert, C. Y. Lin,
 T. Van Voorhis, S. H. Chien, A. Sodt, R. P. Steele, 
 V. A. Rassolov, P. E. Maslen, P. P. Korambath, R. D. Adamson,
 B. Austin, J. Baker, E. F. C. Byrd, H. Dachsel, R. J. Doerksen,
 A. Dreuw, B. D. Dunietz, A. D. Dutoi, T. R. Furlani,
 S. R. Gwaltney, A. Heyden, S. Hirata, C.-P. Hsu, G. Kedziora,
 R. Z. Khaliullin, P. Klunzinger, A. M. Lee, M. S. Lee, W. Liang,
 I. Lotan, N. Nair, B. Peters, E. I. Proynov, P. A. Pieniazek, 
 Y. M. Rhee, J. Ritchie, E. Rosta, C. D. Sherrill, 
 A. C. Simmonett, J. E. Subotnik, H. L. Woodcock III,
 W. Zhang, A. T. Bell, A. K. Chakraborty, D. M. Chipman,
 F. J. Keil, A. Warshel, W. J. Hehre, H. F. Schaefer III,
 J. Kong, A. I. Krylov, P. M. W. Gill, M. Head-Gordon,
 Q-Chem, Version 3.1, Q-Chem, Inc., Pittsburgh, PA (2007).

 Additional authors for Version 3.1: 
 Z. Gan, Y. Zhao, N. E. Schultz, D. Truhlar, E. Epifanovsky and M. Oana.

 Additional authors for Version 3.2: 
 R. Baer, B. R. Brooks, D. Casanova, J.-D. Chai, C.-L. Cheng, 
 C. Cramer, D. Crittenden, A. Ghysels, G. Hawkins, E. G. Hohenstein, 
 C. Kelley, W. Kurlancheek, D. Liotard, E. Livshits, P. Manohar, 
 A. Marenich, D. Neuhauser, R. Olson, M. A. Rohrdanz, K. S. Thanthiriwatte, 
 A. J. W. Thom, V. Vanovschi, C. F. Williams, Q. Wu and Z.-Q. You. 


 Intel X86 Linux Version

 Q-chem begins on Tue Apr 30 20:57:04 2013  

 Parallel job on  1  processors
Processing $rem in /usr/local/qchem/config/preferences.

theFileMan(): MAXOPENFILES=974 MAX_SUB_FILE_NUM=16
Maximum size of a physical file is 2.0 GB, maximum size of a tmp-file is 32.0 GB


--------------------------------------------------------------
User input:
--------------------------------------------------------------

$molecule
1,2
F
H,1,R

 R=0.933891

$end

$comment
positive
$end

$xc_functional
C PBE   1.00
X wPBE  1.00
$end

$rem
SYMMETRY_DECOMPOSITION	0
LRC_DFT                 true
exchange 		general
BASIS                   g3large
omega			570
mem_static              760
max_scf_cycles          200
scf_final_print         1
sym_ignore              true
$end

--------------------------------------------------------------
 Writing REM_CC_EA            2
 ----------------------------------------------------
       Standard Nuclear Orientation (Angstroms)
    I     Atom         X            Y            Z
 ----------------------------------------------------
    1      F       0.000000     0.000000     0.000000
    2      H       0.000000     0.000000     0.933891
 ----------------------------------------------------
 Nuclear Repulsion Energy =     5.0997331564 hartrees
 There are        5 alpha and        4 beta electrons
 Requested basis set is G3large
 There are 16 shells and 52 basis functions

Total QAlloc Memory Limit   2000 MB
Mega-Array Size       743 MB
MEM_STATIC part       760 MB

                       Distance Matrix (Angstroms)
             F (  1)
   H (  2)  0.933891
 
 A cutoff of  1.0D-08 yielded    136 shell pairs
 There are   1462 function pairs (  1834 Cartesian)
Evaluating contribution to one-electron hamiltonian from nuclear
 Smallest overlap matrix eigenvalue = 5.47E-03
 Multipole matrices computed through 2nd order

  Scale SEOQF with 1.000000e+00/1.000000e+00/1.000000e-01

 Standard Electronic Orientation quadrupole field applied
 Guess from superposition of atomic densities
 Warning:  Energy on first SCF cycle will be non-variational
 Long-range K will be added via erf
 Coulomb attenuation parameter = 0.57 bohr**(-1)
 An unrestricted Kohn-Sham SCF calculation will be
 performed using Pulay DIIS extrapolation
 Exchange:  wPBE + LR-HF      Correlation:  PBE
 Using SG-1 standard quadrature grid
 SCF converges when DIIS error is below 1.0E-05
 Requested basis set is G3large
 There are 16 shells and 52 basis functions
 A cutoff of  1.0D-08 yielded    136 shell pairs
 There are   1462 function pairs (  1834 Cartesian)
 Warning!  Inaccurate integrated density:
   Number of electrons =     9
   Numerical integral  =     9.999998307283
   Relative error      =    11.1110923031 %
 ---------------------------------------
  Cycle       Energy         DIIS Error
 ---------------------------------------
    1    -100.3277441746      4.41E-02
    2     -99.7781962983      1.47E-02
    3     -99.8292784146      8.82E-03
    4     -99.8411099874      7.98E-04
    5     -99.8413652572      2.10E-04
    6     -99.8414257411      9.56E-05
    7     -99.8414637878      6.79E-05
    8     -99.8415007671      2.15E-05
    9     -99.8415044972      2.09E-06 Convergence criterion met
 ---------------------------------------
 One-Electron    Energy =  -144.4688164690
 Total Coulomb   Energy =    49.9043809135
 Alpha Exchange  Energy =    -1.4318793206
 Beta  Exchange  Energy =    -1.1408162397
 DFT   Exchange  Energy =    -7.5103561288
 DFT Correlation Energy =    -0.2937504090
 Nuclear Repu.   Energy =     5.0997331563
 Nuclear Attr.   Energy =  -244.2346521284
 Kinetic         Energy =    99.7658356594
 <S^2> = 0.7517
 SCF time:  CPU 5.55 s  wall 6.02 s
 Final Alpha MO Eigenvalues
            1           2           3           4           5           6
    1 -25.2210658  -2.0136351  -1.2887925  -1.2696304  -1.1702666  -0.2265872
            7           8           9          10
    1  -0.0765535  -0.0148523  -0.0009914   0.0141738
 Final Beta MO Eigenvalues
            1           2           3           4           5           6
    1 -25.1908762  -1.9213429  -1.2569433  -1.1377332  -0.6056733  -0.2204874
            7           8           9
    1  -0.0738495   0.0015086   0.0052044
 Analysis of SCF Wavefunction
 
 --------------------------------------------------------------
                    Orbital Energies (a.u.)
 --------------------------------------------------------------
 
 Alpha MOs
 -- Occupied --
-25.221  -2.014  -1.289  -1.270  -1.170
 -- Virtual --
 -0.227  -0.077  -0.015  -0.001   0.014   0.108   0.237   0.439
  0.452   0.880   0.935   0.981   1.085   1.387   1.592   1.595
  1.852   1.876   1.900   2.804   3.408   3.421   4.060   5.610
  5.698   5.994   6.160   6.169   6.171   6.171   6.511   6.572
  7.792   8.504   8.505   8.682   8.765   9.429  49.471  49.513
 49.590  49.651  49.831  54.950  55.006  55.418  65.974
 
 Beta MOs
 -- Occupied --
-25.191  -1.921  -1.257  -1.138
 -- Virtual --
 -0.606  -0.220  -0.074   0.002   0.005   0.019   0.111   0.242
  0.452   0.454   0.888   0.994   1.009   1.097   1.431   1.666
  1.675   1.879   1.910   1.919   2.827   3.415   3.417   4.067
  5.729   5.761   6.048   6.218   6.226   6.262   6.266   6.584
  6.587   7.820   8.629   8.654   8.788   8.811   9.484  49.557
 49.606  49.661  49.677  49.864  55.025  55.041  55.437  66.006
 --------------------------------------------------------------
 
          Ground-State Mulliken Net Atomic Charges

     Atom                 Charge (a.u.)    Spin (a.u.)
  --------------------------------------------------------
      1 F                     0.488085       1.015791
      2 H                     0.511915      -0.015791
  --------------------------------------------------------
  Sum of atomic charges =     1.000000
  Sum of spin   charges =     1.000000

 -----------------------------------------------------------------
                    Cartesian Multipole Moments
 -----------------------------------------------------------------
    Charge (ESU x 10^10)
                 4.8032
    Dipole Moment (Debye)
         X       0.0000      Y       0.0000      Z       2.6158
       Tot       2.6158
    Quadrupole Moments (Debye-Ang)
        XX      -4.0285     XY       0.3810     YY      -4.0286
        XZ       0.0000     YZ       0.0000     ZZ      -1.4042
    Octapole Moments (Debye-Ang^2)
       XXX       0.0000    XXY       0.0000    XYY       0.0000
       YYY       0.0000    XXZ      -0.2128    XYZ       0.0133
       YYZ      -0.2128    XZZ       0.0000    YZZ       0.0000
       ZZZ       2.0999
    Hexadecapole Moments (Debye-Ang^3)
      XXXX      -1.9533   XXXY       0.1633   XXYY      -0.6511
      XYYY       0.1633   YYYY      -1.9533   XXXZ       0.0000
      XXYZ       0.0000   XYYZ       0.0000   YYYZ       0.0000
      XXZZ      -0.8310   XYZZ       0.0592   YYZZ      -0.8310
      XZZZ       0.0000   YZZZ       0.0000   ZZZZ      -0.2072
 -----------------------------------------------------------------
 Total job time:  6.09s(wall), 5.62s(cpu) 
 Tue Apr 30 20:57:10 2013

        *************************************************************
        *                                                           *
        *  Thank you very much for using Q-Chem.  Have a nice day.  *
        *                                                           *
        *************************************************************


0 sent ACK to 0 
now end server 0 ... 
