Process 0 of 1 is on cl135 - thread support 1
initial socket setup ...start
initial socket setup ...done 
now start server 0 ... 

cmd = /usr/bin/ssh clhead /usr/local/qchem/bin/get_hostid 105642844 > /tmp/1602369.1.medium.q/qchem25960/lic.dat

cmd = /usr/bin/ssh clhead /usr/local/qchem/bin/get_hostid 105642844 > /tmp/1602369.1.medium.q/qchem25960/lic.dat

cmd = /usr/bin/ssh clhead /usr/local/qchem/bin/get_hostid 105642844 > /tmp/1602369.1.medium.q/qchem25960/lic.dat

cmd = /usr/bin/ssh clhead /usr/local/qchem/bin/get_hostid 105642844 > /tmp/1602369.1.medium.q/qchem25960/lic.dat

cmd = /usr/bin/ssh clhead /usr/local/qchem/bin/get_hostid 105642844 > /tmp/1602369.1.medium.q/qchem25960/lic.dat
                  Welcome to Q-Chem
     A Quantum Leap Into The Future Of Chemistry

 Y. Shao, L. Fusti-Molnar, Y. Jung, J. Kussmann, C. Ochsenfeld,
 S. T. Brown, A. T. B. Gilbert, L. V. Slipchenko,S. V. Levchenko,
 D. P. O'Neill, R. A. DiStasio Jr., R. C. Lochan, T. Wang,
 G. J. O. Beran, N. A. Besley, J. M. Herbert, C. Y. Lin,
 T. Van Voorhis, S. H. Chien, A. Sodt, R. P. Steele, 
 V. A. Rassolov, P. E. Maslen, P. P. Korambath, R. D. Adamson,
 B. Austin, J. Baker, E. F. C. Byrd, H. Dachsel, R. J. Doerksen,
 A. Dreuw, B. D. Dunietz, A. D. Dutoi, T. R. Furlani,
 S. R. Gwaltney, A. Heyden, S. Hirata, C.-P. Hsu, G. Kedziora,
 R. Z. Khaliullin, P. Klunzinger, A. M. Lee, M. S. Lee, W. Liang,
 I. Lotan, N. Nair, B. Peters, E. I. Proynov, P. A. Pieniazek, 
 Y. M. Rhee, J. Ritchie, E. Rosta, C. D. Sherrill, 
 A. C. Simmonett, J. E. Subotnik, H. L. Woodcock III,
 W. Zhang, A. T. Bell, A. K. Chakraborty, D. M. Chipman,
 F. J. Keil, A. Warshel, W. J. Hehre, H. F. Schaefer III,
 J. Kong, A. I. Krylov, P. M. W. Gill, M. Head-Gordon,
 Q-Chem, Version 3.1, Q-Chem, Inc., Pittsburgh, PA (2007).

 Additional authors for Version 3.1: 
 Z. Gan, Y. Zhao, N. E. Schultz, D. Truhlar, E. Epifanovsky and M. Oana.

 Additional authors for Version 3.2: 
 R. Baer, B. R. Brooks, D. Casanova, J.-D. Chai, C.-L. Cheng, 
 C. Cramer, D. Crittenden, A. Ghysels, G. Hawkins, E. G. Hohenstein, 
 C. Kelley, W. Kurlancheek, D. Liotard, E. Livshits, P. Manohar, 
 A. Marenich, D. Neuhauser, R. Olson, M. A. Rohrdanz, K. S. Thanthiriwatte, 
 A. J. W. Thom, V. Vanovschi, C. F. Williams, Q. Wu and Z.-Q. You. 


 Intel X86 Linux Version

 Q-chem begins on Sun Mar 23 18:42:39 2014  

 Parallel job on  1  processors
Processing $rem in /usr/local/qchem/config/preferences.

theFileMan(): MAXOPENFILES=974 MAX_SUB_FILE_NUM=16
Maximum size of a physical file is 2.0 GB, maximum size of a tmp-file is 32.0 GB


--------------------------------------------------------------
User input:
--------------------------------------------------------------

$molecule
-1,2
C         -0.00003        0.00010        0.99991
C          1.26459        0.75942        0.98847
C          1.26447       -0.75945        0.98840
C         -1.27145        0.00003        0.25190
C         -1.25762        0.00005        1.77082
H          1.57412        1.26097        1.90079
H          1.55767        1.26188        0.07124
H          1.57397       -1.26106        1.90071
H          1.55744       -1.26192        0.07116
H         -1.57709       -0.91495       -0.24713
H         -1.57734        0.91489       -0.24721
H         -1.55434       -0.91483        2.27543
H         -1.55439        0.91487        2.27549
$end

$comment
negative
$end

$xc_functional
C PBE   1.00
X wPBE  1.00
$end

$rem
SYMMETRY_DECOMPOSITION	0
exchange 		general
LRC_DFT                 true
BASIS                   g3large
omega			290
mem_static              760
max_scf_cycles          200
scf_final_print         1
sym_ignore              true
$end

--------------------------------------------------------------
 Writing REM_CC_EA           13
 ----------------------------------------------------
       Standard Nuclear Orientation (Angstroms)
    I     Atom         X            Y            Z
 ----------------------------------------------------
    1      C      -0.000030     0.000100     0.999910
    2      C       1.264590     0.759420     0.988470
    3      C       1.264470    -0.759450     0.988400
    4      C      -1.271450     0.000030     0.251900
    5      C      -1.257620     0.000050     1.770820
    6      H       1.574120     1.260970     1.900790
    7      H       1.557670     1.261880     0.071240
    8      H       1.573970    -1.261060     1.900710
    9      H       1.557440    -1.261920     0.071160
   10      H      -1.577090    -0.914950    -0.247130
   11      H      -1.577340     0.914890    -0.247210
   12      H      -1.554340    -0.914830     2.275430
   13      H      -1.554390     0.914870     2.275490
 ----------------------------------------------------
 Nuclear Repulsion Energy =   171.0336147312 hartrees
 There are       20 alpha and       19 beta electrons
 Requested basis set is G3large
 There are 98 shells and 290 basis functions

Total QAlloc Memory Limit   2000 MB
Mega-Array Size       743 MB
MEM_STATIC part       760 MB

                       Distance Matrix (Angstroms)
             C (  1)   C (  2)   C (  3)   C (  4)   C (  5)   H (  6)
   C (  2)  1.475114
   C (  3)  1.475130  1.518870
   C (  4)  1.475137  2.747855  2.747750
   C (  5)  1.475071  2.747773  2.747719  1.518983
   H (  6)  2.208920  1.086135  2.238400  3.522226  3.102509
   H (  7)  2.209286  1.086127  2.238956  3.103035  3.522307  1.829624
   H (  8)  2.208946  2.238356  1.086146  3.522121  3.102446  2.522030
   H (  9)  2.209295  2.238981  1.086111  3.102870  3.522212  3.116536
   H ( 10)  2.208969  3.522125  3.102447  1.086110  2.238617  4.390708
   H ( 11)  2.209085  3.102844  3.522220  1.086116  2.238660  3.829540
   H ( 12)  2.209056  3.522179  3.102625  2.238676  1.086130  3.829063
   H ( 13)  2.209059  3.102778  3.522204  2.238728  1.086121  3.169820
             H (  7)   H (  8)   H (  9)   H ( 10)   H ( 11)   H ( 12)
   H (  8)  3.116481
   H (  9)  2.523800  1.829625
   H ( 10)  3.829709  3.829124  3.169696
   H ( 11)  3.170189  4.390794  3.829714  1.829840
   H ( 12)  4.391028  3.169639  3.829158  2.522663  3.116427
   H ( 13)  3.829367  3.829069  4.391010  3.116467  2.522804  1.829700

 
 A cutoff of  1.0D-08 yielded   4435 shell pairs
 There are  39245 function pairs ( 48051 Cartesian)
Evaluating contribution to one-electron hamiltonian from nuclear
 Smallest overlap matrix eigenvalue = 2.58E-05

 Q-Chem warning in module mkSTV.C, line 194:

 Overlap eigenvalue is smaller than square root of threshold

 Multipole matrices computed through 2nd order

  Scale SEOQF with 1.000000e-01/1.000000e-01/1.000000e-01

 Standard Electronic Orientation quadrupole field applied
 Nucleus-field energy     =    -0.0000000026 hartrees
 Guess from superposition of atomic densities
 Warning:  Energy on first SCF cycle will be non-variational
 Long-range K will be added via erf
 Coulomb attenuation parameter = 0.29 bohr**(-1)
 An unrestricted Kohn-Sham SCF calculation will be
 performed using Pulay DIIS extrapolation
 Exchange:  wPBE + LR-HF      Correlation:  PBE
 Using SG-1 standard quadrature grid
 SCF converges when DIIS error is below 1.0E-05
 Requested basis set is G3large
 There are 98 shells and 290 basis functions
 A cutoff of  1.0D-08 yielded   4435 shell pairs
 There are  39245 function pairs ( 48051 Cartesian)
 Warning!  Inaccurate integrated density:
   Number of electrons =    39
   Numerical integral  =    37.999765750979
   Relative error      =    -2.5647032026 %
 ---------------------------------------
  Cycle       Energy         DIIS Error
 ---------------------------------------
    1    -196.9683830865      2.89E-02
    2    -194.9286625098      3.33E-03
    3    -195.0049468690      3.25E-03
    4    -195.1184675138      3.60E-04
    5    -195.1238074518      2.14E-04
    6    -195.1256859770      6.61E-05
    7    -195.1263932591      3.00E-05
    8    -195.1267011278      2.00E-05
    9    -195.1269059332      1.63E-05
   10    -195.1270962820      1.18E-05
   11    -195.1272384127      8.59E-06 Convergence criterion met
 ---------------------------------------
 One-Electron    Energy =  -604.4763706942
 Total Coulomb   Energy =   268.3998929097
 Alpha Exchange  Energy =    -2.9275623055
 Beta  Exchange  Energy =    -2.8688727280
 DFT   Exchange  Energy =   -23.0352520171
 DFT Correlation Energy =    -1.2526883061
 Nuclear Repu.   Energy =   171.0336147286
 Nuclear Attr.   Energy =  -798.7664037917
 Kinetic         Energy =   194.2900330975
 <S^2> = 0.7501
 SCF time:  CPU 507.11 s  wall 511.04 s
 Final Alpha MO Eigenvalues
            1           2           3           4           5           6
    1  -9.9328960  -9.9244156  -9.9172619  -9.9170336  -9.9165005  -0.8554526
            7           8           9          10          11          12
    1  -0.7726344  -0.5783673  -0.5744917  -0.5149134  -0.4577874  -0.4475962
           13          14          15          16          17          18
    1  -0.4434842  -0.3377776  -0.3240540  -0.3221123  -0.2553948  -0.2541115
           19          20          21          22          23          24
    1  -0.2436716   0.0329126   0.1280413   0.1282651   0.1295752   0.1578848
           25
    1   0.1580001
 Final Beta MO Eigenvalues
            1           2           3           4           5           6
    1  -9.9329039  -9.9243274  -9.9169945  -9.9168033  -9.9162521  -0.8553539
            7           8           9          10          11          12
    1  -0.7724536  -0.5777443  -0.5737021  -0.5141577  -0.4571887  -0.4473124
           13          14          15          16          17          18
    1  -0.4429208  -0.3374306  -0.3234998  -0.3217582  -0.2551124  -0.2538665
           19          20          21          22          23          24
    1  -0.2431533   0.1256488   0.1389876   0.1407873   0.1444948   0.1594946
 Analysis of SCF Wavefunction
 
 --------------------------------------------------------------
                    Orbital Energies (a.u.)
 --------------------------------------------------------------
 
 Alpha MOs
 -- Occupied --
 -9.933  -9.924  -9.917  -9.917  -9.917  -0.855  -0.773  -0.578
 -0.574  -0.515  -0.458  -0.448  -0.443  -0.338  -0.324  -0.322
 -0.255  -0.254  -0.244   0.033
 -- Virtual --
  0.128   0.128   0.130   0.158   0.158   0.163   0.180   0.190
  0.218   0.244   0.247   0.254   0.262   0.264   0.265   0.280
  0.283   0.288   0.298   0.309   0.310   0.321   0.333   0.335
  0.339   0.340   0.352   0.353   0.368   0.410   0.413   0.416
  0.445   0.461   0.467   0.476   0.498   0.529   0.530   0.541
  0.547   0.603   0.651   0.668   0.669   0.674   0.696   0.700
  0.731   0.752   0.754   0.773   0.783   0.789   0.800   0.802
  0.817   0.818   0.834   0.844   0.854   0.857   0.861   0.878
  0.909   0.962   1.004   1.005   1.011   1.029   1.056   1.084
  1.110   1.117   1.118   1.188   1.239   1.241   1.266   1.293
  1.313   1.314   1.322   1.339   1.342   1.378   1.388   1.389
  1.445   1.447   1.502   1.507   1.511   1.532   1.555   1.558
  1.579   1.582   1.605   1.613   1.616   1.653   1.655   1.673
  1.678   1.702   1.750   1.765   1.768   1.781   1.792   1.796
  1.799   1.857   1.963   1.996   1.998   2.025   2.660   2.664
  2.744   2.783   2.812   2.814   2.834   2.846   2.878   2.878
  2.885   2.934   2.972   2.973   3.020   3.075   3.089   3.090
  3.095   3.124   3.181   3.182   3.199   3.204   3.256   3.257
  3.273   3.274   3.286   3.318   3.323   3.364   3.387   3.419
  3.420   3.440   3.469   3.535   3.535   3.545   3.577   3.579
  3.630   3.632   3.641   3.660   3.690   3.691   3.736   3.736
  3.751   3.791   3.791   3.805   3.879   3.977   4.006   4.055
  4.072   4.074   4.131   4.132   4.159   4.245   4.294   4.296
  4.298   4.300   4.331   4.334   4.422   4.447   4.455   4.456
  4.535   4.538   4.542   4.550   4.553   4.594   4.595   4.685
  4.686   4.714   4.718   4.722   4.754   4.794   4.900   4.917
  5.090   5.093   5.163   5.165   5.284   5.449   5.578   5.637
  5.640   5.679   5.788   5.794   5.798   5.831   5.941   5.944
  5.974  24.219  24.243  24.497  24.501  24.570  27.596  27.656
 27.709  27.710  28.096  28.186  28.212  28.213  28.230  28.254
 28.254  28.269  28.655  28.659  29.095  40.973  40.990  41.011
 41.074  41.081  41.085  41.087  41.125  41.128  41.132  41.246
 41.252  41.253  41.258  41.260  41.271  41.293  41.307  41.354
 41.359  41.365  41.368  41.388  41.459  41.460
 
 Beta MOs
 -- Occupied --
 -9.933  -9.924  -9.917  -9.917  -9.916  -0.855  -0.772  -0.578
 -0.574  -0.514  -0.457  -0.447  -0.443  -0.337  -0.323  -0.322
 -0.255  -0.254  -0.243
 -- Virtual --
  0.126   0.139   0.141   0.144   0.159   0.164   0.168   0.183
  0.188   0.217   0.241   0.242   0.248   0.257   0.260   0.260
  0.280   0.280   0.287   0.296   0.308   0.309   0.318   0.329
  0.331   0.333   0.334   0.348   0.350   0.366   0.408   0.413
  0.415   0.444   0.460   0.466   0.471   0.496   0.527   0.527
  0.539   0.546   0.602   0.650   0.665   0.667   0.672   0.695
  0.698   0.729   0.751   0.753   0.772   0.781   0.788   0.800
  0.801   0.816   0.816   0.833   0.843   0.852   0.855   0.859
  0.877   0.908   0.962   1.004   1.005   1.012   1.029   1.056
  1.083   1.110   1.117   1.118   1.188   1.240   1.241   1.266
  1.293   1.313   1.314   1.322   1.338   1.342   1.378   1.388
  1.389   1.445   1.447   1.502   1.507   1.510   1.532   1.554
  1.558   1.579   1.582   1.605   1.613   1.616   1.653   1.655
  1.674   1.679   1.702   1.751   1.765   1.768   1.782   1.792
  1.796   1.799   1.858   1.963   1.996   1.998   2.026   2.660
  2.664   2.744   2.783   2.812   2.814   2.834   2.846   2.878
  2.878   2.885   2.934   2.972   2.973   3.020   3.075   3.089
  3.091   3.095   3.124   3.181   3.182   3.199   3.205   3.256
  3.257   3.273   3.274   3.286   3.319   3.323   3.364   3.388
  3.419   3.420   3.440   3.469   3.535   3.536   3.545   3.577
  3.579   3.631   3.632   3.641   3.660   3.691   3.691   3.736
  3.736   3.751   3.791   3.791   3.806   3.880   3.977   4.006
  4.056   4.072   4.074   4.131   4.133   4.159   4.246   4.294
  4.296   4.298   4.300   4.331   4.334   4.422   4.447   4.455
  4.456   4.536   4.538   4.542   4.550   4.553   4.594   4.596
  4.685   4.687   4.715   4.718   4.722   4.755   4.794   4.900
  4.917   5.091   5.093   5.163   5.165   5.284   5.449   5.579
  5.638   5.640   5.679   5.788   5.795   5.799   5.832   5.941
  5.944   5.975  24.219  24.243  24.497  24.501  24.570  27.596
 27.657  27.709  27.710  28.097  28.187  28.212  28.214  28.230
 28.255  28.255  28.270  28.655  28.659  29.095  40.973  40.990
 41.011  41.074  41.081  41.085  41.087  41.125  41.128  41.132
 41.246  41.252  41.253  41.258  41.260  41.271  41.293  41.307
 41.354  41.359  41.365  41.368  41.388  41.459  41.460
 --------------------------------------------------------------
 
          Ground-State Mulliken Net Atomic Charges

     Atom                 Charge (a.u.)    Spin (a.u.)
  --------------------------------------------------------
      1 C                    -3.655758       4.239113
      2 C                     3.128852      -3.486109
      3 C                    -0.276416      -0.026171
      4 C                     1.624152      -1.950015
      5 C                     1.369562      -1.694273
      6 H                    -0.573063       0.675892
      7 H                    -0.616622       0.721457
      8 H                    -0.035579       0.108649
      9 H                    -0.050508       0.125313
     10 H                    -0.134614       0.208918
     11 H                    -0.871480       0.984961
     12 H                    -0.111127       0.183389
     13 H                    -0.797399       0.908877
  --------------------------------------------------------
  Sum of atomic charges =    -1.000000
  Sum of spin   charges =     1.000000

 -----------------------------------------------------------------
                    Cartesian Multipole Moments
 -----------------------------------------------------------------
    Charge (ESU x 10^10)
                -4.8032
    Dipole Moment (Debye)
         X       2.0213      Y      -7.0457      Z      -4.3943
       Tot       8.5462
    Quadrupole Moments (Debye-Ang)
        XX     -73.1469     XY       1.9039     YY     -65.8871
        XZ       1.8805     YZ      -6.5803     ZZ     -64.6931
    Octapole Moments (Debye-Ang^2)
       XXX      30.8509    XXY     -43.3856    XYY      13.0872
       YYY     -96.0739    XXZ     -70.5605    XYZ       1.7685
       YYZ     -63.5417    XZZ      11.4911    YZZ     -44.5767
       ZZZ    -180.1294
    Hexadecapole Moments (Debye-Ang^3)
      XXXX   -1048.7764   XXXY      10.0831   XXYY    -290.3059
      XYYY      16.8208   YYYY    -607.9318   XXXZ      29.1700
      XXYZ     -40.9542   XYYZ      12.6806   YYYZ     -91.0993
      XXZZ    -335.2502   XYZZ      10.2230   YYZZ    -262.4970
      XZZZ      30.2379   YZZZ    -116.0619   ZZZZ    -859.0220
 -----------------------------------------------------------------
 Total job time:  511.52s(wall), 507.51s(cpu) 
 Sun Mar 23 18:51:11 2014

        *************************************************************
        *                                                           *
        *  Thank you very much for using Q-Chem.  Have a nice day.  *
        *                                                           *
        *************************************************************


0 sent ACK to 0 
now end server 0 ... 
 
**********************************************************************
Job 2 of 3 
**********************************************************************
 
Process 0 of 1 is on cl135 - thread support 1
initial socket setup ...start
initial socket setup ...done 
now start server 0 ... 

cmd = /usr/bin/ssh clhead /usr/local/qchem/bin/get_hostid 275175301 > /tmp/1602369.1.medium.q/qchem25960/lic.dat

cmd = /usr/bin/ssh clhead /usr/local/qchem/bin/get_hostid 275175301 > /tmp/1602369.1.medium.q/qchem25960/lic.dat

cmd = /usr/bin/ssh clhead /usr/local/qchem/bin/get_hostid 275175301 > /tmp/1602369.1.medium.q/qchem25960/lic.dat

cmd = /usr/bin/ssh clhead /usr/local/qchem/bin/get_hostid 275175301 > /tmp/1602369.1.medium.q/qchem25960/lic.dat

cmd = /usr/bin/ssh clhead /usr/local/qchem/bin/get_hostid 275175301 > /tmp/1602369.1.medium.q/qchem25960/lic.dat
                  Welcome to Q-Chem
     A Quantum Leap Into The Future Of Chemistry

 Y. Shao, L. Fusti-Molnar, Y. Jung, J. Kussmann, C. Ochsenfeld,
 S. T. Brown, A. T. B. Gilbert, L. V. Slipchenko,S. V. Levchenko,
 D. P. O'Neill, R. A. DiStasio Jr., R. C. Lochan, T. Wang,
 G. J. O. Beran, N. A. Besley, J. M. Herbert, C. Y. Lin,
 T. Van Voorhis, S. H. Chien, A. Sodt, R. P. Steele, 
 V. A. Rassolov, P. E. Maslen, P. P. Korambath, R. D. Adamson,
 B. Austin, J. Baker, E. F. C. Byrd, H. Dachsel, R. J. Doerksen,
 A. Dreuw, B. D. Dunietz, A. D. Dutoi, T. R. Furlani,
 S. R. Gwaltney, A. Heyden, S. Hirata, C.-P. Hsu, G. Kedziora,
 R. Z. Khaliullin, P. Klunzinger, A. M. Lee, M. S. Lee, W. Liang,
 I. Lotan, N. Nair, B. Peters, E. I. Proynov, P. A. Pieniazek, 
 Y. M. Rhee, J. Ritchie, E. Rosta, C. D. Sherrill, 
 A. C. Simmonett, J. E. Subotnik, H. L. Woodcock III,
 W. Zhang, A. T. Bell, A. K. Chakraborty, D. M. Chipman,
 F. J. Keil, A. Warshel, W. J. Hehre, H. F. Schaefer III,
 J. Kong, A. I. Krylov, P. M. W. Gill, M. Head-Gordon,
 Q-Chem, Version 3.1, Q-Chem, Inc., Pittsburgh, PA (2007).

 Additional authors for Version 3.1: 
 Z. Gan, Y. Zhao, N. E. Schultz, D. Truhlar, E. Epifanovsky and M. Oana.

 Additional authors for Version 3.2: 
 R. Baer, B. R. Brooks, D. Casanova, J.-D. Chai, C.-L. Cheng, 
 C. Cramer, D. Crittenden, A. Ghysels, G. Hawkins, E. G. Hohenstein, 
 C. Kelley, W. Kurlancheek, D. Liotard, E. Livshits, P. Manohar, 
 A. Marenich, D. Neuhauser, R. Olson, M. A. Rohrdanz, K. S. Thanthiriwatte, 
 A. J. W. Thom, V. Vanovschi, C. F. Williams, Q. Wu and Z.-Q. You. 


 Intel X86 Linux Version

 Q-chem begins on Sun Mar 23 18:51:15 2014  

 Parallel job on  1  processors
Processing $rem in /usr/local/qchem/config/preferences.

theFileMan(): MAXOPENFILES=974 MAX_SUB_FILE_NUM=16
Maximum size of a physical file is 2.0 GB, maximum size of a tmp-file is 32.0 GB


--------------------------------------------------------------
User input:
--------------------------------------------------------------

$molecule
0,1
C         -0.00003        0.00010        0.99991
C          1.26459        0.75942        0.98847
C          1.26447       -0.75945        0.98840
C         -1.27145        0.00003        0.25190
C         -1.25762        0.00005        1.77082
H          1.57412        1.26097        1.90079
H          1.55767        1.26188        0.07124
H          1.57397       -1.26106        1.90071
H          1.55744       -1.26192        0.07116
H         -1.57709       -0.91495       -0.24713
H         -1.57734        0.91489       -0.24721
H         -1.55434       -0.91483        2.27543
H         -1.55439        0.91487        2.27549
$end

$comment
neutral
$end

$xc_functional
C PBE   1.00
X wPBE  1.00
$end


$rem
SYMMETRY_DECOMPOSITION	0
LRC_DFT                 true
exchange 		general
BASIS                   g3large
omega			290
mem_static              760
max_scf_cycles          200
scf_final_print         1
sym_ignore              true
$end

--------------------------------------------------------------
 Writing REM_CC_EA           13
 ----------------------------------------------------
       Standard Nuclear Orientation (Angstroms)
    I     Atom         X            Y            Z
 ----------------------------------------------------
    1      C      -0.000030     0.000100     0.999910
    2      C       1.264590     0.759420     0.988470
    3      C       1.264470    -0.759450     0.988400
    4      C      -1.271450     0.000030     0.251900
    5      C      -1.257620     0.000050     1.770820
    6      H       1.574120     1.260970     1.900790
    7      H       1.557670     1.261880     0.071240
    8      H       1.573970    -1.261060     1.900710
    9      H       1.557440    -1.261920     0.071160
   10      H      -1.577090    -0.914950    -0.247130
   11      H      -1.577340     0.914890    -0.247210
   12      H      -1.554340    -0.914830     2.275430
   13      H      -1.554390     0.914870     2.275490
 ----------------------------------------------------
 Nuclear Repulsion Energy =   171.0336147312 hartrees
 There are       19 alpha and       19 beta electrons
 Requested basis set is G3large
 There are 98 shells and 290 basis functions

Total QAlloc Memory Limit   2000 MB
Mega-Array Size       743 MB
MEM_STATIC part       760 MB

                       Distance Matrix (Angstroms)
             C (  1)   C (  2)   C (  3)   C (  4)   C (  5)   H (  6)
   C (  2)  1.475114
   C (  3)  1.475130  1.518870
   C (  4)  1.475137  2.747855  2.747750
   C (  5)  1.475071  2.747773  2.747719  1.518983
   H (  6)  2.208920  1.086135  2.238400  3.522226  3.102509
   H (  7)  2.209286  1.086127  2.238956  3.103035  3.522307  1.829624
   H (  8)  2.208946  2.238356  1.086146  3.522121  3.102446  2.522030
   H (  9)  2.209295  2.238981  1.086111  3.102870  3.522212  3.116536
   H ( 10)  2.208969  3.522125  3.102447  1.086110  2.238617  4.390708
   H ( 11)  2.209085  3.102844  3.522220  1.086116  2.238660  3.829540
   H ( 12)  2.209056  3.522179  3.102625  2.238676  1.086130  3.829063
   H ( 13)  2.209059  3.102778  3.522204  2.238728  1.086121  3.169820
             H (  7)   H (  8)   H (  9)   H ( 10)   H ( 11)   H ( 12)
   H (  8)  3.116481
   H (  9)  2.523800  1.829625
   H ( 10)  3.829709  3.829124  3.169696
   H ( 11)  3.170189  4.390794  3.829714  1.829840
   H ( 12)  4.391028  3.169639  3.829158  2.522663  3.116427
   H ( 13)  3.829367  3.829069  4.391010  3.116467  2.522804  1.829700

 
 A cutoff of  1.0D-08 yielded   4435 shell pairs
 There are  39245 function pairs ( 48051 Cartesian)
Evaluating contribution to one-electron hamiltonian from nuclear
 Smallest overlap matrix eigenvalue = 2.58E-05

 Q-Chem warning in module mkSTV.C, line 194:

 Overlap eigenvalue is smaller than square root of threshold

 Multipole matrices computed through 2nd order

  Scale SEOQF with 1.000000e-01/1.000000e-01/1.000000e-01

 Standard Electronic Orientation quadrupole field applied
 Nucleus-field energy     =    -0.0000000026 hartrees
 Guess from superposition of atomic densities
 Warning:  Energy on first SCF cycle will be non-variational
 Long-range K will be added via erf
 Coulomb attenuation parameter = 0.29 bohr**(-1)
 A restricted Kohn-Sham SCF calculation will be
 performed using Pulay DIIS extrapolation
 Exchange:  wPBE + LR-HF      Correlation:  PBE
 Using SG-1 standard quadrature grid
 SCF converges when DIIS error is below 1.0E-05
 Requested basis set is G3large
 There are 98 shells and 290 basis functions
 A cutoff of  1.0D-08 yielded   4435 shell pairs
 There are  39245 function pairs ( 48051 Cartesian)
 ---------------------------------------
  Cycle       Energy         DIIS Error
 ---------------------------------------
    1    -196.9683830865      2.89E-02
    2    -195.0750612476      2.72E-03
    3    -195.1191686276      2.12E-03
    4    -195.1631319453      2.50E-04
    5    -195.1638699044      1.26E-04
    6    -195.1640323641      2.85E-05
    7    -195.1640446524      7.16E-06 Convergence criterion met
 ---------------------------------------
 One-Electron    Energy =  -599.8799433113
 Total Coulomb   Energy =   263.6938493557
 Alpha Exchange  Energy =    -2.8697662136
 Beta  Exchange  Energy =    -2.8697662136
 DFT   Exchange  Energy =   -23.0263785641
 DFT Correlation Energy =    -1.2456544339
 Nuclear Repu.   Energy =   171.0336147286
 Nuclear Attr.   Energy =  -794.1021441627
 Kinetic         Energy =   194.2222008514
 SCF time:  CPU 241.46 s  wall 243.89 s
 Final Alpha MO Eigenvalues
            1           2           3           4           5           6
    1 -10.0547104 -10.0415289 -10.0413536 -10.0412451 -10.0410242  -0.9773288
            7           8           9          10          11          12
    1  -0.8944243  -0.6979691  -0.6979633  -0.6361881  -0.5788424  -0.5674848
           13          14          15          16          17          18
    1  -0.5674631  -0.4592273  -0.4455681  -0.4444262  -0.3765177  -0.3765065
           19          20          21          22          23          24
    1  -0.3653221   0.0408877   0.0525599   0.0525721   0.0570979   0.0758410
 Analysis of SCF Wavefunction
 
 --------------------------------------------------------------
                    Orbital Energies (a.u.)
 --------------------------------------------------------------
 
 Alpha MOs
 -- Occupied --
-10.055 -10.042 -10.041 -10.041 -10.041  -0.977  -0.894  -0.698
 -0.698  -0.636  -0.579  -0.567  -0.567  -0.459  -0.446  -0.444
 -0.377  -0.377  -0.365
 -- Virtual --
  0.041   0.053   0.053   0.057   0.076   0.076   0.081   0.097
  0.099   0.122   0.147   0.147   0.159   0.164   0.165   0.165
  0.182   0.183   0.183   0.195   0.205   0.205   0.217   0.232
  0.234   0.236   0.236   0.243   0.243   0.256   0.299   0.299
  0.301   0.330   0.349   0.349   0.367   0.383   0.418   0.418
  0.431   0.432   0.488   0.537   0.555   0.555   0.556   0.582
  0.582   0.615   0.637   0.637   0.658   0.667   0.672   0.684
  0.684   0.700   0.700   0.718   0.727   0.739   0.739   0.744
  0.757   0.793   0.842   0.884   0.884   0.891   0.907   0.935
  0.964   0.989   0.997   0.997   1.068   1.120   1.120   1.145
  1.172   1.193   1.193   1.201   1.221   1.221   1.257   1.269
  1.269   1.326   1.326   1.382   1.389   1.389   1.412   1.436
  1.436   1.459   1.463   1.485   1.492   1.498   1.535   1.535
  1.555   1.557   1.583   1.631   1.647   1.647   1.661   1.674
  1.674   1.678   1.735   1.842   1.876   1.876   1.904   2.541
  2.541   2.622   2.662   2.692   2.692   2.713   2.724   2.756
  2.756   2.764   2.813   2.851   2.851   2.898   2.953   2.968
  2.968   2.973   3.003   3.060   3.060   3.077   3.083   3.135
  3.135   3.151   3.151   3.164   3.197   3.201   3.242   3.266
  3.297   3.297   3.318   3.347   3.414   3.414   3.424   3.456
  3.456   3.509   3.510   3.519   3.538   3.569   3.569   3.614
  3.615   3.630   3.670   3.670   3.684   3.758   3.855   3.884
  3.933   3.951   3.951   4.010   4.010   4.037   4.124   4.173
  4.173   4.175   4.178   4.211   4.211   4.300   4.325   4.333
  4.334   4.413   4.418   4.419   4.430   4.430   4.473   4.473
  4.564   4.564   4.593   4.598   4.598   4.633   4.672   4.778
  4.795   4.970   4.970   5.042   5.042   5.162   5.327   5.457
  5.517   5.517   5.557   5.670   5.670   5.675   5.709   5.821
  5.821   5.853  24.097  24.121  24.376  24.376  24.447  27.473
 27.534  27.587  27.587  27.974  28.064  28.090  28.090  28.108
 28.132  28.132  28.147  28.535  28.535  28.973  40.851  40.868
 40.889  40.953  40.961  40.961  40.963  41.003  41.008  41.008
 41.125  41.131  41.131  41.136  41.136  41.148  41.171  41.184
 41.235  41.235  41.243  41.244  41.265  41.337  41.337
 --------------------------------------------------------------
 
          Ground-State Mulliken Net Atomic Charges

     Atom                 Charge (a.u.)
  ----------------------------------------
      1 C                     0.521504
      2 C                    -0.310923
      3 C                    -0.310923
      4 C                    -0.310875
      5 C                    -0.310910
      6 H                     0.090332
      7 H                     0.090285
      8 H                     0.090257
      9 H                     0.090297
     10 H                     0.090227
     11 H                     0.090263
     12 H                     0.090237
     13 H                     0.090230
  ----------------------------------------
  Sum of atomic charges =     0.000000

 -----------------------------------------------------------------
                    Cartesian Multipole Moments
 -----------------------------------------------------------------
    Charge (ESU x 10^10)
                 0.0000
    Dipole Moment (Debye)
         X       0.0002      Y      -0.0013      Z       0.0002
       Tot       0.0013
    Quadrupole Moments (Debye-Ang)
        XX     -32.8925     XY       0.0017     YY     -30.7754
        XZ       0.0195     YZ      -0.0011     ZZ     -30.7769
    Octapole Moments (Debye-Ang^2)
       XXX       0.0017    XXY       0.0020    XYY      -0.6580
       YYY       0.0009    XXZ     -32.8778    XYZ       0.0019
       YYZ     -30.7716    XZZ       0.6972    YZZ       0.0007
       ZZZ     -92.3407
    Hexadecapole Moments (Debye-Ang^3)
      XXXX    -349.4959   XXXY       0.0140   XXYY     -67.5914
      XYYY       0.0103   YYYY    -115.4402   XXXZ       1.3280
      XXYZ       0.0009   XYYZ      -0.3507   YYYZ      -0.0001
      XXZZ    -100.4664   XYZZ       0.0117   YYZZ     -63.7732
      XZZZ       2.8237   YZZZ       0.0029   ZZZZ    -300.1603
 -----------------------------------------------------------------
 Total job time:  244.33s(wall), 241.84s(cpu) 
 Sun Mar 23 18:55:19 2014

        *************************************************************
        *                                                           *
        *  Thank you very much for using Q-Chem.  Have a nice day.  *
        *                                                           *
        *************************************************************


0 sent ACK to 0 
now end server 0 ... 
 
**********************************************************************
Job 3 of 3 
**********************************************************************
 
Process 0 of 1 is on cl135 - thread support 1
initial socket setup ...start
initial socket setup ...done 
now start server 0 ... 

cmd = /usr/bin/ssh clhead /usr/local/qchem/bin/get_hostid 7875308 > /tmp/1602369.1.medium.q/qchem25960/lic.dat

cmd = /usr/bin/ssh clhead /usr/local/qchem/bin/get_hostid 7875308 > /tmp/1602369.1.medium.q/qchem25960/lic.dat

cmd = /usr/bin/ssh clhead /usr/local/qchem/bin/get_hostid 7875308 > /tmp/1602369.1.medium.q/qchem25960/lic.dat

cmd = /usr/bin/ssh clhead /usr/local/qchem/bin/get_hostid 7875308 > /tmp/1602369.1.medium.q/qchem25960/lic.dat

cmd = /usr/bin/ssh clhead /usr/local/qchem/bin/get_hostid 7875308 > /tmp/1602369.1.medium.q/qchem25960/lic.dat
                  Welcome to Q-Chem
     A Quantum Leap Into The Future Of Chemistry

 Y. Shao, L. Fusti-Molnar, Y. Jung, J. Kussmann, C. Ochsenfeld,
 S. T. Brown, A. T. B. Gilbert, L. V. Slipchenko,S. V. Levchenko,
 D. P. O'Neill, R. A. DiStasio Jr., R. C. Lochan, T. Wang,
 G. J. O. Beran, N. A. Besley, J. M. Herbert, C. Y. Lin,
 T. Van Voorhis, S. H. Chien, A. Sodt, R. P. Steele, 
 V. A. Rassolov, P. E. Maslen, P. P. Korambath, R. D. Adamson,
 B. Austin, J. Baker, E. F. C. Byrd, H. Dachsel, R. J. Doerksen,
 A. Dreuw, B. D. Dunietz, A. D. Dutoi, T. R. Furlani,
 S. R. Gwaltney, A. Heyden, S. Hirata, C.-P. Hsu, G. Kedziora,
 R. Z. Khaliullin, P. Klunzinger, A. M. Lee, M. S. Lee, W. Liang,
 I. Lotan, N. Nair, B. Peters, E. I. Proynov, P. A. Pieniazek, 
 Y. M. Rhee, J. Ritchie, E. Rosta, C. D. Sherrill, 
 A. C. Simmonett, J. E. Subotnik, H. L. Woodcock III,
 W. Zhang, A. T. Bell, A. K. Chakraborty, D. M. Chipman,
 F. J. Keil, A. Warshel, W. J. Hehre, H. F. Schaefer III,
 J. Kong, A. I. Krylov, P. M. W. Gill, M. Head-Gordon,
 Q-Chem, Version 3.1, Q-Chem, Inc., Pittsburgh, PA (2007).

 Additional authors for Version 3.1: 
 Z. Gan, Y. Zhao, N. E. Schultz, D. Truhlar, E. Epifanovsky and M. Oana.

 Additional authors for Version 3.2: 
 R. Baer, B. R. Brooks, D. Casanova, J.-D. Chai, C.-L. Cheng, 
 C. Cramer, D. Crittenden, A. Ghysels, G. Hawkins, E. G. Hohenstein, 
 C. Kelley, W. Kurlancheek, D. Liotard, E. Livshits, P. Manohar, 
 A. Marenich, D. Neuhauser, R. Olson, M. A. Rohrdanz, K. S. Thanthiriwatte, 
 A. J. W. Thom, V. Vanovschi, C. F. Williams, Q. Wu and Z.-Q. You. 


 Intel X86 Linux Version

 Q-chem begins on Sun Mar 23 18:55:23 2014  

 Parallel job on  1  processors
Processing $rem in /usr/local/qchem/config/preferences.

theFileMan(): MAXOPENFILES=974 MAX_SUB_FILE_NUM=16
Maximum size of a physical file is 2.0 GB, maximum size of a tmp-file is 32.0 GB


--------------------------------------------------------------
User input:
--------------------------------------------------------------

$molecule
1,2
C         -0.00003        0.00010        0.99991
C          1.26459        0.75942        0.98847
C          1.26447       -0.75945        0.98840
C         -1.27145        0.00003        0.25190
C         -1.25762        0.00005        1.77082
H          1.57412        1.26097        1.90079
H          1.55767        1.26188        0.07124
H          1.57397       -1.26106        1.90071
H          1.55744       -1.26192        0.07116
H         -1.57709       -0.91495       -0.24713
H         -1.57734        0.91489       -0.24721
H         -1.55434       -0.91483        2.27543
H         -1.55439        0.91487        2.27549
$end

$comment
positive
$end

$xc_functional
C PBE   1.00
X wPBE  1.00
$end

$rem
SYMMETRY_DECOMPOSITION	0
LRC_DFT                 true
exchange 		general
BASIS                   g3large
omega			290
mem_static              760
max_scf_cycles          200
scf_final_print         1
sym_ignore              true
$end

--------------------------------------------------------------
 Writing REM_CC_EA           13
 ----------------------------------------------------
       Standard Nuclear Orientation (Angstroms)
    I     Atom         X            Y            Z
 ----------------------------------------------------
    1      C      -0.000030     0.000100     0.999910
    2      C       1.264590     0.759420     0.988470
    3      C       1.264470    -0.759450     0.988400
    4      C      -1.271450     0.000030     0.251900
    5      C      -1.257620     0.000050     1.770820
    6      H       1.574120     1.260970     1.900790
    7      H       1.557670     1.261880     0.071240
    8      H       1.573970    -1.261060     1.900710
    9      H       1.557440    -1.261920     0.071160
   10      H      -1.577090    -0.914950    -0.247130
   11      H      -1.577340     0.914890    -0.247210
   12      H      -1.554340    -0.914830     2.275430
   13      H      -1.554390     0.914870     2.275490
 ----------------------------------------------------
 Nuclear Repulsion Energy =   171.0336147312 hartrees
 There are       19 alpha and       18 beta electrons
 Requested basis set is G3large
 There are 98 shells and 290 basis functions

Total QAlloc Memory Limit   2000 MB
Mega-Array Size       743 MB
MEM_STATIC part       760 MB

                       Distance Matrix (Angstroms)
             C (  1)   C (  2)   C (  3)   C (  4)   C (  5)   H (  6)
   C (  2)  1.475114
   C (  3)  1.475130  1.518870
   C (  4)  1.475137  2.747855  2.747750
   C (  5)  1.475071  2.747773  2.747719  1.518983
   H (  6)  2.208920  1.086135  2.238400  3.522226  3.102509
   H (  7)  2.209286  1.086127  2.238956  3.103035  3.522307  1.829624
   H (  8)  2.208946  2.238356  1.086146  3.522121  3.102446  2.522030
   H (  9)  2.209295  2.238981  1.086111  3.102870  3.522212  3.116536
   H ( 10)  2.208969  3.522125  3.102447  1.086110  2.238617  4.390708
   H ( 11)  2.209085  3.102844  3.522220  1.086116  2.238660  3.829540
   H ( 12)  2.209056  3.522179  3.102625  2.238676  1.086130  3.829063
   H ( 13)  2.209059  3.102778  3.522204  2.238728  1.086121  3.169820
             H (  7)   H (  8)   H (  9)   H ( 10)   H ( 11)   H ( 12)
   H (  8)  3.116481
   H (  9)  2.523800  1.829625
   H ( 10)  3.829709  3.829124  3.169696
   H ( 11)  3.170189  4.390794  3.829714  1.829840
   H ( 12)  4.391028  3.169639  3.829158  2.522663  3.116427
   H ( 13)  3.829367  3.829069  4.391010  3.116467  2.522804  1.829700

 
 A cutoff of  1.0D-08 yielded   4435 shell pairs
 There are  39245 function pairs ( 48051 Cartesian)
Evaluating contribution to one-electron hamiltonian from nuclear
 Smallest overlap matrix eigenvalue = 2.58E-05

 Q-Chem warning in module mkSTV.C, line 194:

 Overlap eigenvalue is smaller than square root of threshold

 Multipole matrices computed through 2nd order

  Scale SEOQF with 1.000000e-01/1.000000e-01/1.000000e-01

 Standard Electronic Orientation quadrupole field applied
 Nucleus-field energy     =    -0.0000000026 hartrees
 Guess from superposition of atomic densities
 Warning:  Energy on first SCF cycle will be non-variational
 Long-range K will be added via erf
 Coulomb attenuation parameter = 0.29 bohr**(-1)
 An unrestricted Kohn-Sham SCF calculation will be
 performed using Pulay DIIS extrapolation
 Exchange:  wPBE + LR-HF      Correlation:  PBE
 Using SG-1 standard quadrature grid
 SCF converges when DIIS error is below 1.0E-05
 Requested basis set is G3large
 There are 98 shells and 290 basis functions
 A cutoff of  1.0D-08 yielded   4435 shell pairs
 There are  39245 function pairs ( 48051 Cartesian)
 Warning!  Inaccurate integrated density:
   Number of electrons =    37
   Numerical integral  =    37.999765750979
   Relative error      =     2.7020695972 %
 ---------------------------------------
  Cycle       Energy         DIIS Error
 ---------------------------------------
    1    -196.9683830865      2.89E-02
    2    -194.7027022510      2.42E-03
    3    -194.7389472180      2.17E-03
    4    -194.7855552730      2.90E-04
    5    -194.7878713891      1.48E-04
    6    -194.7885859824      5.62E-05
    7    -194.7892139124      5.37E-05
    8    -194.7897204982      4.41E-05
    9    -194.7902662467      4.28E-05
   10    -194.7906607801      3.91E-05
   11    -194.7910851954      3.66E-05
   12    -194.7919135871      3.31E-05
   13    -194.7925443803      3.02E-05
   14    -194.7940453593      4.20E-05
   15    -194.7938076624      3.12E-05
   16    -194.7932440519      4.33E-04
   17    -194.7933850088      4.18E-04
   18    -194.7933717226      4.19E-04
   19    -194.7934595798      4.11E-04
   20    -194.7935122632      4.06E-04
   21    -194.7935259984      4.05E-04
   22    -194.7935596578      4.04E-04
   23    -194.7935861621      4.01E-04
   24    -194.7934117774      4.19E-04
   25    -194.7934401620      4.16E-04
   26    -194.7935642970      4.04E-04
   27    -194.7938752426      3.74E-04
   28    -194.7953200446      1.15E-04
   29    -194.7956127335      1.42E-05
   30    -194.7957235051      8.54E-05
   31    -194.7957805459      7.83E-06 Convergence criterion met
 ---------------------------------------
 One-Electron    Energy =  -590.7763925932
 Total Coulomb   Energy =   254.6344774041
 Alpha Exchange  Energy =    -2.8794380176
 Beta  Exchange  Energy =    -2.7145114955
 DFT   Exchange  Energy =   -22.8863158963
 DFT Correlation Energy =    -1.2072146759
 Nuclear Repu.   Energy =   171.0336147286
 Nuclear Attr.   Energy =  -784.8600266184
 Kinetic         Energy =   194.0836340251
 <S^2> = 0.7570
 SCF time:  CPU 1325.73 s  wall 1335.15 s
 Final Alpha MO Eigenvalues
            1           2           3           4           5           6
    1 -10.3032181 -10.2972237 -10.2956233 -10.2953928 -10.2937852  -1.2294070
            7           8           9          10          11          12
    1  -1.1494037  -0.9332128  -0.9331738  -0.8732321  -0.8131957  -0.7994835
           13          14          15          16          17          18
    1  -0.7994403  -0.7023545  -0.6842451  -0.6696987  -0.6281817  -0.6166433
           19          20          21          22          23          24
    1  -0.6163476  -0.0916534  -0.0841358  -0.0841229  -0.0751433  -0.0531347
 Final Beta MO Eigenvalues
            1           2           3           4           5           6
    1 -10.3030198 -10.2930303 -10.2916272 -10.2914204 -10.2900243  -1.2199469
            7           8           9          10          11          12
    1  -1.1339191  -0.9204999  -0.9204445  -0.8600905  -0.8068978  -0.7961798
           13          14          15          16          17          18
    1  -0.7961043  -0.6817819  -0.6671402  -0.6460401  -0.6109388  -0.6091134
           19          20          21          22          23
    1  -0.3704109  -0.0903580  -0.0807133  -0.0806993  -0.0735957
 Analysis of SCF Wavefunction
 
 --------------------------------------------------------------
                    Orbital Energies (a.u.)
 --------------------------------------------------------------
 
 Alpha MOs
 -- Occupied --
-10.303 -10.297 -10.296 -10.295 -10.294  -1.229  -1.149  -0.933
 -0.933  -0.873  -0.813  -0.799  -0.799  -0.702  -0.684  -0.670
 -0.628  -0.617  -0.616
 -- Virtual --
 -0.092  -0.084  -0.084  -0.075  -0.053  -0.053  -0.045  -0.035
 -0.030  -0.016  -0.016  -0.006   0.011   0.016   0.018   0.018
  0.034   0.034   0.042   0.046   0.056   0.056   0.071   0.072
  0.072   0.081   0.090   0.091   0.092   0.097   0.112   0.112
  0.120   0.149   0.165   0.165   0.177   0.203   0.224   0.232
  0.232   0.268   0.296   0.353   0.364   0.372   0.372   0.385
  0.386   0.419   0.440   0.440   0.449   0.463   0.481   0.483
  0.483   0.497   0.497   0.519   0.535   0.547   0.554   0.555
  0.555   0.609   0.625   0.677   0.677   0.691   0.710   0.716
  0.755   0.778   0.791   0.791   0.870   0.919   0.919   0.942
  0.958   0.979   0.990   0.990   1.017   1.017   1.060   1.060
  1.062   1.113   1.113   1.173   1.180   1.180   1.187   1.222
  1.222   1.248   1.249   1.275   1.276   1.299   1.330   1.331
  1.347   1.354   1.381   1.421   1.442   1.442   1.452   1.469
  1.469   1.471   1.521   1.608   1.650   1.650   1.686   2.305
  2.305   2.368   2.443   2.453   2.468   2.468   2.500   2.512
  2.513   2.543   2.565   2.618   2.618   2.663   2.702   2.727
  2.727   2.729   2.756   2.827   2.827   2.836   2.841   2.891
  2.891   2.910   2.911   2.911   2.965   2.976   3.001   3.031
  3.064   3.064   3.086   3.109   3.177   3.177   3.195   3.213
  3.213   3.272   3.272   3.279   3.292   3.324   3.333   3.379
  3.379   3.400   3.431   3.431   3.455   3.521   3.624   3.644
  3.687   3.722   3.722   3.770   3.770   3.800   3.890   3.943
  3.943   3.943   3.947   3.982   3.983   4.076   4.101   4.110
  4.113   4.177   4.177   4.179   4.200   4.200   4.239   4.240
  4.328   4.328   4.363   4.368   4.368   4.391   4.434   4.534
  4.558   4.727   4.727   4.806   4.806   4.933   5.088   5.225
  5.269   5.269   5.328   5.445   5.445   5.449   5.484   5.586
  5.586   5.609  23.848  23.868  24.123  24.123  24.196  27.213
 27.274  27.336  27.336  27.722  27.812  27.838  27.838  27.856
 27.878  27.879  27.895  28.283  28.283  28.723  40.600  40.610
 40.635  40.698  40.705  40.705  40.709  40.750  40.751  40.752
 40.874  40.874  40.875  40.879  40.879  40.891  40.917  40.928
 40.983  40.983  40.992  40.993  41.008  41.085  41.085
 
 Beta MOs
 -- Occupied --
-10.303 -10.293 -10.292 -10.291 -10.290  -1.220  -1.134  -0.920
 -0.920  -0.860  -0.807  -0.796  -0.796  -0.682  -0.667  -0.646
 -0.611  -0.609
 -- Virtual --
 -0.370  -0.090  -0.081  -0.081  -0.074  -0.052  -0.052  -0.044
 -0.035  -0.029  -0.006  -0.006  -0.006   0.013   0.019   0.019
  0.019   0.035   0.035   0.044   0.049   0.057   0.057   0.072
  0.079   0.079   0.084   0.092   0.092   0.093   0.098   0.118
  0.118   0.127   0.150   0.166   0.166   0.186   0.207   0.232
  0.236   0.236   0.269   0.300   0.357   0.364   0.375   0.375
  0.391   0.391   0.427   0.446   0.446   0.462   0.474   0.483
  0.488   0.488   0.498   0.498   0.525   0.539   0.552   0.558
  0.558   0.559   0.611   0.630   0.682   0.682   0.693   0.710
  0.727   0.762   0.787   0.795   0.795   0.870   0.922   0.922
  0.945   0.959   0.989   0.993   0.993   1.018   1.018   1.065
  1.068   1.068   1.121   1.121   1.178   1.184   1.185   1.197
  1.233   1.233   1.255   1.257   1.279   1.281   1.302   1.334
  1.334   1.351   1.356   1.385   1.425   1.445   1.445   1.454
  1.471   1.471   1.476   1.526   1.618   1.655   1.655   1.687
  2.315   2.315   2.388   2.445   2.471   2.472   2.482   2.507
  2.520   2.520   2.547   2.582   2.623   2.624   2.668   2.720
  2.738   2.738   2.745   2.769   2.834   2.834   2.849   2.852
  2.902   2.902   2.925   2.925   2.930   2.969   2.979   3.009
  3.036   3.073   3.073   3.088   3.117   3.189   3.189   3.200
  3.228   3.228   3.285   3.285   3.289   3.314   3.333   3.339
  3.387   3.388   3.407   3.440   3.440   3.456   3.530   3.628
  3.654   3.700   3.725   3.725   3.780   3.781   3.808   3.894
  3.947   3.947   3.950   3.951   3.988   3.988   4.081   4.107
  4.111   4.116   4.186   4.190   4.192   4.206   4.206   4.246
  4.247   4.336   4.336   4.370   4.376   4.376   4.398   4.441
  4.543   4.566   4.734   4.734   4.812   4.812   4.936   5.097
  5.226   5.283   5.284   5.333   5.447   5.447   5.452   5.486
  5.590   5.590   5.615  23.850  23.873  24.128  24.128  24.199
 27.226  27.286  27.339  27.339  27.725  27.814  27.842  27.842
 27.859  27.884  27.884  27.898  28.286  28.286  28.727  40.602
 40.618  40.639  40.704  40.711  40.712  40.714  40.755  40.758
 40.758  40.876  40.882  40.882  40.887  40.887  40.900  40.922
 40.935  40.984  40.985  40.993  40.994  41.016  41.089  41.089
 --------------------------------------------------------------
 
          Ground-State Mulliken Net Atomic Charges

     Atom                 Charge (a.u.)    Spin (a.u.)
  --------------------------------------------------------
      1 C                     0.451411      -0.065557
      2 C                    -0.172106       0.291915
      3 C                    -0.179987       0.266063
      4 C                    -0.177351       0.278533
      5 C                    -0.176148       0.277181
      6 H                     0.156925      -0.007090
      7 H                     0.156915      -0.006929
      8 H                     0.156446      -0.005027
      9 H                     0.156853      -0.004998
     10 H                     0.156499      -0.006868
     11 H                     0.157084      -0.005263
     12 H                     0.156496      -0.006793
     13 H                     0.156964      -0.005166
  --------------------------------------------------------
  Sum of atomic charges =     1.000000
  Sum of spin   charges =     1.000000

 -----------------------------------------------------------------
                    Cartesian Multipole Moments
 -----------------------------------------------------------------
    Charge (ESU x 10^10)
                 4.8032
    Dipole Moment (Debye)
         X       0.0136      Y       0.0251      Z       4.8019
       Tot       4.8020
    Quadrupole Moments (Debye-Ang)
        XX     -18.2400     XY       0.0374     YY     -23.8575
        XZ      -0.0356     YZ       0.0252     ZZ     -19.0703
    Octapole Moments (Debye-Ang^2)
       XXX       0.0312    XXY       0.0266    XYY       2.3140
       YYY      -0.0026    XXZ     -18.2814    XYZ       0.0378
       YYZ     -23.8833    XZZ      -2.3844    YZZ       0.0570
       ZZZ     -66.7425
    Hexadecapole Moments (Debye-Ang^3)
      XXXX    -274.1964   XXXY       0.2037   XXYY     -48.4620
      XYYY      -0.0115   YYYY     -91.3388   XXXZ       1.2035
      XXYZ       0.0244   XYYZ       2.5386   YYYZ      -0.0031
      XXZZ     -66.8123   XYZZ       0.0398   YYZZ     -46.7468
      XZZZ      -6.5423   YZZZ       0.1198   ZZZZ    -229.5301
 -----------------------------------------------------------------
 Total job time:  1335.59s(wall), 1326.11s(cpu) 
 Sun Mar 23 19:17:39 2014

        *************************************************************
        *                                                           *
        *  Thank you very much for using Q-Chem.  Have a nice day.  *
        *                                                           *
        *************************************************************


0 sent ACK to 0 
now end server 0 ... 
