Process 0 of 1 is on cl117.stfx.acenet.ca - thread support 1
initial socket setup ...start
initial socket setup ...done 
now start server 0 ... 

cmd = /usr/bin/ssh clhead /usr/local/qchem/bin/get_hostid 554842207 > /scratch/tmp/6061876.1.short.q/qchem32142/lic.dat
                  Welcome to Q-Chem
     A Quantum Leap Into The Future Of Chemistry

 Y. Shao, L. Fusti-Molnar, Y. Jung, J. Kussmann, C. Ochsenfeld,
 S. T. Brown, A. T. B. Gilbert, L. V. Slipchenko,S. V. Levchenko,
 D. P. O'Neill, R. A. DiStasio Jr., R. C. Lochan, T. Wang,
 G. J. O. Beran, N. A. Besley, J. M. Herbert, C. Y. Lin,
 T. Van Voorhis, S. H. Chien, A. Sodt, R. P. Steele, 
 V. A. Rassolov, P. E. Maslen, P. P. Korambath, R. D. Adamson,
 B. Austin, J. Baker, E. F. C. Byrd, H. Dachsel, R. J. Doerksen,
 A. Dreuw, B. D. Dunietz, A. D. Dutoi, T. R. Furlani,
 S. R. Gwaltney, A. Heyden, S. Hirata, C.-P. Hsu, G. Kedziora,
 R. Z. Khaliullin, P. Klunzinger, A. M. Lee, M. S. Lee, W. Liang,
 I. Lotan, N. Nair, B. Peters, E. I. Proynov, P. A. Pieniazek, 
 Y. M. Rhee, J. Ritchie, E. Rosta, C. D. Sherrill, 
 A. C. Simmonett, J. E. Subotnik, H. L. Woodcock III,
 W. Zhang, A. T. Bell, A. K. Chakraborty, D. M. Chipman,
 F. J. Keil, A. Warshel, W. J. Hehre, H. F. Schaefer III,
 J. Kong, A. I. Krylov, P. M. W. Gill, M. Head-Gordon,
 Q-Chem, Version 3.1, Q-Chem, Inc., Pittsburgh, PA (2007).

 Additional authors for Version 3.1: 
 Z. Gan, Y. Zhao, N. E. Schultz, D. Truhlar, E. Epifanovsky and M. Oana.

 Additional authors for Version 3.2: 
 R. Baer, B. R. Brooks, D. Casanova, J.-D. Chai, C.-L. Cheng, 
 C. Cramer, D. Crittenden, A. Ghysels, G. Hawkins, E. G. Hohenstein, 
 C. Kelley, W. Kurlancheek, D. Liotard, E. Livshits, P. Manohar, 
 A. Marenich, D. Neuhauser, R. Olson, M. A. Rohrdanz, K. S. Thanthiriwatte, 
 A. J. W. Thom, V. Vanovschi, C. F. Williams, Q. Wu and Z.-Q. You. 


 Intel X86 Linux Version

 Q-chem begins on Thu Jul  4 19:20:50 2013  

 Parallel job on  1  processors
Processing $rem in /usr/local/qchem/config/preferences.

theFileMan(): MAXOPENFILES=974 MAX_SUB_FILE_NUM=16
Maximum size of a physical file is 2.0 GB, maximum size of a tmp-file is 32.0 GB


--------------------------------------------------------------
User input:
--------------------------------------------------------------

$molecule
-1,2
O          0.01047        0.00000        0.02748
O          0.00895        0.00000        1.25901
O          1.09775        0.00000        1.83430
$end

$comment
negative
$end

$xc_functional
C PBE   1.00
X wPBE  1.00
$end

$rem
SYMMETRY_DECOMPOSITION	0
exchange 		general
LRC_DFT                 true
BASIS                   g3large
omega			420
mem_static              760
max_scf_cycles          200
scf_final_print         1
sym_ignore              true
$end

--------------------------------------------------------------
 Writing REM_CC_EA            3
 ----------------------------------------------------
       Standard Nuclear Orientation (Angstroms)
    I     Atom         X            Y            Z
 ----------------------------------------------------
    1      O       0.010470     0.000000     0.027480
    2      O       0.008950     0.000000     1.259010
    3      O       1.097750     0.000000     1.834300
 ----------------------------------------------------
 Nuclear Repulsion Energy =    71.0629037072 hartrees
 There are       13 alpha and       12 beta electrons
 Requested basis set is G3large
 There are 30 shells and 126 basis functions

Total QAlloc Memory Limit   2000 MB
Mega-Array Size       743 MB
MEM_STATIC part       760 MB

                       Distance Matrix (Angstroms)
             O (  1)   O (  2)
   O (  2)  1.231531
   O (  3)  2.108738  1.231440
 
 A cutoff of  1.0D-08 yielded    435 shell pairs
 There are   7848 function pairs ( 10313 Cartesian)
Evaluating contribution to one-electron hamiltonian from nuclear
 Smallest overlap matrix eigenvalue = 5.29E-04
 Multipole matrices computed through 2nd order

  Scale SEOQF with 1.000000e-01/1.000000e+00/1.000000e-01

 Standard Electronic Orientation quadrupole field applied
 Nucleus-field energy     =    -0.0000000039 hartrees
 Guess from superposition of atomic densities
 Warning:  Energy on first SCF cycle will be non-variational
 Long-range K will be added via erf
 Coulomb attenuation parameter = 0.42 bohr**(-1)
 An unrestricted Kohn-Sham SCF calculation will be
 performed using Pulay DIIS extrapolation
 Exchange:  wPBE + LR-HF      Correlation:  PBE
 Using SG-1 standard quadrature grid
 SCF converges when DIIS error is below 1.0E-05
 Requested basis set is G3large
 There are 30 shells and 126 basis functions
 A cutoff of  1.0D-08 yielded    435 shell pairs
 There are   7848 function pairs ( 10313 Cartesian)
 Warning!  Inaccurate integrated density:
   Number of electrons =    25
   Numerical integral  =    23.999879079338
   Relative error      =    -4.0004836826 %
 ---------------------------------------
  Cycle       Energy         DIIS Error
 ---------------------------------------
    1    -225.6698496743      3.83E-02
    2    -225.2875019795      9.01E-03
    3    -225.3044870196      9.60E-03
    4    -225.4142336521      1.17E-03
    5    -225.4160962720      4.00E-04
    6    -225.4165758072      2.26E-04
    7    -225.4167723538      1.12E-04
    8    -225.4168636789      4.57E-05
    9    -225.4169380928      2.57E-05
   10    -225.4169785547      8.56E-06 Convergence criterion met
 ---------------------------------------
 One-Electron    Energy =  -458.1346788128
 Total Coulomb   Energy =   187.4738018719
 Alpha Exchange  Energy =    -2.7912055126
 Beta  Exchange  Energy =    -2.5492452895
 DFT   Exchange  Energy =   -19.6275538368
 DFT Correlation Energy =    -0.8510006783
 Nuclear Repu.   Energy =    71.0629037033
 Nuclear Attr.   Energy =  -683.5619509872
 Kinetic         Energy =   225.4272721744
 <S^2> = 0.7531
 SCF time:  CPU 30.26 s  wall 30.73 s
 Final Alpha MO Eigenvalues
            1           2           3           4           5           6
    1 -18.8993452 -18.7306190 -18.7305642  -1.2033459  -0.9269654  -0.5958073
            7           8           9          10          11          12
    1  -0.4539047  -0.4193128  -0.4054971  -0.2087007  -0.1561709  -0.1449145
           13          14          15          16          17          18
    1  -0.0787493   0.3633397   0.3668881   0.3687093   0.4145419   0.4473655
 Final Beta MO Eigenvalues
            1           2           3           4           5           6
    1 -18.8861700 -18.7237200 -18.7236465  -1.1851331  -0.9132669  -0.5658161
            7           8           9          10          11          12
    1  -0.4088267  -0.3921139  -0.3920055  -0.1490562  -0.1347804  -0.1336745
           13          14          15          16          17
    1   0.2787683   0.3646775   0.3682151   0.3709469   0.4226984
 Analysis of SCF Wavefunction
 
 --------------------------------------------------------------
                    Orbital Energies (a.u.)
 --------------------------------------------------------------
 
 Alpha MOs
 -- Occupied --
-18.899 -18.731 -18.731  -1.203  -0.927  -0.596  -0.454  -0.419
 -0.405  -0.209  -0.156  -0.145  -0.079
 -- Virtual --
  0.363   0.367   0.369   0.415   0.447   0.460   0.465   0.481
  0.521   0.536   0.596   0.604   0.639   0.680   1.203   1.301
  1.304   1.328   1.339   1.362   1.395   1.400   1.450   1.549
  1.576   1.608   1.663   1.779   1.845   1.910   1.921   1.951
  1.988   2.321   2.486   2.565   2.685   2.707   2.746   2.907
  2.973   4.663   4.758   4.795   4.863   4.868   4.966   4.979
  5.110   5.158   5.237   5.269   5.271   5.296   5.323   5.392
  5.397   5.438   5.440   5.488   5.548   5.583   5.861   5.923
  6.114   6.606   6.967   6.973   7.053   7.076   7.099   7.100
  7.104   7.167   7.211   7.273   7.279   7.462   7.584   7.606
  7.655   7.794   7.862   8.286   8.446   8.750  43.857  43.867
 43.920  43.933  43.942  43.997  44.006  44.007  44.033  44.043
 44.058  44.077  44.095  44.219  44.266  45.666  45.764  45.821
 45.894  45.937  45.957  45.975  46.884  47.731  50.034  50.255
 50.258
 
 Beta MOs
 -- Occupied --
-18.886 -18.724 -18.724  -1.185  -0.913  -0.566  -0.409  -0.392
 -0.392  -0.149  -0.135  -0.134
 -- Virtual --
  0.279   0.365   0.368   0.371   0.423   0.449   0.460   0.470
  0.493   0.522   0.536   0.600   0.617   0.642   0.693   1.207
  1.306   1.327   1.332   1.342   1.369   1.416   1.427   1.454
  1.555   1.593   1.627   1.674   1.788   1.858   1.917   1.937
  1.973   2.012   2.323   2.507   2.585   2.708   2.716   2.752
  2.912   2.979   4.689   4.775   4.799   4.876   4.891   4.981
  4.992   5.123   5.206   5.245   5.300   5.301   5.310   5.344
  5.414   5.419   5.449   5.462   5.510   5.562   5.602   5.873
  5.948   6.134   6.613   7.005   7.012   7.086   7.102   7.118
  7.129   7.134   7.190   7.251   7.293   7.310   7.467   7.607
  7.635   7.685   7.800   7.874   8.294   8.457   8.759  43.889
 43.899  43.951  43.954  43.961  44.014  44.016  44.026  44.039
 44.061  44.062  44.096  44.096  44.225  44.271  45.697  45.770
 45.827  45.915  45.942  45.980  45.985  46.890  47.738  50.043
 50.262  50.269
 --------------------------------------------------------------
 
          Ground-State Mulliken Net Atomic Charges

     Atom                 Charge (a.u.)    Spin (a.u.)
  --------------------------------------------------------
      1 O                    -0.568503       0.313132
      2 O                     0.136826       0.373576
      3 O                    -0.568323       0.313292
  --------------------------------------------------------
  Sum of atomic charges =    -1.000000
  Sum of spin   charges =     1.000000

 -----------------------------------------------------------------
                    Cartesian Multipole Moments
 -----------------------------------------------------------------
    Charge (ESU x 10^10)
                -4.8032
    Dipole Moment (Debye)
         X      -2.8371      Y      -0.0003      Z      -4.3647
       Tot       5.2057
    Quadrupole Moments (Debye-Ang)
        XX     -22.7088     XY      -0.0018     YY     -18.0915
        XZ      -5.4372     YZ       0.0002     ZZ     -28.0294
    Octapole Moments (Debye-Ang^2)
       XXX     -26.6200    XXY      -0.0021    XYY      -7.5541
       YYY      -0.0011    XXZ     -25.3236    XYZ      -0.0016
       YYZ     -18.3271    XZZ     -17.9464    YZZ       0.0005
       ZZZ     -77.2036
    Hexadecapole Moments (Debye-Ang^3)
      XXXX     -71.9972   XXXY      -0.0052   XXYY     -14.6455
      XYYY      -0.0026   YYYY     -17.1538   XXXZ     -46.3972
      XXYZ      -0.0025   XYYZ     -13.8422   YYYZ      -0.0006
      XXZZ     -56.3644   XYZZ      -0.0032   YYZZ     -36.6186
      XZZZ     -60.6765   YZZZ       0.0012   ZZZZ    -243.8469
 -----------------------------------------------------------------
 Total job time:  30.87s(wall), 30.38s(cpu) 
 Thu Jul  4 19:21:20 2013

        *************************************************************
        *                                                           *
        *  Thank you very much for using Q-Chem.  Have a nice day.  *
        *                                                           *
        *************************************************************


0 sent ACK to 0 
now end server 0 ... 
 
**********************************************************************
Job 2 of 3 
**********************************************************************
 
Process 0 of 1 is on cl117.stfx.acenet.ca - thread support 1
initial socket setup ...start
initial socket setup ...done 
now start server 0 ... 

cmd = /usr/bin/ssh clhead /usr/local/qchem/bin/get_hostid 2010734512 > /scratch/tmp/6061876.1.short.q/qchem32142/lic.dat
                  Welcome to Q-Chem
     A Quantum Leap Into The Future Of Chemistry

 Y. Shao, L. Fusti-Molnar, Y. Jung, J. Kussmann, C. Ochsenfeld,
 S. T. Brown, A. T. B. Gilbert, L. V. Slipchenko,S. V. Levchenko,
 D. P. O'Neill, R. A. DiStasio Jr., R. C. Lochan, T. Wang,
 G. J. O. Beran, N. A. Besley, J. M. Herbert, C. Y. Lin,
 T. Van Voorhis, S. H. Chien, A. Sodt, R. P. Steele, 
 V. A. Rassolov, P. E. Maslen, P. P. Korambath, R. D. Adamson,
 B. Austin, J. Baker, E. F. C. Byrd, H. Dachsel, R. J. Doerksen,
 A. Dreuw, B. D. Dunietz, A. D. Dutoi, T. R. Furlani,
 S. R. Gwaltney, A. Heyden, S. Hirata, C.-P. Hsu, G. Kedziora,
 R. Z. Khaliullin, P. Klunzinger, A. M. Lee, M. S. Lee, W. Liang,
 I. Lotan, N. Nair, B. Peters, E. I. Proynov, P. A. Pieniazek, 
 Y. M. Rhee, J. Ritchie, E. Rosta, C. D. Sherrill, 
 A. C. Simmonett, J. E. Subotnik, H. L. Woodcock III,
 W. Zhang, A. T. Bell, A. K. Chakraborty, D. M. Chipman,
 F. J. Keil, A. Warshel, W. J. Hehre, H. F. Schaefer III,
 J. Kong, A. I. Krylov, P. M. W. Gill, M. Head-Gordon,
 Q-Chem, Version 3.1, Q-Chem, Inc., Pittsburgh, PA (2007).

 Additional authors for Version 3.1: 
 Z. Gan, Y. Zhao, N. E. Schultz, D. Truhlar, E. Epifanovsky and M. Oana.

 Additional authors for Version 3.2: 
 R. Baer, B. R. Brooks, D. Casanova, J.-D. Chai, C.-L. Cheng, 
 C. Cramer, D. Crittenden, A. Ghysels, G. Hawkins, E. G. Hohenstein, 
 C. Kelley, W. Kurlancheek, D. Liotard, E. Livshits, P. Manohar, 
 A. Marenich, D. Neuhauser, R. Olson, M. A. Rohrdanz, K. S. Thanthiriwatte, 
 A. J. W. Thom, V. Vanovschi, C. F. Williams, Q. Wu and Z.-Q. You. 


 Intel X86 Linux Version

 Q-chem begins on Thu Jul  4 19:21:24 2013  

 Parallel job on  1  processors
Processing $rem in /usr/local/qchem/config/preferences.

theFileMan(): MAXOPENFILES=974 MAX_SUB_FILE_NUM=16
Maximum size of a physical file is 2.0 GB, maximum size of a tmp-file is 32.0 GB


--------------------------------------------------------------
User input:
--------------------------------------------------------------

$molecule
0,1
O          0.01047        0.00000        0.02748
O          0.00895        0.00000        1.25901
O          1.09775        0.00000        1.83430
$end

$comment
neutral
$end

$xc_functional
C PBE   1.00
X wPBE  1.00
$end


$rem
SYMMETRY_DECOMPOSITION	0
LRC_DFT                 true
exchange 		general
BASIS                   g3large
omega			420
mem_static              760
max_scf_cycles          200
scf_final_print         1
sym_ignore              true
$end

--------------------------------------------------------------
 Writing REM_CC_EA            3
 ----------------------------------------------------
       Standard Nuclear Orientation (Angstroms)
    I     Atom         X            Y            Z
 ----------------------------------------------------
    1      O       0.010470     0.000000     0.027480
    2      O       0.008950     0.000000     1.259010
    3      O       1.097750     0.000000     1.834300
 ----------------------------------------------------
 Nuclear Repulsion Energy =    71.0629037072 hartrees
 There are       12 alpha and       12 beta electrons
 Requested basis set is G3large
 There are 30 shells and 126 basis functions

Total QAlloc Memory Limit   2000 MB
Mega-Array Size       743 MB
MEM_STATIC part       760 MB

                       Distance Matrix (Angstroms)
             O (  1)   O (  2)
   O (  2)  1.231531
   O (  3)  2.108738  1.231440
 
 A cutoff of  1.0D-08 yielded    435 shell pairs
 There are   7848 function pairs ( 10313 Cartesian)
Evaluating contribution to one-electron hamiltonian from nuclear
 Smallest overlap matrix eigenvalue = 5.29E-04
 Multipole matrices computed through 2nd order

  Scale SEOQF with 1.000000e-01/1.000000e+00/1.000000e-01

 Standard Electronic Orientation quadrupole field applied
 Nucleus-field energy     =    -0.0000000039 hartrees
 Guess from superposition of atomic densities
 Warning:  Energy on first SCF cycle will be non-variational
 Long-range K will be added via erf
 Coulomb attenuation parameter = 0.42 bohr**(-1)
 A restricted Kohn-Sham SCF calculation will be
 performed using Pulay DIIS extrapolation
 Exchange:  wPBE + LR-HF      Correlation:  PBE
 Using SG-1 standard quadrature grid
 SCF converges when DIIS error is below 1.0E-05
 Requested basis set is G3large
 There are 30 shells and 126 basis functions
 A cutoff of  1.0D-08 yielded    435 shell pairs
 There are   7848 function pairs ( 10313 Cartesian)
 ---------------------------------------
  Cycle       Energy         DIIS Error
 ---------------------------------------
    1    -225.6698496743      3.83E-02
    2    -225.1818781586      1.06E-02
    3    -225.0852764278      1.48E-02
    4    -225.3313384592      1.45E-03
    5    -225.3319029924      1.45E-03
    6    -225.3349474956      2.64E-04
    7    -225.3353981769      1.15E-04
    8    -225.3356227517      6.84E-05
    9    -225.3357366955      3.21E-05
   10    -225.3357647095      7.52E-06 Convergence criterion met
 ---------------------------------------
 One-Electron    Energy =  -449.7807879520
 Total Coulomb   Energy =   178.7748431883
 Alpha Exchange  Energy =    -2.5692498458
 Beta  Exchange  Energy =    -2.5692498458
 DFT   Exchange  Energy =   -19.4348957481
 DFT Correlation Energy =    -0.8193282095
 Nuclear Repu.   Energy =    71.0629037033
 Nuclear Attr.   Energy =  -674.6867693520
 Kinetic         Energy =   224.9059814000
 SCF time:  CPU 25.76 s  wall 26.22 s
 Final Alpha MO Eigenvalues
            1           2           3           4           5           6
    1 -19.2967470 -19.0922435 -19.0921669  -1.5530986  -1.2704669  -0.9195949
            7           8           9          10          11          12
    1  -0.7741548  -0.7535107  -0.7363942  -0.4887017  -0.4834151  -0.4727347
           13          14          15          16          17
    1  -0.0869753   0.1557876   0.1646552   0.1714503   0.1981374
 Analysis of SCF Wavefunction
 
 --------------------------------------------------------------
                    Orbital Energies (a.u.)
 --------------------------------------------------------------
 
 Alpha MOs
 -- Occupied --
-19.297 -19.092 -19.092  -1.553  -1.270  -0.920  -0.774  -0.754
 -0.736  -0.489  -0.483  -0.473
 -- Virtual --
 -0.087   0.156   0.165   0.171   0.198   0.224   0.256   0.265
  0.283   0.290   0.302   0.322   0.365   0.385   0.428   0.931
  1.012   1.026   1.033   1.060   1.086   1.116   1.126   1.174
  1.251   1.259   1.287   1.349   1.480   1.546   1.606   1.608
  1.642   1.685   2.004   2.164   2.250   2.369   2.379   2.441
  2.601   2.659   4.322   4.418   4.456   4.524   4.530   4.626
  4.632   4.769   4.823   4.905   4.936   4.940   4.967   4.986
  5.062   5.067   5.105   5.108   5.152   5.214   5.246   5.526
  5.583   5.774   6.262   6.621   6.631   6.717   6.745   6.756
  6.764   6.768   6.825   6.870   6.930   6.934   7.123   7.246
  7.271   7.317   7.456   7.514   7.940   8.100   8.401  43.475
 43.483  43.536  43.574  43.584  43.623  43.639  43.647  43.663
 43.684  43.685  43.718  43.734  43.854  43.897  45.288  45.383
 45.448  45.537  45.576  45.590  45.612  46.514  47.354  49.662
 49.878  49.895
 --------------------------------------------------------------
 
          Ground-State Mulliken Net Atomic Charges

     Atom                 Charge (a.u.)
  ----------------------------------------
      1 O                    -0.159982
      2 O                     0.319973
      3 O                    -0.159991
  ----------------------------------------
  Sum of atomic charges =     0.000000

 -----------------------------------------------------------------
                    Cartesian Multipole Moments
 -----------------------------------------------------------------
    Charge (ESU x 10^10)
                 0.0000
    Dipole Moment (Debye)
         X      -0.6709      Y       0.0001      Z       0.4039
       Tot       0.7831
    Quadrupole Moments (Debye-Ang)
        XX     -16.9082     XY      -0.0005     YY     -14.5747
        XZ      -1.2062     YZ       0.0000     ZZ     -16.2662
    Octapole Moments (Debye-Ang^2)
       XXX     -19.1514    XXY      -0.0004    XYY      -5.7329
       YYY      -0.0001    XXZ     -17.2338    XYZ      -0.0004
       YYZ     -14.9775    XZZ      -8.3830    YZZ       0.0000
       ZZZ     -52.4001
    Hexadecapole Moments (Debye-Ang^3)
      XXXX     -51.9339   XXXY      -0.0011   XXYY     -10.0437
      XYYY      -0.0004   YYYY     -10.3859   XXXZ     -33.0127
      XXYZ      -0.0008   XYYZ     -10.4302   YYYZ      -0.0001
      XXZZ     -37.7204   XYZZ      -0.0008   YYZZ     -27.9915
      XZZZ     -37.3597   YZZZ      -0.0001   ZZZZ    -177.5775
 -----------------------------------------------------------------
 Total job time:  26.35s(wall), 25.88s(cpu) 
 Thu Jul  4 19:21:50 2013

        *************************************************************
        *                                                           *
        *  Thank you very much for using Q-Chem.  Have a nice day.  *
        *                                                           *
        *************************************************************


0 sent ACK to 0 
now end server 0 ... 
 
**********************************************************************
Job 3 of 3 
**********************************************************************
 
Process 0 of 1 is on cl117.stfx.acenet.ca - thread support 1
initial socket setup ...start
initial socket setup ...done 
now start server 0 ... 

cmd = /usr/bin/ssh clhead /usr/local/qchem/bin/get_hostid 1483301946 > /scratch/tmp/6061876.1.short.q/qchem32142/lic.dat
                  Welcome to Q-Chem
     A Quantum Leap Into The Future Of Chemistry

 Y. Shao, L. Fusti-Molnar, Y. Jung, J. Kussmann, C. Ochsenfeld,
 S. T. Brown, A. T. B. Gilbert, L. V. Slipchenko,S. V. Levchenko,
 D. P. O'Neill, R. A. DiStasio Jr., R. C. Lochan, T. Wang,
 G. J. O. Beran, N. A. Besley, J. M. Herbert, C. Y. Lin,
 T. Van Voorhis, S. H. Chien, A. Sodt, R. P. Steele, 
 V. A. Rassolov, P. E. Maslen, P. P. Korambath, R. D. Adamson,
 B. Austin, J. Baker, E. F. C. Byrd, H. Dachsel, R. J. Doerksen,
 A. Dreuw, B. D. Dunietz, A. D. Dutoi, T. R. Furlani,
 S. R. Gwaltney, A. Heyden, S. Hirata, C.-P. Hsu, G. Kedziora,
 R. Z. Khaliullin, P. Klunzinger, A. M. Lee, M. S. Lee, W. Liang,
 I. Lotan, N. Nair, B. Peters, E. I. Proynov, P. A. Pieniazek, 
 Y. M. Rhee, J. Ritchie, E. Rosta, C. D. Sherrill, 
 A. C. Simmonett, J. E. Subotnik, H. L. Woodcock III,
 W. Zhang, A. T. Bell, A. K. Chakraborty, D. M. Chipman,
 F. J. Keil, A. Warshel, W. J. Hehre, H. F. Schaefer III,
 J. Kong, A. I. Krylov, P. M. W. Gill, M. Head-Gordon,
 Q-Chem, Version 3.1, Q-Chem, Inc., Pittsburgh, PA (2007).

 Additional authors for Version 3.1: 
 Z. Gan, Y. Zhao, N. E. Schultz, D. Truhlar, E. Epifanovsky and M. Oana.

 Additional authors for Version 3.2: 
 R. Baer, B. R. Brooks, D. Casanova, J.-D. Chai, C.-L. Cheng, 
 C. Cramer, D. Crittenden, A. Ghysels, G. Hawkins, E. G. Hohenstein, 
 C. Kelley, W. Kurlancheek, D. Liotard, E. Livshits, P. Manohar, 
 A. Marenich, D. Neuhauser, R. Olson, M. A. Rohrdanz, K. S. Thanthiriwatte, 
 A. J. W. Thom, V. Vanovschi, C. F. Williams, Q. Wu and Z.-Q. You. 


 Intel X86 Linux Version

 Q-chem begins on Thu Jul  4 19:21:53 2013  

 Parallel job on  1  processors
Processing $rem in /usr/local/qchem/config/preferences.

theFileMan(): MAXOPENFILES=974 MAX_SUB_FILE_NUM=16
Maximum size of a physical file is 2.0 GB, maximum size of a tmp-file is 32.0 GB


--------------------------------------------------------------
User input:
--------------------------------------------------------------

$molecule
1,2
O          0.01047        0.00000        0.02748
O          0.00895        0.00000        1.25901
O          1.09775        0.00000        1.83430
$end

$comment
positive
$end

$xc_functional
C PBE   1.00
X wPBE  1.00
$end

$rem
SYMMETRY_DECOMPOSITION	0
LRC_DFT                 true
exchange 		general
BASIS                   g3large
omega			420
mem_static              760
max_scf_cycles          200
scf_final_print         1
sym_ignore              true
$end

--------------------------------------------------------------
 Writing REM_CC_EA            3
 ----------------------------------------------------
       Standard Nuclear Orientation (Angstroms)
    I     Atom         X            Y            Z
 ----------------------------------------------------
    1      O       0.010470     0.000000     0.027480
    2      O       0.008950     0.000000     1.259010
    3      O       1.097750     0.000000     1.834300
 ----------------------------------------------------
 Nuclear Repulsion Energy =    71.0629037072 hartrees
 There are       12 alpha and       11 beta electrons
 Requested basis set is G3large
 There are 30 shells and 126 basis functions

Total QAlloc Memory Limit   2000 MB
Mega-Array Size       743 MB
MEM_STATIC part       760 MB

                       Distance Matrix (Angstroms)
             O (  1)   O (  2)
   O (  2)  1.231531
   O (  3)  2.108738  1.231440
 
 A cutoff of  1.0D-08 yielded    435 shell pairs
 There are   7848 function pairs ( 10313 Cartesian)
Evaluating contribution to one-electron hamiltonian from nuclear
 Smallest overlap matrix eigenvalue = 5.29E-04
 Multipole matrices computed through 2nd order

  Scale SEOQF with 1.000000e-01/1.000000e+00/1.000000e-01

 Standard Electronic Orientation quadrupole field applied
 Nucleus-field energy     =    -0.0000000039 hartrees
 Guess from superposition of atomic densities
 Warning:  Energy on first SCF cycle will be non-variational
 Long-range K will be added via erf
 Coulomb attenuation parameter = 0.42 bohr**(-1)
 An unrestricted Kohn-Sham SCF calculation will be
 performed using Pulay DIIS extrapolation
 Exchange:  wPBE + LR-HF      Correlation:  PBE
 Using SG-1 standard quadrature grid
 SCF converges when DIIS error is below 1.0E-05
 Requested basis set is G3large
 There are 30 shells and 126 basis functions
 A cutoff of  1.0D-08 yielded    435 shell pairs
 There are   7848 function pairs ( 10313 Cartesian)
 Warning!  Inaccurate integrated density:
   Number of electrons =    23
   Numerical integral  =    23.999879079338
   Relative error      =     4.3473003449 %
 ---------------------------------------
  Cycle       Energy         DIIS Error
 ---------------------------------------
    1    -225.6698496743      3.83E-02
    2    -224.5951726955      1.21E-02
    3    -224.3125519815      2.00E-02
    4    -224.8293035746      3.91E-03
    5    -224.8488711985      1.84E-03
    6    -224.8556864133      6.23E-04
    7    -224.8580513841      2.41E-04
    8    -224.8599545821      1.20E-04
    9    -224.8608421256      7.88E-05
   10    -224.8616387129      5.48E-05
   11    -224.8625846953      4.46E-05
   12    -224.8634053384      4.65E-05
   13    -224.8646501649      5.92E-05
   14    -224.8652462313      6.27E-05
   15    -224.8653407426      5.64E-05
   16    -224.8669875827      9.72E-05
   17    -224.8672062978      4.58E-05
   18    -224.8672429299      3.01E-05
   19    -224.8672565505      1.22E-05
   20    -224.8672582824      2.57E-06 Convergence criterion met
 ---------------------------------------
 One-Electron    Energy =  -440.6779324627
 Total Coulomb   Energy =   169.7731916498
 Alpha Exchange  Energy =    -2.6007043902
 Beta  Exchange  Energy =    -2.3633326591
 DFT   Exchange  Energy =   -19.2868219837
 DFT Correlation Energy =    -0.7745621397
 Nuclear Repu.   Energy =    71.0629037033
 Nuclear Attr.   Energy =  -665.2396856404
 Kinetic         Energy =   224.5617531777
 <S^2> = 1.1250
 SCF time:  CPU 61.52 s  wall 62.62 s
 Final Alpha MO Eigenvalues
            1           2           3           4           5           6
    1 -19.6502338 -19.5747350 -19.4729776  -1.9367603  -1.6625313  -1.3009217
            7           8           9          10          11          12
    1  -1.1411115  -1.1389988  -1.1055135  -0.9396595  -0.8960154  -0.8235646
           13          14          15          16          17
    1  -0.4057603  -0.1570444  -0.0777610  -0.0667425  -0.0262001
 Final Beta MO Eigenvalues
            1           2           3           4           5           6
    1 -19.6426662 -19.5416294 -19.4857174  -1.9162758  -1.6387900  -1.2601062
            7           8           9          10          11          12
    1  -1.1148770  -1.0999827  -1.0787851  -0.8692203  -0.8302238  -0.4728844
           13          14          15          16
    1  -0.4283566  -0.1330977  -0.0715433  -0.0550153
 Analysis of SCF Wavefunction
 
 --------------------------------------------------------------
                    Orbital Energies (a.u.)
 --------------------------------------------------------------
 
 Alpha MOs
 -- Occupied --
-19.650 -19.575 -19.473  -1.937  -1.663  -1.301  -1.141  -1.139
 -1.106  -0.940  -0.896  -0.824
 -- Virtual --
 -0.406  -0.157  -0.078  -0.067  -0.026  -0.023   0.004   0.052
  0.055   0.058   0.069   0.080   0.140   0.171   0.215   0.631
  0.697   0.703   0.736   0.760   0.795   0.803   0.845   0.863
  0.918   0.930   0.945   1.019   1.140   1.209   1.237   1.267
  1.310   1.362   1.638   1.809   1.913   2.026   2.035   2.103
  2.276   2.313   3.954   4.049   4.071   4.155   4.168   4.245
  4.264   4.408   4.442   4.448   4.545   4.572   4.579   4.596
  4.663   4.692   4.712   4.758   4.789   4.832   4.878   5.135
  5.219   5.400   5.861   6.195   6.247   6.252   6.366   6.370
  6.376   6.382   6.467   6.503   6.550   6.554   6.703   6.864
  6.898   6.967   7.075   7.142   7.560   7.720   8.031  43.061
 43.100  43.116  43.144  43.192  43.209  43.224  43.230  43.248
 43.278  43.290  43.310  43.333  43.418  43.520  44.902  44.984
 45.030  45.102  45.131  45.213  45.215  46.109  46.967  49.251
 49.459  49.515
 
 Beta MOs
 -- Occupied --
-19.643 -19.542 -19.486  -1.916  -1.639  -1.260  -1.115  -1.100
 -1.079  -0.869  -0.830
 -- Virtual --
 -0.473  -0.428  -0.133  -0.072  -0.055  -0.025  -0.017   0.011
  0.054   0.057   0.063   0.070   0.080   0.141   0.174   0.215
  0.645   0.713   0.727   0.740   0.773   0.804   0.812   0.841
  0.884   0.928   0.941   0.951   1.032   1.170   1.226   1.268
  1.286   1.311   1.364   1.663   1.830   1.921   2.035   2.040
  2.119   2.283   2.329   3.966   4.057   4.096   4.175   4.185
  4.258   4.282   4.422   4.476   4.541   4.562   4.583   4.604
  4.630   4.697   4.702   4.741   4.752   4.797   4.850   4.884
  5.166   5.231   5.416   5.892   6.257   6.272   6.338   6.381
  6.394   6.400   6.404   6.461   6.520   6.558   6.580   6.753
  6.895   6.909   6.971   7.096   7.155   7.574   7.736   8.042
 43.120  43.134  43.161  43.180  43.183  43.227  43.243  43.244
 43.262  43.287  43.296  43.306  43.317  43.439  43.518  44.919
 45.006  45.057  45.116  45.166  45.201  45.216  46.119  46.973
 49.266  49.475  49.513
 --------------------------------------------------------------
 
          Ground-State Mulliken Net Atomic Charges

     Atom                 Charge (a.u.)    Spin (a.u.)
  --------------------------------------------------------
      1 O                     0.407144       1.269845
      2 O                     0.423717       0.243707
      3 O                     0.169139      -0.513552
  --------------------------------------------------------
  Sum of atomic charges =     1.000000
  Sum of spin   charges =     1.000000

 -----------------------------------------------------------------
                    Cartesian Multipole Moments
 -----------------------------------------------------------------
    Charge (ESU x 10^10)
                 4.8032
    Dipole Moment (Debye)
         X       1.1934      Y       0.0000      Z       4.2875
       Tot       4.4505
    Quadrupole Moments (Debye-Ang)
        XX     -11.7618     XY      -0.0013     YY     -12.7399
        XZ       2.2713     YZ       0.0006     ZZ      -6.9919
    Octapole Moments (Debye-Ang^2)
       XXX     -13.8872    XXY      -0.0011    XYY      -4.7293
       YYY       0.0000    XXZ     -11.1368    XYZ       0.0006
       YYZ     -13.0587    XZZ      -0.7161    YZZ       0.0035
       ZZZ     -33.0701
    Hexadecapole Moments (Debye-Ang^3)
      XXXX     -39.0185   XXXY      -0.0026   XXYY      -7.7514
      XYYY      -0.0007   YYYY      -7.7735   XXXZ     -23.6117
      XXYZ      -0.0006   XYYZ      -8.5605   YYYZ       0.0004
      XXZZ     -24.2876   XYZZ       0.0030   YYZZ     -23.4943
      XZZZ     -19.7591   YZZZ       0.0108   ZZZZ    -129.4985
 -----------------------------------------------------------------
 Total job time:  62.75s(wall), 61.65s(cpu) 
 Thu Jul  4 19:22:56 2013

        *************************************************************
        *                                                           *
        *  Thank you very much for using Q-Chem.  Have a nice day.  *
        *                                                           *
        *************************************************************


0 sent ACK to 0 
now end server 0 ... 
