Process 0 of 1 is on cl142.stfx.acenet.ca - thread support 1
initial socket setup ...start
initial socket setup ...done 
now start server 0 ... 

cmd = /usr/bin/ssh clhead /usr/local/qchem/bin/get_hostid 1083212392 > /scratch/tmp/5997323.1.medium.q/qchem4754/lic.dat
                  Welcome to Q-Chem
     A Quantum Leap Into The Future Of Chemistry

 Y. Shao, L. Fusti-Molnar, Y. Jung, J. Kussmann, C. Ochsenfeld,
 S. T. Brown, A. T. B. Gilbert, L. V. Slipchenko,S. V. Levchenko,
 D. P. O'Neill, R. A. DiStasio Jr., R. C. Lochan, T. Wang,
 G. J. O. Beran, N. A. Besley, J. M. Herbert, C. Y. Lin,
 T. Van Voorhis, S. H. Chien, A. Sodt, R. P. Steele, 
 V. A. Rassolov, P. E. Maslen, P. P. Korambath, R. D. Adamson,
 B. Austin, J. Baker, E. F. C. Byrd, H. Dachsel, R. J. Doerksen,
 A. Dreuw, B. D. Dunietz, A. D. Dutoi, T. R. Furlani,
 S. R. Gwaltney, A. Heyden, S. Hirata, C.-P. Hsu, G. Kedziora,
 R. Z. Khaliullin, P. Klunzinger, A. M. Lee, M. S. Lee, W. Liang,
 I. Lotan, N. Nair, B. Peters, E. I. Proynov, P. A. Pieniazek, 
 Y. M. Rhee, J. Ritchie, E. Rosta, C. D. Sherrill, 
 A. C. Simmonett, J. E. Subotnik, H. L. Woodcock III,
 W. Zhang, A. T. Bell, A. K. Chakraborty, D. M. Chipman,
 F. J. Keil, A. Warshel, W. J. Hehre, H. F. Schaefer III,
 J. Kong, A. I. Krylov, P. M. W. Gill, M. Head-Gordon,
 Q-Chem, Version 3.1, Q-Chem, Inc., Pittsburgh, PA (2007).

 Additional authors for Version 3.1: 
 Z. Gan, Y. Zhao, N. E. Schultz, D. Truhlar, E. Epifanovsky and M. Oana.

 Additional authors for Version 3.2: 
 R. Baer, B. R. Brooks, D. Casanova, J.-D. Chai, C.-L. Cheng, 
 C. Cramer, D. Crittenden, A. Ghysels, G. Hawkins, E. G. Hohenstein, 
 C. Kelley, W. Kurlancheek, D. Liotard, E. Livshits, P. Manohar, 
 A. Marenich, D. Neuhauser, R. Olson, M. A. Rohrdanz, K. S. Thanthiriwatte, 
 A. J. W. Thom, V. Vanovschi, C. F. Williams, Q. Wu and Z.-Q. You. 


 Intel X86 Linux Version

 Q-chem begins on Wed May 22 10:52:22 2013  

 Parallel job on  1  processors
Processing $rem in /usr/local/qchem/config/preferences.

theFileMan(): MAXOPENFILES=974 MAX_SUB_FILE_NUM=16
Maximum size of a physical file is 2.0 GB, maximum size of a tmp-file is 32.0 GB


--------------------------------------------------------------
User input:
--------------------------------------------------------------

$molecule
-1,2
N          0.00000        0.00000        0.01111
H          0.00000        0.00000        1.03672
$end

$comment
negative
$end

$xc_functional
C PBE   1.00
X wPBE  1.00
$end

$rem
SYMMETRY_DECOMPOSITION	0
exchange 		general
LRC_DFT                 true
BASIS                   g3large
omega			400
mem_static              760
max_scf_cycles          200
scf_final_print         1
sym_ignore              true
$end

--------------------------------------------------------------
 Writing REM_CC_EA            2
 ----------------------------------------------------
       Standard Nuclear Orientation (Angstroms)
    I     Atom         X            Y            Z
 ----------------------------------------------------
    1      N       0.000000     0.000000     0.011110
    2      H       0.000000     0.000000     1.036720
 ----------------------------------------------------
 Nuclear Repulsion Energy =     3.6117437190 hartrees
 There are        5 alpha and        4 beta electrons
 Requested basis set is G3large
 There are 16 shells and 52 basis functions

Total QAlloc Memory Limit   2000 MB
Mega-Array Size       743 MB
MEM_STATIC part       760 MB

                       Distance Matrix (Angstroms)
             N (  1)
   H (  2)  1.025610
 
 A cutoff of  1.0D-08 yielded    136 shell pairs
 There are   1462 function pairs (  1834 Cartesian)
Evaluating contribution to one-electron hamiltonian from nuclear
 Smallest overlap matrix eigenvalue = 4.24E-03
 Multipole matrices computed through 2nd order

  Scale SEOQF with 1.000000e-01/1.000000e-01/1.000000e-01

 Standard Electronic Orientation quadrupole field applied
 Nucleus-field energy     =    -0.0000000001 hartrees
 Guess from superposition of atomic densities
 Warning:  Energy on first SCF cycle will be non-variational
 Long-range K will be added via erf
 Coulomb attenuation parameter = 0.4 bohr**(-1)
 An unrestricted Kohn-Sham SCF calculation will be
 performed using Pulay DIIS extrapolation
 Exchange:  wPBE + LR-HF      Correlation:  PBE
 Using SG-1 standard quadrature grid
 SCF converges when DIIS error is below 1.0E-05
 Requested basis set is G3large
 There are 16 shells and 52 basis functions
 A cutoff of  1.0D-08 yielded    136 shell pairs
 There are   1462 function pairs (  1834 Cartesian)
 Warning!  Inaccurate integrated density:
   Number of electrons =     9
   Numerical integral  =     7.999998383451
   Relative error      =   -11.1111290728 %
 ---------------------------------------
  Cycle       Energy         DIIS Error
 ---------------------------------------
    1     -54.9050267737      3.15E-02
    2     -55.0992543742      1.57E-02
    3     -55.1686928040      1.15E-02
    4     -55.2085583135      1.10E-03
    5     -55.2091060821      3.18E-04
    6     -55.2092153036      7.07E-05
    7     -55.2092345430      2.23E-05
    8     -55.2092386617      6.08E-06 Convergence criterion met
 ---------------------------------------
 One-Electron    Energy =   -84.6396684005
 Total Coulomb   Energy =    33.1677203642
 Alpha Exchange  Energy =    -0.9726329033
 Beta  Exchange  Energy =    -0.7762318676
 DFT   Exchange  Energy =    -5.3398790798
 DFT Correlation Energy =    -0.2602904935
 Nuclear Repu.   Energy =     3.6117437188
 Nuclear Attr.   Energy =  -139.7166102734
 Kinetic         Energy =    55.0769418729
 <S^2> = 0.7544
 SCF time:  CPU 4.37 s  wall 4.76 s
 Final Alpha MO Eigenvalues
            1           2           3           4           5           6
    1 -13.8852601  -0.6028200  -0.1772094  -0.1046177  -0.0466708   0.2034841
            7           8           9          10
    1   0.3739306   0.3815019   0.3975435   0.4383742
 Final Beta MO Eigenvalues
            1           2           3           4           5           6
    1 -13.8686889  -0.5472053  -0.1551090  -0.0247771   0.2043396   0.2847758
            7           8           9
    1   0.3762416   0.4031909   0.4418339
 Analysis of SCF Wavefunction
 
 --------------------------------------------------------------
                    Orbital Energies (a.u.)
 --------------------------------------------------------------
 
 Alpha MOs
 -- Occupied --
-13.885  -0.603  -0.177  -0.105  -0.047
 -- Virtual --
  0.203   0.374   0.382   0.398   0.438   0.476   0.885   1.037
  1.045   1.062   1.150   1.188   1.398   1.434   1.439   1.657
  1.742   1.772   2.156   2.821   3.688   3.711   3.983   3.984
  3.996   3.997   4.098   4.144   4.152   4.402   4.838   4.865
  5.142   5.143   5.289   5.336   5.584   6.416  35.578  37.559
 37.585  38.237  40.758  40.871  40.903  40.921  40.928
 
 Beta MOs
 -- Occupied --
-13.869  -0.547  -0.155  -0.025
 -- Virtual --
  0.204   0.285   0.376   0.403   0.442   0.447   0.481   0.895
  1.049   1.064   1.074   1.202   1.219   1.433   1.487   1.495
  1.673   1.778   1.784   2.172   2.827   3.713   3.714   4.026
  4.031   4.064   4.066   4.156   4.170   4.191   4.432   4.868
  4.871   5.225   5.238   5.352   5.371   5.612   6.430  35.597
 37.595  37.607  38.247  40.799  40.909  40.933  40.936  40.941
 --------------------------------------------------------------
 
          Ground-State Mulliken Net Atomic Charges

     Atom                 Charge (a.u.)    Spin (a.u.)
  --------------------------------------------------------
      1 N                    -1.067418       1.023246
      2 H                     0.067418      -0.023246
  --------------------------------------------------------
  Sum of atomic charges =    -1.000000
  Sum of spin   charges =     1.000000

 -----------------------------------------------------------------
                    Cartesian Multipole Moments
 -----------------------------------------------------------------
    Charge (ESU x 10^10)
                -4.8032
    Dipole Moment (Debye)
         X       0.0000      Y       0.0000      Z       1.0866
       Tot       1.0866
    Quadrupole Moments (Debye-Ang)
        XX      -9.9236     XY       0.0002     YY     -13.2235
        XZ       0.0000     YZ       0.0000     ZZ      -9.6388
    Octapole Moments (Debye-Ang^2)
       XXX       0.0000    XXY       0.0000    XYY       0.0000
       YYY       0.0000    XXZ      -0.5947    XYZ       0.0000
       YYZ      -0.7239    XZZ       0.0000    YZZ       0.0000
       ZZZ      -1.7107
    Hexadecapole Moments (Debye-Ang^3)
      XXXX     -15.9759   XXXY       0.0005   XXYY      -7.6114
      XYYY       0.0005   YYYY     -29.6956   XXXZ       0.0000
      XXYZ       0.0000   XYYZ       0.0000   YYYZ       0.0000
      XXZZ      -6.3034   XYZZ       0.0002   YYZZ      -8.6473
      XZZZ       0.0000   YZZZ       0.0000   ZZZZ     -21.2479
 -----------------------------------------------------------------
 Total job time:  4.83s(wall), 4.43s(cpu) 
 Wed May 22 10:52:27 2013

        *************************************************************
        *                                                           *
        *  Thank you very much for using Q-Chem.  Have a nice day.  *
        *                                                           *
        *************************************************************


0 sent ACK to 0 
now end server 0 ... 
 
**********************************************************************
Job 2 of 3 
**********************************************************************
 
Process 0 of 1 is on cl142.stfx.acenet.ca - thread support 1
initial socket setup ...start
initial socket setup ...done 
now start server 0 ... 

cmd = /usr/bin/ssh clhead /usr/local/qchem/bin/get_hostid 1865449714 > /scratch/tmp/5997323.1.medium.q/qchem4754/lic.dat
                  Welcome to Q-Chem
     A Quantum Leap Into The Future Of Chemistry

 Y. Shao, L. Fusti-Molnar, Y. Jung, J. Kussmann, C. Ochsenfeld,
 S. T. Brown, A. T. B. Gilbert, L. V. Slipchenko,S. V. Levchenko,
 D. P. O'Neill, R. A. DiStasio Jr., R. C. Lochan, T. Wang,
 G. J. O. Beran, N. A. Besley, J. M. Herbert, C. Y. Lin,
 T. Van Voorhis, S. H. Chien, A. Sodt, R. P. Steele, 
 V. A. Rassolov, P. E. Maslen, P. P. Korambath, R. D. Adamson,
 B. Austin, J. Baker, E. F. C. Byrd, H. Dachsel, R. J. Doerksen,
 A. Dreuw, B. D. Dunietz, A. D. Dutoi, T. R. Furlani,
 S. R. Gwaltney, A. Heyden, S. Hirata, C.-P. Hsu, G. Kedziora,
 R. Z. Khaliullin, P. Klunzinger, A. M. Lee, M. S. Lee, W. Liang,
 I. Lotan, N. Nair, B. Peters, E. I. Proynov, P. A. Pieniazek, 
 Y. M. Rhee, J. Ritchie, E. Rosta, C. D. Sherrill, 
 A. C. Simmonett, J. E. Subotnik, H. L. Woodcock III,
 W. Zhang, A. T. Bell, A. K. Chakraborty, D. M. Chipman,
 F. J. Keil, A. Warshel, W. J. Hehre, H. F. Schaefer III,
 J. Kong, A. I. Krylov, P. M. W. Gill, M. Head-Gordon,
 Q-Chem, Version 3.1, Q-Chem, Inc., Pittsburgh, PA (2007).

 Additional authors for Version 3.1: 
 Z. Gan, Y. Zhao, N. E. Schultz, D. Truhlar, E. Epifanovsky and M. Oana.

 Additional authors for Version 3.2: 
 R. Baer, B. R. Brooks, D. Casanova, J.-D. Chai, C.-L. Cheng, 
 C. Cramer, D. Crittenden, A. Ghysels, G. Hawkins, E. G. Hohenstein, 
 C. Kelley, W. Kurlancheek, D. Liotard, E. Livshits, P. Manohar, 
 A. Marenich, D. Neuhauser, R. Olson, M. A. Rohrdanz, K. S. Thanthiriwatte, 
 A. J. W. Thom, V. Vanovschi, C. F. Williams, Q. Wu and Z.-Q. You. 


 Intel X86 Linux Version

 Q-chem begins on Wed May 22 10:52:30 2013  

 Parallel job on  1  processors
Processing $rem in /usr/local/qchem/config/preferences.

theFileMan(): MAXOPENFILES=974 MAX_SUB_FILE_NUM=16
Maximum size of a physical file is 2.0 GB, maximum size of a tmp-file is 32.0 GB


--------------------------------------------------------------
User input:
--------------------------------------------------------------

$molecule
0,3
N          0.00000        0.00000        0.01111
H          0.00000        0.00000        1.03672
$end

$comment
neutral
$end

$xc_functional
C PBE   1.00
X wPBE  1.00
$end


$rem
SYMMETRY_DECOMPOSITION	0
LRC_DFT                 true
exchange 		general
BASIS                   g3large
omega			400
mem_static              760
max_scf_cycles          200
scf_final_print         1
sym_ignore              true
$end

--------------------------------------------------------------
 Writing REM_CC_EA            2
 ----------------------------------------------------
       Standard Nuclear Orientation (Angstroms)
    I     Atom         X            Y            Z
 ----------------------------------------------------
    1      N       0.000000     0.000000     0.011110
    2      H       0.000000     0.000000     1.036720
 ----------------------------------------------------
 Nuclear Repulsion Energy =     3.6117437190 hartrees
 There are        5 alpha and        3 beta electrons
 Requested basis set is G3large
 There are 16 shells and 52 basis functions

Total QAlloc Memory Limit   2000 MB
Mega-Array Size       743 MB
MEM_STATIC part       760 MB

                       Distance Matrix (Angstroms)
             N (  1)
   H (  2)  1.025610
 
 A cutoff of  1.0D-08 yielded    136 shell pairs
 There are   1462 function pairs (  1834 Cartesian)
Evaluating contribution to one-electron hamiltonian from nuclear
 Smallest overlap matrix eigenvalue = 4.24E-03
 Multipole matrices computed through 2nd order

  Scale SEOQF with 1.000000e-01/1.000000e-01/1.000000e-01

 Standard Electronic Orientation quadrupole field applied
 Nucleus-field energy     =    -0.0000000001 hartrees
 Guess from superposition of atomic densities
 Warning:  Energy on first SCF cycle will be non-variational
 Long-range K will be added via erf
 Coulomb attenuation parameter = 0.4 bohr**(-1)
 An unrestricted Kohn-Sham SCF calculation will be
 performed using Pulay DIIS extrapolation
 Exchange:  wPBE + LR-HF      Correlation:  PBE
 Using SG-1 standard quadrature grid
 SCF converges when DIIS error is below 1.0E-05
 Requested basis set is G3large
 There are 16 shells and 52 basis functions
 A cutoff of  1.0D-08 yielded    136 shell pairs
 There are   1462 function pairs (  1834 Cartesian)
 ---------------------------------------
  Cycle       Energy         DIIS Error
 ---------------------------------------
    1     -54.9050267737      3.15E-02
    2     -55.1894131533      3.84E-03
    3     -55.1983866097      1.11E-03
    4     -55.1989088458      1.94E-04
    5     -55.1990282006      5.60E-05
    6     -55.1990397046      1.79E-05
    7     -55.1990407520      4.76E-06 Convergence criterion met
 ---------------------------------------
 One-Electron    Energy =   -81.7112140210
 Total Coulomb   Energy =    30.0508567242
 Alpha Exchange  Energy =    -1.0066221664
 Beta  Exchange  Energy =    -0.6058317952
 DFT   Exchange  Energy =    -5.3125372811
 DFT Correlation Energy =    -0.2254359313
 Nuclear Repu.   Energy =     3.6117437188
 Nuclear Attr.   Energy =  -136.7894954527
 Kinetic         Energy =    55.0782814317
 <S^2> = 2.0052
 SCF time:  CPU 3.89 s  wall 4.34 s
 Final Alpha MO Eigenvalues
            1           2           3           4           5           6
    1 -14.2765045  -0.9898607  -0.5329337  -0.4706538  -0.4706536   0.0409103
            7           8           9          10
    1   0.1698369   0.1698372   0.1735390   0.2209381
 Final Beta MO Eigenvalues
            1           2           3           4           5           6
    1 -14.2398746  -0.8718264  -0.4868601  -0.0010377  -0.0010372   0.0442929
            7           8
    1   0.1780235   0.2010341
 Analysis of SCF Wavefunction
 
 --------------------------------------------------------------
                    Orbital Energies (a.u.)
 --------------------------------------------------------------
 
 Alpha MOs
 -- Occupied --
-14.277  -0.990  -0.533  -0.471  -0.471
 -- Virtual --
  0.041   0.170   0.170   0.174   0.221   0.236   0.599   0.747
  0.747   0.758   0.848   0.848   1.070   1.070   1.081   1.346
  1.426   1.426   1.838   2.497   3.348   3.348   3.594   3.594
  3.596   3.596   3.723   3.723   3.799   4.028   4.497   4.497
  4.718   4.719   4.918   4.918   5.216   6.060  35.187  37.173
 37.173  37.853  40.351  40.463  40.522  40.522  40.532
 
 Beta MOs
 -- Occupied --
-14.240  -0.872  -0.487
 -- Virtual --
 -0.001  -0.001   0.044   0.178   0.201   0.201   0.237   0.245
  0.617   0.778   0.778   0.779   0.926   0.926   1.143   1.189
  1.189   1.379   1.475   1.475   1.869   2.509   3.378   3.378
  3.690   3.690   3.739   3.739   3.823   3.850   3.850   4.094
  4.534   4.534   4.912   4.912   5.019   5.019   5.277   6.090
 35.228  37.237  37.237  37.875  40.439  40.550  40.567  40.569
 40.569
 --------------------------------------------------------------
 
          Ground-State Mulliken Net Atomic Charges

     Atom                 Charge (a.u.)    Spin (a.u.)
  --------------------------------------------------------
      1 N                    -0.153706       2.029206
      2 H                     0.153706      -0.029206
  --------------------------------------------------------
  Sum of atomic charges =     0.000000
  Sum of spin   charges =     2.000000

 -----------------------------------------------------------------
                    Cartesian Multipole Moments
 -----------------------------------------------------------------
    Charge (ESU x 10^10)
                 0.0000
    Dipole Moment (Debye)
         X       0.0000      Y       0.0000      Z       1.6474
       Tot       1.6474
    Quadrupole Moments (Debye-Ang)
        XX      -6.4054     XY       0.0000     YY      -6.4054
        XZ       0.0000     YZ       0.0000     ZZ      -5.4803
    Octapole Moments (Debye-Ang^2)
       XXX       0.0000    XXY       0.0000    XYY       0.0000
       YYY       0.0000    XXZ      -0.4780    XYZ       0.0000
       YYZ      -0.4780    XZZ       0.0000    YZZ       0.0000
       ZZZ      -0.0250
    Hexadecapole Moments (Debye-Ang^3)
      XXXX      -6.1351   XXXY       0.0000   XXYY      -2.0450
      XYYY       0.0000   YYYY      -6.1351   XXXZ       0.0000
      XXYZ       0.0000   XYYZ       0.0000   YYYZ       0.0000
      XXZZ      -2.8094   XYZZ       0.0000   YYZZ      -2.8094
      XZZZ       0.0000   YZZZ       0.0000   ZZZZ      -8.6871
 -----------------------------------------------------------------
 Total job time:  4.40s(wall), 3.95s(cpu) 
 Wed May 22 10:52:34 2013

        *************************************************************
        *                                                           *
        *  Thank you very much for using Q-Chem.  Have a nice day.  *
        *                                                           *
        *************************************************************


0 sent ACK to 0 
now end server 0 ... 
 
**********************************************************************
Job 3 of 3 
**********************************************************************
 
Process 0 of 1 is on cl142.stfx.acenet.ca - thread support 1
initial socket setup ...start
initial socket setup ...done 
now start server 0 ... 

cmd = /usr/bin/ssh clhead /usr/local/qchem/bin/get_hostid 1891004157 > /scratch/tmp/5997323.1.medium.q/qchem4754/lic.dat
                  Welcome to Q-Chem
     A Quantum Leap Into The Future Of Chemistry

 Y. Shao, L. Fusti-Molnar, Y. Jung, J. Kussmann, C. Ochsenfeld,
 S. T. Brown, A. T. B. Gilbert, L. V. Slipchenko,S. V. Levchenko,
 D. P. O'Neill, R. A. DiStasio Jr., R. C. Lochan, T. Wang,
 G. J. O. Beran, N. A. Besley, J. M. Herbert, C. Y. Lin,
 T. Van Voorhis, S. H. Chien, A. Sodt, R. P. Steele, 
 V. A. Rassolov, P. E. Maslen, P. P. Korambath, R. D. Adamson,
 B. Austin, J. Baker, E. F. C. Byrd, H. Dachsel, R. J. Doerksen,
 A. Dreuw, B. D. Dunietz, A. D. Dutoi, T. R. Furlani,
 S. R. Gwaltney, A. Heyden, S. Hirata, C.-P. Hsu, G. Kedziora,
 R. Z. Khaliullin, P. Klunzinger, A. M. Lee, M. S. Lee, W. Liang,
 I. Lotan, N. Nair, B. Peters, E. I. Proynov, P. A. Pieniazek, 
 Y. M. Rhee, J. Ritchie, E. Rosta, C. D. Sherrill, 
 A. C. Simmonett, J. E. Subotnik, H. L. Woodcock III,
 W. Zhang, A. T. Bell, A. K. Chakraborty, D. M. Chipman,
 F. J. Keil, A. Warshel, W. J. Hehre, H. F. Schaefer III,
 J. Kong, A. I. Krylov, P. M. W. Gill, M. Head-Gordon,
 Q-Chem, Version 3.1, Q-Chem, Inc., Pittsburgh, PA (2007).

 Additional authors for Version 3.1: 
 Z. Gan, Y. Zhao, N. E. Schultz, D. Truhlar, E. Epifanovsky and M. Oana.

 Additional authors for Version 3.2: 
 R. Baer, B. R. Brooks, D. Casanova, J.-D. Chai, C.-L. Cheng, 
 C. Cramer, D. Crittenden, A. Ghysels, G. Hawkins, E. G. Hohenstein, 
 C. Kelley, W. Kurlancheek, D. Liotard, E. Livshits, P. Manohar, 
 A. Marenich, D. Neuhauser, R. Olson, M. A. Rohrdanz, K. S. Thanthiriwatte, 
 A. J. W. Thom, V. Vanovschi, C. F. Williams, Q. Wu and Z.-Q. You. 


 Intel X86 Linux Version

 Q-chem begins on Wed May 22 10:52:37 2013  

 Parallel job on  1  processors
Processing $rem in /usr/local/qchem/config/preferences.

theFileMan(): MAXOPENFILES=974 MAX_SUB_FILE_NUM=16
Maximum size of a physical file is 2.0 GB, maximum size of a tmp-file is 32.0 GB


--------------------------------------------------------------
User input:
--------------------------------------------------------------

$molecule
1,2
N          0.00000        0.00000        0.01111
H          0.00000        0.00000        1.03672
$end

$comment
positive
$end

$xc_functional
C PBE   1.00
X wPBE  1.00
$end

$rem
SYMMETRY_DECOMPOSITION	0
LRC_DFT                 true
exchange 		general
BASIS                   g3large
omega			400
mem_static              760
max_scf_cycles          200
scf_final_print         1
sym_ignore              true
$end

--------------------------------------------------------------
 Writing REM_CC_EA            2
 ----------------------------------------------------
       Standard Nuclear Orientation (Angstroms)
    I     Atom         X            Y            Z
 ----------------------------------------------------
    1      N       0.000000     0.000000     0.011110
    2      H       0.000000     0.000000     1.036720
 ----------------------------------------------------
 Nuclear Repulsion Energy =     3.6117437190 hartrees
 There are        4 alpha and        3 beta electrons
 Requested basis set is G3large
 There are 16 shells and 52 basis functions

Total QAlloc Memory Limit   2000 MB
Mega-Array Size       743 MB
MEM_STATIC part       760 MB

                       Distance Matrix (Angstroms)
             N (  1)
   H (  2)  1.025610
 
 A cutoff of  1.0D-08 yielded    136 shell pairs
 There are   1462 function pairs (  1834 Cartesian)
Evaluating contribution to one-electron hamiltonian from nuclear
 Smallest overlap matrix eigenvalue = 4.24E-03
 Multipole matrices computed through 2nd order

  Scale SEOQF with 1.000000e-01/1.000000e-01/1.000000e-01

 Standard Electronic Orientation quadrupole field applied
 Nucleus-field energy     =    -0.0000000001 hartrees
 Guess from superposition of atomic densities
 Warning:  Energy on first SCF cycle will be non-variational
 Long-range K will be added via erf
 Coulomb attenuation parameter = 0.4 bohr**(-1)
 An unrestricted Kohn-Sham SCF calculation will be
 performed using Pulay DIIS extrapolation
 Exchange:  wPBE + LR-HF      Correlation:  PBE
 Using SG-1 standard quadrature grid
 SCF converges when DIIS error is below 1.0E-05
 Requested basis set is G3large
 There are 16 shells and 52 basis functions
 A cutoff of  1.0D-08 yielded    136 shell pairs
 There are   1462 function pairs (  1834 Cartesian)
 Warning!  Inaccurate integrated density:
   Number of electrons =     7
   Numerical integral  =     7.999998383451
   Relative error      =    14.2856911922 %
 ---------------------------------------
  Cycle       Energy         DIIS Error
 ---------------------------------------
    1     -54.9050267737      3.15E-02
    2     -54.6060620210      1.32E-02
    3     -54.6818761397      4.54E-03
    4     -54.6868342497      5.26E-04
    5     -54.6869848980      8.99E-05
    6     -54.6869964500      1.56E-05
    7     -54.6869974423      3.15E-06 Convergence criterion met
 ---------------------------------------
 One-Electron    Energy =   -77.7389899091
 Total Coulomb   Energy =    26.1978506854
 Alpha Exchange  Energy =    -0.8205315339
 Beta  Exchange  Energy =    -0.6147840740
 DFT   Exchange  Energy =    -5.1264199232
 DFT Correlation Energy =    -0.1958664064
 Nuclear Repu.   Energy =     3.6117437188
 Nuclear Attr.   Energy =  -132.3932108692
 Kinetic         Energy =    54.6542209601
 <S^2> = 0.7523
 SCF time:  CPU 3.83 s  wall 4.15 s
 Final Alpha MO Eigenvalues
            1           2           3           4           5           6
    1 -14.8513536  -1.4443488  -0.9854138  -0.9428779  -0.5513852  -0.1775829
            7           8           9
    1  -0.0639808  -0.0598989  -0.0596574
 Final Beta MO Eigenvalues
            1           2           3           4           5           6
    1 -14.8296183  -1.3787445  -0.9602683  -0.5231513  -0.4476487  -0.1714728
            7           8
    1  -0.0598791  -0.0571943
 Analysis of SCF Wavefunction
 
 --------------------------------------------------------------
                    Orbital Energies (a.u.)
 --------------------------------------------------------------
 
 Alpha MOs
 -- Occupied --
-14.851  -1.444  -0.985  -0.943
 -- Virtual --
 -0.551  -0.178  -0.064  -0.060  -0.060  -0.033   0.008   0.285
  0.390   0.395   0.444   0.498   0.504   0.680   0.687   0.723
  0.987   1.051   1.054   1.464   2.104   2.915   2.916   3.143
  3.145   3.148   3.149   3.236   3.257   3.356   3.577   4.069
  4.069   4.223   4.241   4.426   4.439   4.751   5.606  34.620
 36.600  36.610  37.287  39.781  39.889  39.951  39.955  39.965
 
 Beta MOs
 -- Occupied --
-14.830  -1.379  -0.960
 -- Virtual --
 -0.523  -0.448  -0.171  -0.060  -0.057  -0.045  -0.029   0.012
  0.291   0.398   0.419   0.452   0.516   0.554   0.737   0.744
  0.760   1.003   1.060   1.091   1.479   2.110   2.917   2.946
  3.194   3.197   3.220   3.224   3.290   3.359   3.370   3.614
  4.072   4.103   4.339   4.343   4.454   4.518   4.788   5.622
 34.644  36.624  36.664  37.300  39.828  39.942  39.960  39.989
 40.001
 --------------------------------------------------------------
 
          Ground-State Mulliken Net Atomic Charges

     Atom                 Charge (a.u.)    Spin (a.u.)
  --------------------------------------------------------
      1 N                     0.702883       1.010829
      2 H                     0.297117      -0.010829
  --------------------------------------------------------
  Sum of atomic charges =     1.000000
  Sum of spin   charges =     1.000000

 -----------------------------------------------------------------
                    Cartesian Multipole Moments
 -----------------------------------------------------------------
    Charge (ESU x 10^10)
                 4.8032
    Dipole Moment (Debye)
         X       0.0000      Y       0.0000      Z       2.3678
       Tot       2.3678
    Quadrupole Moments (Debye-Ang)
        XX      -3.5318     XY       0.0001     YY      -4.6233
        XZ       0.0000     YZ       0.0000     ZZ      -2.7848
    Octapole Moments (Debye-Ang^2)
       XXX       0.0000    XXY       0.0000    XYY       0.0000
       YYY       0.0000    XXZ      -0.2902    XYZ       0.0000
       YYZ      -0.3549    XZZ       0.0000    YZZ       0.0000
       ZZZ       1.5572
    Hexadecapole Moments (Debye-Ang^3)
      XXXX      -2.0503   XXXY       0.0000   XXYY      -0.8905
      XYYY       0.0000   YYYY      -3.2936   XXXZ       0.0000
      XXYZ       0.0000   XYYZ       0.0000   YYYZ       0.0000
      XXZZ      -1.3684   XYZZ       0.0000   YYZZ      -1.5857
      XZZZ       0.0000   YZZZ       0.0000   ZZZZ      -2.9408
 -----------------------------------------------------------------
 Total job time:  4.22s(wall), 3.89s(cpu) 
 Wed May 22 10:52:42 2013

        *************************************************************
        *                                                           *
        *  Thank you very much for using Q-Chem.  Have a nice day.  *
        *                                                           *
        *************************************************************


0 sent ACK to 0 
now end server 0 ... 
