Process 0 of 1 is on cl225.stfx.acenet.ca - thread support 1
initial socket setup ...start
initial socket setup ...done 
now start server 0 ... 

cmd = /usr/bin/ssh clhead /usr/local/qchem/bin/get_hostid 1725568086 > /scratch/tmp/6063805.1.long.q/qchem21287/lic.dat
                  Welcome to Q-Chem
     A Quantum Leap Into The Future Of Chemistry

 Y. Shao, L. Fusti-Molnar, Y. Jung, J. Kussmann, C. Ochsenfeld,
 S. T. Brown, A. T. B. Gilbert, L. V. Slipchenko,S. V. Levchenko,
 D. P. O'Neill, R. A. DiStasio Jr., R. C. Lochan, T. Wang,
 G. J. O. Beran, N. A. Besley, J. M. Herbert, C. Y. Lin,
 T. Van Voorhis, S. H. Chien, A. Sodt, R. P. Steele, 
 V. A. Rassolov, P. E. Maslen, P. P. Korambath, R. D. Adamson,
 B. Austin, J. Baker, E. F. C. Byrd, H. Dachsel, R. J. Doerksen,
 A. Dreuw, B. D. Dunietz, A. D. Dutoi, T. R. Furlani,
 S. R. Gwaltney, A. Heyden, S. Hirata, C.-P. Hsu, G. Kedziora,
 R. Z. Khaliullin, P. Klunzinger, A. M. Lee, M. S. Lee, W. Liang,
 I. Lotan, N. Nair, B. Peters, E. I. Proynov, P. A. Pieniazek, 
 Y. M. Rhee, J. Ritchie, E. Rosta, C. D. Sherrill, 
 A. C. Simmonett, J. E. Subotnik, H. L. Woodcock III,
 W. Zhang, A. T. Bell, A. K. Chakraborty, D. M. Chipman,
 F. J. Keil, A. Warshel, W. J. Hehre, H. F. Schaefer III,
 J. Kong, A. I. Krylov, P. M. W. Gill, M. Head-Gordon,
 Q-Chem, Version 3.1, Q-Chem, Inc., Pittsburgh, PA (2007).

 Additional authors for Version 3.1: 
 Z. Gan, Y. Zhao, N. E. Schultz, D. Truhlar, E. Epifanovsky and M. Oana.

 Additional authors for Version 3.2: 
 R. Baer, B. R. Brooks, D. Casanova, J.-D. Chai, C.-L. Cheng, 
 C. Cramer, D. Crittenden, A. Ghysels, G. Hawkins, E. G. Hohenstein, 
 C. Kelley, W. Kurlancheek, D. Liotard, E. Livshits, P. Manohar, 
 A. Marenich, D. Neuhauser, R. Olson, M. A. Rohrdanz, K. S. Thanthiriwatte, 
 A. J. W. Thom, V. Vanovschi, C. F. Williams, Q. Wu and Z.-Q. You. 


 Intel X86 Linux Version

 Q-chem begins on Sun Jul  7 09:38:48 2013  

 Parallel job on  1  processors
Processing $rem in /usr/local/qchem/config/preferences.

theFileMan(): MAXOPENFILES=974 MAX_SUB_FILE_NUM=16
Maximum size of a physical file is 2.0 GB, maximum size of a tmp-file is 32.0 GB


--------------------------------------------------------------
User input:
--------------------------------------------------------------

$molecule
-1,2
F          0.00000        0.00000        0.01141
H          0.00000        0.00000        0.92248
$end

$comment
negative
$end

$xc_functional
C PBE   1.00
X wPBE  1.00
$end

$rem
SYMMETRY_DECOMPOSITION	0
exchange 		general
LRC_DFT                 true
BASIS                   g3large
omega			580
mem_static              760
max_scf_cycles          200
scf_final_print         1
sym_ignore              true
$end

--------------------------------------------------------------
 Writing REM_CC_EA            2
 ----------------------------------------------------
       Standard Nuclear Orientation (Angstroms)
    I     Atom         X            Y            Z
 ----------------------------------------------------
    1      F       0.000000     0.000000     0.011410
    2      H       0.000000     0.000000     0.922480
 ----------------------------------------------------
 Nuclear Repulsion Energy =     5.2274741756 hartrees
 There are        6 alpha and        5 beta electrons
 Requested basis set is G3large
 There are 16 shells and 52 basis functions

Total QAlloc Memory Limit   2000 MB
Mega-Array Size       743 MB
MEM_STATIC part       760 MB

                       Distance Matrix (Angstroms)
             F (  1)
   H (  2)  0.911070
 
 A cutoff of  1.0D-08 yielded    136 shell pairs
 There are   1462 function pairs (  1834 Cartesian)
Evaluating contribution to one-electron hamiltonian from nuclear
 Smallest overlap matrix eigenvalue = 4.76E-03
 Multipole matrices computed through 2nd order

  Scale SEOQF with 1.000000e+00/1.000000e+00/1.000000e+00

 Standard Electronic Orientation quadrupole field applied
 Nucleus-field energy     =    -0.0000000009 hartrees
 Guess from superposition of atomic densities
 Warning:  Energy on first SCF cycle will be non-variational
 Long-range K will be added via erf
 Coulomb attenuation parameter = 0.58 bohr**(-1)
 An unrestricted Kohn-Sham SCF calculation will be
 performed using Pulay DIIS extrapolation
 Exchange:  wPBE + LR-HF      Correlation:  PBE
 Using SG-1 standard quadrature grid
 SCF converges when DIIS error is below 1.0E-05
 Requested basis set is G3large
 There are 16 shells and 52 basis functions
 A cutoff of  1.0D-08 yielded    136 shell pairs
 There are   1462 function pairs (  1834 Cartesian)
 Warning!  Inaccurate integrated density:
   Number of electrons =    11
   Numerical integral  =     9.999999861930
   Relative error      =    -9.0909103461 %
 ---------------------------------------
  Cycle       Energy         DIIS Error
 ---------------------------------------
    1    -100.3475079827      4.59E-02
    2    -100.3603838355      1.29E-02
    3    -100.3815249555      1.20E-02
    4    -100.4062930558      9.15E-04
    5    -100.4073257399      3.08E-04
    6    -100.4076117852      1.30E-04
    7    -100.4077037682      4.45E-05
    8    -100.4077132595      9.46E-06 Convergence criterion met
 ---------------------------------------
 One-Electron    Energy =  -152.6304477656
 Total Coulomb   Energy =    57.9019919232
 Alpha Exchange  Energy =    -1.5134978116
 Beta  Exchange  Energy =    -1.4180048731
 DFT   Exchange  Energy =    -7.6307104251
 DFT Correlation Energy =    -0.3445184820
 Nuclear Repu.   Energy =     5.2274741747
 Nuclear Attr.   Energy =  -252.9478639352
 Kinetic         Energy =   100.3174161696
 <S^2> = 0.7501
 SCF time:  CPU 4.95 s  wall 5.12 s
 Final Alpha MO Eigenvalues
            1           2           3           4           5           6
    1 -24.3413427  -1.2003336  -0.5233804  -0.3876140  -0.3876127   0.0289247
            7           8           9          10          11
    1   0.3609611   0.4512105   0.4512132   0.4520726   0.5706858
 Final Beta MO Eigenvalues
            1           2           3           4           5           6
    1 -24.3404618  -1.1970755  -0.5199940  -0.3866803  -0.3866791   0.1976470
            7           8           9          10
    1   0.3842032   0.4601897   0.4603635   0.4603666
 Analysis of SCF Wavefunction
 
 --------------------------------------------------------------
                    Orbital Energies (a.u.)
 --------------------------------------------------------------
 
 Alpha MOs
 -- Occupied --
-24.341  -1.200  -0.523  -0.388  -0.388   0.029
 -- Virtual --
  0.361   0.451   0.451   0.452   0.571   0.803   1.047   1.047
  1.452   1.620   1.620   1.728   2.080   2.360   2.360   2.504
  2.620   2.620   3.567   4.115   4.115   4.806   6.504   6.504
  6.832   6.976   6.976   7.012   7.012   7.384   7.384   8.708
  9.401   9.401   9.587   9.587  10.254  50.394  50.439  50.517
 50.517  50.710  55.879  55.879  56.348  66.870
 
 Beta MOs
 -- Occupied --
-24.340  -1.197  -0.520  -0.387  -0.387
 -- Virtual --
  0.198   0.384   0.460   0.460   0.460   0.576   0.805   1.053
  1.053   1.453   1.620   1.620   1.731   2.080   2.360   2.360
  2.505   2.622   2.622   3.568   4.117   4.117   4.810   6.504
  6.504   6.834   6.976   6.977   7.012   7.012   7.386   7.386
  8.712   9.402   9.402   9.589   9.589  10.256  50.394  50.439
 50.518  50.518  50.712  55.879  55.879  56.350  66.871
 --------------------------------------------------------------
 
          Ground-State Mulliken Net Atomic Charges

     Atom                 Charge (a.u.)    Spin (a.u.)
  --------------------------------------------------------
      1 F                    -0.200754      -0.203045
      2 H                    -0.799246       1.203045
  --------------------------------------------------------
  Sum of atomic charges =    -1.000000
  Sum of spin   charges =     1.000000

 -----------------------------------------------------------------
                    Cartesian Multipole Moments
 -----------------------------------------------------------------
    Charge (ESU x 10^10)
                -4.8032
    Dipole Moment (Debye)
         X       0.0000      Y       0.0000      Z      -4.2987
       Tot       4.2987
    Quadrupole Moments (Debye-Ang)
        XX     -18.2754     XY       0.0000     YY     -18.2754
        XZ       0.0000     YZ       0.0000     ZZ     -22.4803
    Octapole Moments (Debye-Ang^2)
       XXX       0.0000    XXY       0.0000    XYY       0.0000
       YYY       0.0000    XXZ     -14.1861    XYZ       0.0000
       YYZ     -14.1861    XZZ       0.0000    YZZ       0.0000
       ZZZ     -46.9956
    Hexadecapole Moments (Debye-Ang^3)
      XXXX     -88.7019   XXXY       0.0000   XXYY     -29.5673
      XYYY       0.0000   YYYY     -88.7019   XXXZ       0.0000
      XXYZ       0.0000   XYYZ       0.0000   YYYZ       0.0000
      XXZZ     -43.2581   XYZZ       0.0000   YYZZ     -43.2581
      XZZZ       0.0000   YZZZ       0.0000   ZZZZ    -174.7923
 -----------------------------------------------------------------
 Total job time:  5.20s(wall), 5.02s(cpu) 
 Sun Jul  7 09:38:54 2013

        *************************************************************
        *                                                           *
        *  Thank you very much for using Q-Chem.  Have a nice day.  *
        *                                                           *
        *************************************************************


0 sent ACK to 0 
now end server 0 ... 
 
**********************************************************************
Job 2 of 3 
**********************************************************************
 
Process 0 of 1 is on cl225.stfx.acenet.ca - thread support 1
initial socket setup ...start
initial socket setup ...done 
now start server 0 ... 

cmd = /usr/bin/ssh clhead /usr/local/qchem/bin/get_hostid 1422630144 > /scratch/tmp/6063805.1.long.q/qchem21287/lic.dat
                  Welcome to Q-Chem
     A Quantum Leap Into The Future Of Chemistry

 Y. Shao, L. Fusti-Molnar, Y. Jung, J. Kussmann, C. Ochsenfeld,
 S. T. Brown, A. T. B. Gilbert, L. V. Slipchenko,S. V. Levchenko,
 D. P. O'Neill, R. A. DiStasio Jr., R. C. Lochan, T. Wang,
 G. J. O. Beran, N. A. Besley, J. M. Herbert, C. Y. Lin,
 T. Van Voorhis, S. H. Chien, A. Sodt, R. P. Steele, 
 V. A. Rassolov, P. E. Maslen, P. P. Korambath, R. D. Adamson,
 B. Austin, J. Baker, E. F. C. Byrd, H. Dachsel, R. J. Doerksen,
 A. Dreuw, B. D. Dunietz, A. D. Dutoi, T. R. Furlani,
 S. R. Gwaltney, A. Heyden, S. Hirata, C.-P. Hsu, G. Kedziora,
 R. Z. Khaliullin, P. Klunzinger, A. M. Lee, M. S. Lee, W. Liang,
 I. Lotan, N. Nair, B. Peters, E. I. Proynov, P. A. Pieniazek, 
 Y. M. Rhee, J. Ritchie, E. Rosta, C. D. Sherrill, 
 A. C. Simmonett, J. E. Subotnik, H. L. Woodcock III,
 W. Zhang, A. T. Bell, A. K. Chakraborty, D. M. Chipman,
 F. J. Keil, A. Warshel, W. J. Hehre, H. F. Schaefer III,
 J. Kong, A. I. Krylov, P. M. W. Gill, M. Head-Gordon,
 Q-Chem, Version 3.1, Q-Chem, Inc., Pittsburgh, PA (2007).

 Additional authors for Version 3.1: 
 Z. Gan, Y. Zhao, N. E. Schultz, D. Truhlar, E. Epifanovsky and M. Oana.

 Additional authors for Version 3.2: 
 R. Baer, B. R. Brooks, D. Casanova, J.-D. Chai, C.-L. Cheng, 
 C. Cramer, D. Crittenden, A. Ghysels, G. Hawkins, E. G. Hohenstein, 
 C. Kelley, W. Kurlancheek, D. Liotard, E. Livshits, P. Manohar, 
 A. Marenich, D. Neuhauser, R. Olson, M. A. Rohrdanz, K. S. Thanthiriwatte, 
 A. J. W. Thom, V. Vanovschi, C. F. Williams, Q. Wu and Z.-Q. You. 


 Intel X86 Linux Version

 Q-chem begins on Sun Jul  7 09:38:56 2013  

 Parallel job on  1  processors
Processing $rem in /usr/local/qchem/config/preferences.

theFileMan(): MAXOPENFILES=974 MAX_SUB_FILE_NUM=16
Maximum size of a physical file is 2.0 GB, maximum size of a tmp-file is 32.0 GB


--------------------------------------------------------------
User input:
--------------------------------------------------------------

$molecule
0,1
F          0.00000        0.00000        0.01141
H          0.00000        0.00000        0.92248
$end

$comment
neutral
$end

$xc_functional
C PBE   1.00
X wPBE  1.00
$end


$rem
SYMMETRY_DECOMPOSITION	0
LRC_DFT                 true
exchange 		general
BASIS                   g3large
omega			580
mem_static              760
max_scf_cycles          200
scf_final_print         1
sym_ignore              true
$end

--------------------------------------------------------------
 Writing REM_CC_EA            2
 ----------------------------------------------------
       Standard Nuclear Orientation (Angstroms)
    I     Atom         X            Y            Z
 ----------------------------------------------------
    1      F       0.000000     0.000000     0.011410
    2      H       0.000000     0.000000     0.922480
 ----------------------------------------------------
 Nuclear Repulsion Energy =     5.2274741756 hartrees
 There are        5 alpha and        5 beta electrons
 Requested basis set is G3large
 There are 16 shells and 52 basis functions

Total QAlloc Memory Limit   2000 MB
Mega-Array Size       743 MB
MEM_STATIC part       760 MB

                       Distance Matrix (Angstroms)
             F (  1)
   H (  2)  0.911070
 
 A cutoff of  1.0D-08 yielded    136 shell pairs
 There are   1462 function pairs (  1834 Cartesian)
Evaluating contribution to one-electron hamiltonian from nuclear
 Smallest overlap matrix eigenvalue = 4.76E-03
 Multipole matrices computed through 2nd order

  Scale SEOQF with 1.000000e+00/1.000000e+00/1.000000e+00

 Standard Electronic Orientation quadrupole field applied
 Nucleus-field energy     =    -0.0000000009 hartrees
 Guess from superposition of atomic densities
 Warning:  Energy on first SCF cycle will be non-variational
 Long-range K will be added via erf
 Coulomb attenuation parameter = 0.58 bohr**(-1)
 A restricted Kohn-Sham SCF calculation will be
 performed using Pulay DIIS extrapolation
 Exchange:  wPBE + LR-HF      Correlation:  PBE
 Using SG-1 standard quadrature grid
 SCF converges when DIIS error is below 1.0E-05
 Requested basis set is G3large
 There are 16 shells and 52 basis functions
 A cutoff of  1.0D-08 yielded    136 shell pairs
 There are   1462 function pairs (  1834 Cartesian)
 ---------------------------------------
  Cycle       Energy         DIIS Error
 ---------------------------------------
    1    -100.3475079827      4.59E-02
    2    -100.4098752648      1.20E-02
    3    -100.4254190269      9.87E-03
    4    -100.4411221760      7.08E-04
    5    -100.4411943097      1.40E-04
    6    -100.4412007011      2.20E-05
    7    -100.4412010168      3.07E-06 Convergence criterion met
 ---------------------------------------
 One-Electron    Energy =  -150.5832668618
 Total Coulomb   Energy =    55.7118590156
 Alpha Exchange  Energy =    -1.4194204350
 Beta  Exchange  Energy =    -1.4194204350
 DFT   Exchange  Energy =    -7.6220415155
 DFT Correlation Energy =    -0.3363849599
 Nuclear Repu.   Energy =     5.2274741747
 Nuclear Attr.   Energy =  -250.8073196812
 Kinetic         Energy =   100.2240528195
 SCF time:  CPU 3.98 s  wall 4.40 s
 Final Alpha MO Eigenvalues
            1           2           3           4           5           6
    1 -24.5526837  -1.4098272  -0.7292997  -0.5945090  -0.5945064   0.0406082
            7           8           9          10
    1   0.1969586   0.2919365   0.2919367   0.2994953
 Analysis of SCF Wavefunction
 
 --------------------------------------------------------------
                    Orbital Energies (a.u.)
 --------------------------------------------------------------
 
 Alpha MOs
 -- Occupied --
-24.553  -1.410  -0.729  -0.595  -0.595
 -- Virtual --
  0.041   0.197   0.292   0.292   0.299   0.396   0.596   0.831
  0.831   1.257   1.426   1.426   1.522   1.879   2.155   2.155
  2.286   2.412   2.412   3.356   3.889   3.889   4.586   6.297
  6.297   6.625   6.769   6.769   6.806   6.806   7.175   7.175
  8.495   9.194   9.194   9.379   9.379  10.048  50.183  50.229
 50.306  50.306  50.499  55.668  55.668  56.137  66.659
 --------------------------------------------------------------
 
          Ground-State Mulliken Net Atomic Charges

     Atom                 Charge (a.u.)
  ----------------------------------------
      1 F                    -0.353750
      2 H                     0.353750
  ----------------------------------------
  Sum of atomic charges =     0.000000

 -----------------------------------------------------------------
                    Cartesian Multipole Moments
 -----------------------------------------------------------------
    Charge (ESU x 10^10)
                 0.0000
    Dipole Moment (Debye)
         X       0.0000      Y       0.0000      Z       1.9248
       Tot       1.9248
    Quadrupole Moments (Debye-Ang)
        XX      -5.7961     XY       0.0000     YY      -5.7961
        XZ       0.0000     YZ       0.0000     ZZ      -3.2932
    Octapole Moments (Debye-Ang^2)
       XXX       0.0000    XXY       0.0000    XYY       0.0000
       YYY      -0.0001    XXZ      -0.4082    XYZ       0.0000
       YYZ      -0.4082    XZZ       0.0000    YZZ       0.0000
       ZZZ       0.8549
    Hexadecapole Moments (Debye-Ang^3)
      XXXX      -3.9512   XXXY       0.0000   XXYY      -1.3171
      XYYY       0.0000   YYYY      -3.9512   XXXZ       0.0000
      XXYZ       0.0000   XYYZ       0.0000   YYYZ       0.0000
      XXZZ      -1.5058   XYZZ       0.0000   YYZZ      -1.5058
      XZZZ       0.0000   YZZZ       0.0000   ZZZZ      -2.8669
 -----------------------------------------------------------------
 Total job time:  4.47s(wall), 4.05s(cpu) 
 Sun Jul  7 09:39:01 2013

        *************************************************************
        *                                                           *
        *  Thank you very much for using Q-Chem.  Have a nice day.  *
        *                                                           *
        *************************************************************


0 sent ACK to 0 
now end server 0 ... 
 
**********************************************************************
Job 3 of 3 
**********************************************************************
 
Process 0 of 1 is on cl225.stfx.acenet.ca - thread support 1
initial socket setup ...start
initial socket setup ...done 
now start server 0 ... 

cmd = /usr/bin/ssh clhead /usr/local/qchem/bin/get_hostid 368270230 > /scratch/tmp/6063805.1.long.q/qchem21287/lic.dat
                  Welcome to Q-Chem
     A Quantum Leap Into The Future Of Chemistry

 Y. Shao, L. Fusti-Molnar, Y. Jung, J. Kussmann, C. Ochsenfeld,
 S. T. Brown, A. T. B. Gilbert, L. V. Slipchenko,S. V. Levchenko,
 D. P. O'Neill, R. A. DiStasio Jr., R. C. Lochan, T. Wang,
 G. J. O. Beran, N. A. Besley, J. M. Herbert, C. Y. Lin,
 T. Van Voorhis, S. H. Chien, A. Sodt, R. P. Steele, 
 V. A. Rassolov, P. E. Maslen, P. P. Korambath, R. D. Adamson,
 B. Austin, J. Baker, E. F. C. Byrd, H. Dachsel, R. J. Doerksen,
 A. Dreuw, B. D. Dunietz, A. D. Dutoi, T. R. Furlani,
 S. R. Gwaltney, A. Heyden, S. Hirata, C.-P. Hsu, G. Kedziora,
 R. Z. Khaliullin, P. Klunzinger, A. M. Lee, M. S. Lee, W. Liang,
 I. Lotan, N. Nair, B. Peters, E. I. Proynov, P. A. Pieniazek, 
 Y. M. Rhee, J. Ritchie, E. Rosta, C. D. Sherrill, 
 A. C. Simmonett, J. E. Subotnik, H. L. Woodcock III,
 W. Zhang, A. T. Bell, A. K. Chakraborty, D. M. Chipman,
 F. J. Keil, A. Warshel, W. J. Hehre, H. F. Schaefer III,
 J. Kong, A. I. Krylov, P. M. W. Gill, M. Head-Gordon,
 Q-Chem, Version 3.1, Q-Chem, Inc., Pittsburgh, PA (2007).

 Additional authors for Version 3.1: 
 Z. Gan, Y. Zhao, N. E. Schultz, D. Truhlar, E. Epifanovsky and M. Oana.

 Additional authors for Version 3.2: 
 R. Baer, B. R. Brooks, D. Casanova, J.-D. Chai, C.-L. Cheng, 
 C. Cramer, D. Crittenden, A. Ghysels, G. Hawkins, E. G. Hohenstein, 
 C. Kelley, W. Kurlancheek, D. Liotard, E. Livshits, P. Manohar, 
 A. Marenich, D. Neuhauser, R. Olson, M. A. Rohrdanz, K. S. Thanthiriwatte, 
 A. J. W. Thom, V. Vanovschi, C. F. Williams, Q. Wu and Z.-Q. You. 


 Intel X86 Linux Version

 Q-chem begins on Sun Jul  7 09:39:03 2013  

 Parallel job on  1  processors
Processing $rem in /usr/local/qchem/config/preferences.

theFileMan(): MAXOPENFILES=974 MAX_SUB_FILE_NUM=16
Maximum size of a physical file is 2.0 GB, maximum size of a tmp-file is 32.0 GB


--------------------------------------------------------------
User input:
--------------------------------------------------------------

$molecule
1,2
F          0.00000        0.00000        0.01141
H          0.00000        0.00000        0.92248
$end

$comment
positive
$end

$xc_functional
C PBE   1.00
X wPBE  1.00
$end

$rem
SYMMETRY_DECOMPOSITION	0
LRC_DFT                 true
exchange 		general
BASIS                   g3large
omega			580
mem_static              760
max_scf_cycles          200
scf_final_print         1
sym_ignore              true
$end

--------------------------------------------------------------
 Writing REM_CC_EA            2
 ----------------------------------------------------
       Standard Nuclear Orientation (Angstroms)
    I     Atom         X            Y            Z
 ----------------------------------------------------
    1      F       0.000000     0.000000     0.011410
    2      H       0.000000     0.000000     0.922480
 ----------------------------------------------------
 Nuclear Repulsion Energy =     5.2274741756 hartrees
 There are        5 alpha and        4 beta electrons
 Requested basis set is G3large
 There are 16 shells and 52 basis functions

Total QAlloc Memory Limit   2000 MB
Mega-Array Size       743 MB
MEM_STATIC part       760 MB

                       Distance Matrix (Angstroms)
             F (  1)
   H (  2)  0.911070
 
 A cutoff of  1.0D-08 yielded    136 shell pairs
 There are   1462 function pairs (  1834 Cartesian)
Evaluating contribution to one-electron hamiltonian from nuclear
 Smallest overlap matrix eigenvalue = 4.76E-03
 Multipole matrices computed through 2nd order

  Scale SEOQF with 1.000000e+00/1.000000e+00/1.000000e+00

 Standard Electronic Orientation quadrupole field applied
 Nucleus-field energy     =    -0.0000000009 hartrees
 Guess from superposition of atomic densities
 Warning:  Energy on first SCF cycle will be non-variational
 Long-range K will be added via erf
 Coulomb attenuation parameter = 0.58 bohr**(-1)
 An unrestricted Kohn-Sham SCF calculation will be
 performed using Pulay DIIS extrapolation
 Exchange:  wPBE + LR-HF      Correlation:  PBE
 Using SG-1 standard quadrature grid
 SCF converges when DIIS error is below 1.0E-05
 Requested basis set is G3large
 There are 16 shells and 52 basis functions
 A cutoff of  1.0D-08 yielded    136 shell pairs
 There are   1462 function pairs (  1834 Cartesian)
 Warning!  Inaccurate integrated density:
   Number of electrons =     9
   Numerical integral  =     9.999999861930
   Relative error      =    11.1111095770 %
 ---------------------------------------
  Cycle       Energy         DIIS Error
 ---------------------------------------
    1    -100.3475079827      4.59E-02
    2     -99.7757915710      1.48E-02
    3     -99.8272056094      8.83E-03
    4     -99.8389710050      8.02E-04
    5     -99.8392243864      2.08E-04
    6     -99.8392839361      9.60E-05
    7     -99.8393216913      6.77E-05
    8     -99.8393577257      2.08E-05
    9     -99.8393610751      1.98E-06 Convergence criterion met
 ---------------------------------------
 One-Electron    Energy =  -144.6533594151
 Total Coulomb   Energy =    49.9741878326
 Alpha Exchange  Energy =    -1.4532575734
 Beta  Exchange  Energy =    -1.1580260678
 DFT   Exchange  Energy =    -7.4822034669
 DFT Correlation Energy =    -0.2941765592
 Nuclear Repu.   Energy =     5.2274741747
 Nuclear Attr.   Energy =  -244.4591958170
 Kinetic         Energy =    99.8058364019
 <S^2> = 0.7517
 SCF time:  CPU 5.47 s  wall 5.78 s
 Final Alpha MO Eigenvalues
            1           2           3           4           5           6
    1 -25.2301072  -2.0280492  -1.3007625  -1.2776701  -1.1780972  -0.2199034
            7           8           9          10
    1  -0.0725204  -0.0153162  -0.0014895   0.0147857
 Final Beta MO Eigenvalues
            1           2           3           4           5           6
    1 -25.1999377  -1.9355065  -1.2685633  -1.1454788  -0.6079732  -0.2140604
            7           8           9
    1  -0.0696553   0.0010004   0.0048356
 Analysis of SCF Wavefunction
 
 --------------------------------------------------------------
                    Orbital Energies (a.u.)
 --------------------------------------------------------------
 
 Alpha MOs
 -- Occupied --
-25.230  -2.028  -1.301  -1.278  -1.178
 -- Virtual --
 -0.220  -0.073  -0.015  -0.001   0.015   0.108   0.246   0.443
  0.457   0.880   0.934   0.980   1.097   1.386   1.590   1.592
  1.856   1.864   1.912   2.854   3.417   3.432   4.104   5.612
  5.701   6.012   6.158   6.168   6.170   6.171   6.558   6.619
  7.925   8.504   8.505   8.693   8.775   9.435  49.473  49.515
 49.596  49.657  49.834  54.954  55.009  55.477  65.985
 
 Beta MOs
 -- Occupied --
-25.200  -1.936  -1.269  -1.145
 -- Virtual --
 -0.608  -0.214  -0.070   0.001   0.005   0.019   0.112   0.251
  0.457   0.459   0.889   0.993   1.008   1.109   1.429   1.664
  1.673   1.860   1.921   1.930   2.877   3.426   3.428   4.111
  5.732   5.763   6.068   6.216   6.224   6.262   6.265   6.631
  6.634   7.952   8.628   8.653   8.798   8.821   9.490  49.559
 49.608  49.667  49.683  49.868  55.028  55.044  55.497  66.017
 --------------------------------------------------------------
 
          Ground-State Mulliken Net Atomic Charges

     Atom                 Charge (a.u.)    Spin (a.u.)
  --------------------------------------------------------
      1 F                     0.499231       1.014649
      2 H                     0.500769      -0.014649
  --------------------------------------------------------
  Sum of atomic charges =     1.000000
  Sum of spin   charges =     1.000000

 -----------------------------------------------------------------
                    Cartesian Multipole Moments
 -----------------------------------------------------------------
    Charge (ESU x 10^10)
                 4.8032
    Dipole Moment (Debye)
         X       0.0000      Y       0.0000      Z       2.5898
       Tot       2.5898
    Quadrupole Moments (Debye-Ang)
        XX      -4.0104     XY       0.3797     YY      -4.0104
        XZ       0.0000     YZ       0.0000     ZZ      -1.4805
    Octapole Moments (Debye-Ang^2)
       XXX       0.0000    XXY       0.0000    XYY       0.0000
       YYY       0.0000    XXZ      -0.2482    XYZ       0.0177
       YYZ      -0.2483    XZZ       0.0000    YZZ       0.0000
       ZZZ       1.8589
    Hexadecapole Moments (Debye-Ang^3)
      XXXX      -1.9354   XXXY       0.1619   XXYY      -0.6452
      XYYY       0.1619   YYYY      -1.9354   XXXZ       0.0000
      XXYZ       0.0000   XYYZ       0.0000   YYYZ       0.0000
      XXZZ      -0.8196   XYZZ       0.0590   YYZZ      -0.8196
      XZZZ       0.0000   YZZZ       0.0000   ZZZZ      -0.3191
 -----------------------------------------------------------------
 Total job time:  5.85s(wall), 5.53s(cpu) 
 Sun Jul  7 09:39:09 2013

        *************************************************************
        *                                                           *
        *  Thank you very much for using Q-Chem.  Have a nice day.  *
        *                                                           *
        *************************************************************


0 sent ACK to 0 
now end server 0 ... 
