Process 0 of 1 is on cl020.stfx.acenet.ca - thread support 1
initial socket setup ...start
initial socket setup ...done 
now start server 0 ... 

cmd = /usr/bin/ssh clhead /usr/local/qchem/bin/get_hostid 1331562689 > /scratch/tmp/6063724.1.short.q/qchem15810/lic.dat
                  Welcome to Q-Chem
     A Quantum Leap Into The Future Of Chemistry

 Y. Shao, L. Fusti-Molnar, Y. Jung, J. Kussmann, C. Ochsenfeld,
 S. T. Brown, A. T. B. Gilbert, L. V. Slipchenko,S. V. Levchenko,
 D. P. O'Neill, R. A. DiStasio Jr., R. C. Lochan, T. Wang,
 G. J. O. Beran, N. A. Besley, J. M. Herbert, C. Y. Lin,
 T. Van Voorhis, S. H. Chien, A. Sodt, R. P. Steele, 
 V. A. Rassolov, P. E. Maslen, P. P. Korambath, R. D. Adamson,
 B. Austin, J. Baker, E. F. C. Byrd, H. Dachsel, R. J. Doerksen,
 A. Dreuw, B. D. Dunietz, A. D. Dutoi, T. R. Furlani,
 S. R. Gwaltney, A. Heyden, S. Hirata, C.-P. Hsu, G. Kedziora,
 R. Z. Khaliullin, P. Klunzinger, A. M. Lee, M. S. Lee, W. Liang,
 I. Lotan, N. Nair, B. Peters, E. I. Proynov, P. A. Pieniazek, 
 Y. M. Rhee, J. Ritchie, E. Rosta, C. D. Sherrill, 
 A. C. Simmonett, J. E. Subotnik, H. L. Woodcock III,
 W. Zhang, A. T. Bell, A. K. Chakraborty, D. M. Chipman,
 F. J. Keil, A. Warshel, W. J. Hehre, H. F. Schaefer III,
 J. Kong, A. I. Krylov, P. M. W. Gill, M. Head-Gordon,
 Q-Chem, Version 3.1, Q-Chem, Inc., Pittsburgh, PA (2007).

 Additional authors for Version 3.1: 
 Z. Gan, Y. Zhao, N. E. Schultz, D. Truhlar, E. Epifanovsky and M. Oana.

 Additional authors for Version 3.2: 
 R. Baer, B. R. Brooks, D. Casanova, J.-D. Chai, C.-L. Cheng, 
 C. Cramer, D. Crittenden, A. Ghysels, G. Hawkins, E. G. Hohenstein, 
 C. Kelley, W. Kurlancheek, D. Liotard, E. Livshits, P. Manohar, 
 A. Marenich, D. Neuhauser, R. Olson, M. A. Rohrdanz, K. S. Thanthiriwatte, 
 A. J. W. Thom, V. Vanovschi, C. F. Williams, Q. Wu and Z.-Q. You. 


 Intel X86 Linux Version

 Q-chem begins on Sun Jul  7 08:40:34 2013  

 Parallel job on  1  processors
Processing $rem in /usr/local/qchem/config/preferences.

theFileMan(): MAXOPENFILES=974 MAX_SUB_FILE_NUM=16
Maximum size of a physical file is 2.0 GB, maximum size of a tmp-file is 32.0 GB


--------------------------------------------------------------
User input:
--------------------------------------------------------------

$molecule
-1,2
C          0.00060        0.00000        0.00599
C         -0.00144        0.00000        1.51271
O          1.34262        0.00000        1.95481
H          1.36080        0.00000        2.91219
H         -0.52814        0.88506        1.88809
H         -0.52814       -0.88506        1.88809
H         -1.01948        0.00000       -0.37883
H          0.51474        0.88308       -0.37260
H          0.51474       -0.88308       -0.37260
$end

$comment
negative
$end

$xc_functional
C PBE   1.00
X wPBE  1.00
$end

$rem
SYMMETRY_DECOMPOSITION	0
exchange 		general
LRC_DFT                 true
BASIS                   g3large
omega			900
mem_static              760
max_scf_cycles          200
scf_final_print         1
sym_ignore              true
$end

--------------------------------------------------------------
 Writing REM_CC_EA            9
 ----------------------------------------------------
       Standard Nuclear Orientation (Angstroms)
    I     Atom         X            Y            Z
 ----------------------------------------------------
    1      C       0.000600     0.000000     0.005990
    2      C      -0.001440     0.000000     1.512710
    3      O       1.342620     0.000000     1.954810
    4      H       1.360800     0.000000     2.912190
    5      H      -0.528140     0.885060     1.888090
    6      H      -0.528140    -0.885060     1.888090
    7      H      -1.019480     0.000000    -0.378830
    8      H       0.514740     0.883080    -0.372600
    9      H       0.514740    -0.883080    -0.372600
 ----------------------------------------------------
 Nuclear Repulsion Energy =    82.1703385088 hartrees
 There are       14 alpha and       13 beta electrons
 Requested basis set is G3large
 There are 66 shells and 186 basis functions

Total QAlloc Memory Limit   2000 MB
Mega-Array Size       743 MB
MEM_STATIC part       760 MB

                       Distance Matrix (Angstroms)
             C (  1)   C (  2)   O (  3)   H (  4)   H (  5)   H (  6)
   C (  2)  1.506721
   O (  3)  2.366203  1.414903
   H (  4)  3.208760  1.953008  0.957553
   H (  5)  2.145972  1.096200  2.070634  2.323834
   H (  6)  2.145972  1.096200  2.070634  2.323834  1.770120
   H (  7)  1.090252  2.148099  3.320451  4.061594  2.482674  2.482674
   H (  8)  1.089725  2.144916  2.623367  3.505067  2.489643  3.053627
   H (  9)  1.089725  2.144916  2.623367  3.505067  3.053627  2.489643
             H (  7)   H (  8)
   H (  8)  1.770226
   H (  9)  1.770226  1.766160
 
 A cutoff of  1.0D-08 yielded   2117 shell pairs
 There are  16833 function pairs ( 20304 Cartesian)
Evaluating contribution to one-electron hamiltonian from nuclear
 Smallest overlap matrix eigenvalue = 9.78E-05

 Q-Chem warning in module mkSTV.C, line 194:

 Overlap eigenvalue is smaller than square root of threshold

 Multipole matrices computed through 2nd order

  Scale SEOQF with 1.000000e-01/1.000000e-01/1.000000e-01

 Standard Electronic Orientation quadrupole field applied
 Nucleus-field energy     =    -0.0000000056 hartrees
 Guess from superposition of atomic densities
 Warning:  Energy on first SCF cycle will be non-variational
 Long-range K will be added via erf
 Coulomb attenuation parameter = 0.9 bohr**(-1)
 An unrestricted Kohn-Sham SCF calculation will be
 performed using Pulay DIIS extrapolation
 Exchange:  wPBE + LR-HF      Correlation:  PBE
 Using SG-1 standard quadrature grid
 SCF converges when DIIS error is below 1.0E-05
 Requested basis set is G3large
 There are 66 shells and 186 basis functions
 A cutoff of  1.0D-08 yielded   2117 shell pairs
 There are  16833 function pairs ( 20304 Cartesian)
 Warning!  Inaccurate integrated density:
   Number of electrons =    27
   Numerical integral  =    25.999923725395
   Relative error      =    -3.7039862022 %
 ---------------------------------------
  Cycle       Energy         DIIS Error
 ---------------------------------------
    1    -155.7069612050      3.32E-02
    2    -154.8820140320      4.03E-03
    3    -154.9508189153      2.72E-03
    4    -154.9755231977      5.16E-04
    5    -154.9791322164      1.72E-04
    6    -154.9798746460      6.37E-05
    7    -154.9801811607      3.28E-05
    8    -154.9803468738      2.16E-05
    9    -154.9804763569      1.17E-05
   10    -154.9805155259      4.80E-06 Convergence criterion met
 ---------------------------------------
 One-Electron    Energy =  -376.3020799117
 Total Coulomb   Energy =   160.9021808658
 Alpha Exchange  Energy =    -4.6742847083
 Beta  Exchange  Energy =    -4.5978241195
 DFT   Exchange  Energy =   -11.6232777679
 DFT Correlation Energy =    -0.8555683876
 Nuclear Repu.   Energy =    82.1703385033
 Nuclear Attr.   Energy =  -530.6532708853
 Kinetic         Energy =   154.3511909736
 <S^2> = 0.7501
 SCF time:  CPU 134.81 s  wall 135.42 s
 Final Alpha MO Eigenvalues
            1           2           3           4           5           6
    1 -19.0608745 -10.2695092 -10.2250736  -1.1728539  -0.8833962  -0.7087115
            7           8           9          10          11          12
    1  -0.5801051  -0.5277430  -0.4563160  -0.4285705  -0.4145384  -0.3700842
           13          14          15          16          17          18
    1  -0.3127187   0.0280076   0.1360813   0.1480093   0.1498342   0.1810127
           19
    1   0.1880750
 Final Beta MO Eigenvalues
            1           2           3           4           5           6
    1 -19.0606407 -10.2690382 -10.2250021  -1.1718409  -0.8823464  -0.7067118
            7           8           9          10          11          12
    1  -0.5775566  -0.5274595  -0.4557081  -0.4282528  -0.4144231  -0.3689035
           13          14          15          16          17          18
    1  -0.3124917   0.1367755   0.1573103   0.1605154   0.1620710   0.1886636
 Analysis of SCF Wavefunction
 
 --------------------------------------------------------------
                    Orbital Energies (a.u.)
 --------------------------------------------------------------
 
 Alpha MOs
 -- Occupied --
-19.061 -10.270 -10.225  -1.173  -0.883  -0.709  -0.580  -0.528
 -0.456  -0.429  -0.415  -0.370  -0.313   0.028
 -- Virtual --
  0.136   0.148   0.150   0.181   0.188   0.236   0.251   0.252
  0.268   0.284   0.292   0.306   0.308   0.391   0.394   0.411
  0.432   0.436   0.457   0.480   0.483   0.490   0.513   0.564
  0.601   0.664   0.667   0.699   0.717   0.781   0.818   0.820
  0.830   0.845   0.863   0.884   0.898   0.909   0.935   1.007
  1.022   1.089   1.093   1.152   1.153   1.208   1.310   1.320
  1.343   1.357   1.411   1.432   1.449   1.452   1.486   1.495
  1.557   1.603   1.605   1.633   1.675   1.705   1.721   1.754
  1.766   1.780   1.804   1.841   1.871   1.917   2.054   2.195
  2.354   2.404   2.594   2.680   2.753   2.828   2.902   2.948
  2.963   3.118   3.194   3.202   3.213   3.286   3.404   3.421
  3.443   3.445   3.565   3.573   3.584   3.649   3.687   3.749
  3.786   3.897   3.903   3.905   3.918   3.967   4.048   4.104
  4.138   4.211   4.263   4.312   4.371   4.410   4.432   4.437
  4.553   4.597   4.608   4.633   4.640   4.713   4.741   4.831
  4.843   4.885   4.962   4.965   5.033   5.439   5.549   5.603
  5.614   5.748   5.871   5.899   5.957   6.006   6.065   6.067
  6.277   6.367   6.866   7.415   7.600   7.633   7.670   7.978
  8.091  24.590  24.772  28.057  28.427  28.460  28.516  28.539
 28.747  41.335  41.362  41.387  41.487  41.534  41.576  41.583
 41.618  41.619  41.662  44.258  44.273  44.320  44.381  44.426
 46.096  46.412  46.832  50.317
 
 Beta MOs
 -- Occupied --
-19.061 -10.269 -10.225  -1.172  -0.882  -0.707  -0.578  -0.527
 -0.456  -0.428  -0.414  -0.369  -0.312
 -- Virtual --
  0.137   0.157   0.161   0.162   0.189   0.194   0.238   0.250
  0.251   0.267   0.284   0.294   0.307   0.308   0.392   0.394
  0.411   0.430   0.435   0.456   0.479   0.481   0.488   0.510
  0.562   0.600   0.662   0.666   0.699   0.715   0.779   0.816
  0.818   0.830   0.843   0.862   0.883   0.896   0.907   0.934
  1.008   1.021   1.089   1.093   1.152   1.152   1.208   1.310
  1.320   1.343   1.357   1.411   1.432   1.449   1.451   1.486
  1.495   1.557   1.603   1.605   1.633   1.675   1.704   1.720
  1.754   1.765   1.779   1.803   1.841   1.871   1.917   2.054
  2.195   2.354   2.404   2.594   2.680   2.753   2.828   2.902
  2.948   2.963   3.118   3.194   3.202   3.214   3.286   3.405
  3.421   3.443   3.445   3.565   3.573   3.584   3.650   3.687
  3.750   3.786   3.898   3.903   3.906   3.918   3.968   4.049
  4.104   4.138   4.212   4.264   4.312   4.371   4.410   4.432
  4.437   4.553   4.597   4.608   4.633   4.640   4.714   4.741
  4.831   4.843   4.885   4.962   4.965   5.033   5.439   5.550
  5.603   5.614   5.748   5.871   5.899   5.957   6.006   6.065
  6.067   6.277   6.368   6.867   7.415   7.600   7.634   7.671
  7.979   8.091  24.590  24.772  28.057  28.428  28.460  28.516
 28.539  28.748  41.335  41.363  41.388  41.487  41.534  41.576
 41.583  41.619  41.619  41.662  44.258  44.273  44.321  44.381
 44.426  46.096  46.412  46.833  50.317
 --------------------------------------------------------------
 
          Ground-State Mulliken Net Atomic Charges

     Atom                 Charge (a.u.)    Spin (a.u.)
  --------------------------------------------------------
      1 C                    -0.583408       0.380048
      2 C                     3.305056      -3.361606
      3 O                    -0.535998       0.175827
      4 H                    -0.521186       0.802465
      5 H                    -1.238242       1.311446
      6 H                    -1.255334       1.328939
      7 H                    -0.158792       0.210645
      8 H                    -0.004667       0.074603
      9 H                    -0.007430       0.077633
  --------------------------------------------------------
  Sum of atomic charges =    -1.000000
  Sum of spin   charges =     1.000000

 -----------------------------------------------------------------
                    Cartesian Multipole Moments
 -----------------------------------------------------------------
    Charge (ESU x 10^10)
                -4.8032
    Dipole Moment (Debye)
         X       0.3392      Y       0.0549      Z     -12.9218
       Tot      12.9264
    Quadrupole Moments (Debye-Ang)
        XX     -47.0979     XY      -0.0467     YY     -44.1290
        XZ      -1.2149     YZ       0.1195     ZZ     -74.3131
    Octapole Moments (Debye-Ang^2)
       XXX      -8.7725    XXY       0.2211    XYY       3.7449
       YYY       0.6287    XXZ     -87.5649    XYZ      -0.0947
       YYZ     -83.4818    XZZ     -10.6512    YZZ       0.4636
       ZZZ    -311.4350
    Hexadecapole Moments (Debye-Ang^3)
      XXXX    -397.2192   XXXY      -0.3769   XXYY    -121.1647
      XYYY      -0.4281   YYYY    -315.7966   XXXZ     -57.7529
      XXYZ       0.4291   XYYZ      -7.1874   YYYZ       1.2150
      XXZZ    -312.6960   XYZZ      -0.2986   YYZZ    -289.8406
      XZZZ     -91.3098   YZZZ       1.7385   ZZZZ   -1535.0347
 -----------------------------------------------------------------
 Total job time:  135.68s(wall), 135.06s(cpu) 
 Sun Jul  7 08:42:50 2013

        *************************************************************
        *                                                           *
        *  Thank you very much for using Q-Chem.  Have a nice day.  *
        *                                                           *
        *************************************************************


0 sent ACK to 0 
now end server 0 ... 
 
**********************************************************************
Job 2 of 3 
**********************************************************************
 
Process 0 of 1 is on cl020.stfx.acenet.ca - thread support 1
initial socket setup ...start
initial socket setup ...done 
now start server 0 ... 

cmd = /usr/bin/ssh clhead /usr/local/qchem/bin/get_hostid 1237871504 > /scratch/tmp/6063724.1.short.q/qchem15810/lic.dat
                  Welcome to Q-Chem
     A Quantum Leap Into The Future Of Chemistry

 Y. Shao, L. Fusti-Molnar, Y. Jung, J. Kussmann, C. Ochsenfeld,
 S. T. Brown, A. T. B. Gilbert, L. V. Slipchenko,S. V. Levchenko,
 D. P. O'Neill, R. A. DiStasio Jr., R. C. Lochan, T. Wang,
 G. J. O. Beran, N. A. Besley, J. M. Herbert, C. Y. Lin,
 T. Van Voorhis, S. H. Chien, A. Sodt, R. P. Steele, 
 V. A. Rassolov, P. E. Maslen, P. P. Korambath, R. D. Adamson,
 B. Austin, J. Baker, E. F. C. Byrd, H. Dachsel, R. J. Doerksen,
 A. Dreuw, B. D. Dunietz, A. D. Dutoi, T. R. Furlani,
 S. R. Gwaltney, A. Heyden, S. Hirata, C.-P. Hsu, G. Kedziora,
 R. Z. Khaliullin, P. Klunzinger, A. M. Lee, M. S. Lee, W. Liang,
 I. Lotan, N. Nair, B. Peters, E. I. Proynov, P. A. Pieniazek, 
 Y. M. Rhee, J. Ritchie, E. Rosta, C. D. Sherrill, 
 A. C. Simmonett, J. E. Subotnik, H. L. Woodcock III,
 W. Zhang, A. T. Bell, A. K. Chakraborty, D. M. Chipman,
 F. J. Keil, A. Warshel, W. J. Hehre, H. F. Schaefer III,
 J. Kong, A. I. Krylov, P. M. W. Gill, M. Head-Gordon,
 Q-Chem, Version 3.1, Q-Chem, Inc., Pittsburgh, PA (2007).

 Additional authors for Version 3.1: 
 Z. Gan, Y. Zhao, N. E. Schultz, D. Truhlar, E. Epifanovsky and M. Oana.

 Additional authors for Version 3.2: 
 R. Baer, B. R. Brooks, D. Casanova, J.-D. Chai, C.-L. Cheng, 
 C. Cramer, D. Crittenden, A. Ghysels, G. Hawkins, E. G. Hohenstein, 
 C. Kelley, W. Kurlancheek, D. Liotard, E. Livshits, P. Manohar, 
 A. Marenich, D. Neuhauser, R. Olson, M. A. Rohrdanz, K. S. Thanthiriwatte, 
 A. J. W. Thom, V. Vanovschi, C. F. Williams, Q. Wu and Z.-Q. You. 


 Intel X86 Linux Version

 Q-chem begins on Sun Jul  7 08:42:52 2013  

 Parallel job on  1  processors
Processing $rem in /usr/local/qchem/config/preferences.

theFileMan(): MAXOPENFILES=974 MAX_SUB_FILE_NUM=16
Maximum size of a physical file is 2.0 GB, maximum size of a tmp-file is 32.0 GB


--------------------------------------------------------------
User input:
--------------------------------------------------------------

$molecule
0,1
C          0.00060        0.00000        0.00599
C         -0.00144        0.00000        1.51271
O          1.34262        0.00000        1.95481
H          1.36080        0.00000        2.91219
H         -0.52814        0.88506        1.88809
H         -0.52814       -0.88506        1.88809
H         -1.01948        0.00000       -0.37883
H          0.51474        0.88308       -0.37260
H          0.51474       -0.88308       -0.37260
$end

$comment
neutral
$end

$xc_functional
C PBE   1.00
X wPBE  1.00
$end


$rem
SYMMETRY_DECOMPOSITION	0
LRC_DFT                 true
exchange 		general
BASIS                   g3large
omega			900
mem_static              760
max_scf_cycles          200
scf_final_print         1
sym_ignore              true
$end

--------------------------------------------------------------
 Writing REM_CC_EA            9
 ----------------------------------------------------
       Standard Nuclear Orientation (Angstroms)
    I     Atom         X            Y            Z
 ----------------------------------------------------
    1      C       0.000600     0.000000     0.005990
    2      C      -0.001440     0.000000     1.512710
    3      O       1.342620     0.000000     1.954810
    4      H       1.360800     0.000000     2.912190
    5      H      -0.528140     0.885060     1.888090
    6      H      -0.528140    -0.885060     1.888090
    7      H      -1.019480     0.000000    -0.378830
    8      H       0.514740     0.883080    -0.372600
    9      H       0.514740    -0.883080    -0.372600
 ----------------------------------------------------
 Nuclear Repulsion Energy =    82.1703385088 hartrees
 There are       13 alpha and       13 beta electrons
 Requested basis set is G3large
 There are 66 shells and 186 basis functions

Total QAlloc Memory Limit   2000 MB
Mega-Array Size       743 MB
MEM_STATIC part       760 MB

                       Distance Matrix (Angstroms)
             C (  1)   C (  2)   O (  3)   H (  4)   H (  5)   H (  6)
   C (  2)  1.506721
   O (  3)  2.366203  1.414903
   H (  4)  3.208760  1.953008  0.957553
   H (  5)  2.145972  1.096200  2.070634  2.323834
   H (  6)  2.145972  1.096200  2.070634  2.323834  1.770120
   H (  7)  1.090252  2.148099  3.320451  4.061594  2.482674  2.482674
   H (  8)  1.089725  2.144916  2.623367  3.505067  2.489643  3.053627
   H (  9)  1.089725  2.144916  2.623367  3.505067  3.053627  2.489643
             H (  7)   H (  8)
   H (  8)  1.770226
   H (  9)  1.770226  1.766160
 
 A cutoff of  1.0D-08 yielded   2117 shell pairs
 There are  16833 function pairs ( 20304 Cartesian)
Evaluating contribution to one-electron hamiltonian from nuclear
 Smallest overlap matrix eigenvalue = 9.78E-05

 Q-Chem warning in module mkSTV.C, line 194:

 Overlap eigenvalue is smaller than square root of threshold

 Multipole matrices computed through 2nd order

  Scale SEOQF with 1.000000e-01/1.000000e-01/1.000000e-01

 Standard Electronic Orientation quadrupole field applied
 Nucleus-field energy     =    -0.0000000056 hartrees
 Guess from superposition of atomic densities
 Warning:  Energy on first SCF cycle will be non-variational
 Long-range K will be added via erf
 Coulomb attenuation parameter = 0.9 bohr**(-1)
 A restricted Kohn-Sham SCF calculation will be
 performed using Pulay DIIS extrapolation
 Exchange:  wPBE + LR-HF      Correlation:  PBE
 Using SG-1 standard quadrature grid
 SCF converges when DIIS error is below 1.0E-05
 Requested basis set is G3large
 There are 66 shells and 186 basis functions
 A cutoff of  1.0D-08 yielded   2117 shell pairs
 There are  16833 function pairs ( 20304 Cartesian)
 ---------------------------------------
  Cycle       Energy         DIIS Error
 ---------------------------------------
    1    -155.7069612050      3.32E-02
    2    -154.9444925316      3.87E-03
    3    -154.9966257933      2.26E-03
    4    -155.0113324351      5.29E-04
    5    -155.0126687151      1.27E-04
    6    -155.0127710453      3.31E-05
    7    -155.0127792723      8.61E-06 Convergence criterion met
 ---------------------------------------
 One-Electron    Energy =  -372.7702567216
 Total Coulomb   Energy =   157.2583545313
 Alpha Exchange  Energy =    -4.6009401266
 Beta  Exchange  Energy =    -4.6009401266
 DFT   Exchange  Energy =   -11.6211306435
 DFT Correlation Energy =    -0.8482046884
 Nuclear Repu.   Energy =    82.1703385033
 Nuclear Attr.   Energy =  -527.0639905294
 Kinetic         Energy =   154.2937338078
 SCF time:  CPU 73.53 s  wall 74.02 s
 Final Alpha MO Eigenvalues
            1           2           3           4           5           6
    1 -19.2052718 -10.4144205 -10.3502335  -1.3166493  -1.0159161  -0.8440867
            7           8           9          10          11          12
    1  -0.7211798  -0.6667374  -0.5924550  -0.5564298  -0.5446461  -0.5083140
           13          14          15          16          17          18
    1  -0.4562238   0.0389488   0.0548745   0.0636426   0.0658932   0.0885728
 Analysis of SCF Wavefunction
 
 --------------------------------------------------------------
                    Orbital Energies (a.u.)
 --------------------------------------------------------------
 
 Alpha MOs
 -- Occupied --
-19.205 -10.414 -10.350  -1.317  -1.016  -0.844  -0.721  -0.667
 -0.592  -0.556  -0.545  -0.508  -0.456
 -- Virtual --
  0.039   0.055   0.064   0.066   0.089   0.098   0.134   0.146
  0.150   0.157   0.181   0.186   0.199   0.201   0.272   0.275
  0.281   0.308   0.311   0.328   0.356   0.361   0.371   0.389
  0.437   0.474   0.542   0.544   0.570   0.588   0.652   0.688
  0.690   0.699   0.711   0.727   0.751   0.760   0.775   0.816
  0.860   0.894   0.955   0.959   1.012   1.032   1.079   1.176
  1.181   1.206   1.230   1.270   1.297   1.322   1.322   1.352
  1.362   1.427   1.469   1.470   1.498   1.537   1.567   1.587
  1.628   1.629   1.645   1.669   1.710   1.736   1.789   1.917
  2.052   2.213   2.263   2.453   2.537   2.619   2.696   2.765
  2.820   2.827   2.979   3.060   3.065   3.077   3.161   3.269
  3.283   3.308   3.314   3.434   3.438   3.452   3.514   3.552
  3.614   3.648   3.764   3.766   3.774   3.784   3.827   3.909
  3.958   4.002   4.073   4.131   4.182   4.239   4.272   4.298
  4.301   4.416   4.456   4.481   4.501   4.503   4.570   4.603
  4.699   4.709   4.752   4.831   4.833   4.898   5.296   5.413
  5.461   5.471   5.611   5.732   5.757   5.812   5.866   5.938
  5.939   6.134   6.225   6.723   7.272   7.456   7.488   7.527
  7.835   7.948  24.457  24.635  27.922  28.283  28.322  28.391
 28.407  28.613  41.197  41.219  41.262  41.355  41.389  41.438
 41.450  41.475  41.494  41.537  44.113  44.129  44.176  44.236
 44.282  45.952  46.268  46.688  50.173
 --------------------------------------------------------------
 
          Ground-State Mulliken Net Atomic Charges

     Atom                 Charge (a.u.)
  ----------------------------------------
      1 C                    -0.191207
      2 C                    -0.078051
      3 O                    -0.336101
      4 H                     0.257405
      5 H                     0.062511
      6 H                     0.062650
      7 H                     0.054991
      8 H                     0.083988
      9 H                     0.083814
  ----------------------------------------
  Sum of atomic charges =     0.000000

 -----------------------------------------------------------------
                    Cartesian Multipole Moments
 -----------------------------------------------------------------
    Charge (ESU x 10^10)
                 0.0000
    Dipole Moment (Debye)
         X      -1.4596      Y      -0.0001      Z       0.9718
       Tot       1.7536
    Quadrupole Moments (Debye-Ang)
        XX     -22.4433     XY       0.0011     YY     -19.6944
        XZ      -0.7207     YZ      -0.0015     ZZ     -13.3801
    Octapole Moments (Debye-Ang^2)
       XXX     -27.5298    XXY       0.0003    XYY      -7.8858
       YYY      -0.0005    XXZ     -24.0378    XYZ       0.0009
       YYZ     -22.1502    XZZ      -1.3983    YZZ      -0.0034
       ZZZ     -37.3715
    Hexadecapole Moments (Debye-Ang^3)
      XXXX    -102.9495   XXXY       0.0027   XXYY     -22.3954
      XYYY       0.0031   YYYY     -31.9119   XXXZ     -48.3758
      XXYZ      -0.0008   XYYZ     -18.0191   YYYZ      -0.0045
      XXZZ     -54.2987   XYZZ       0.0020   YYZZ     -51.0664
      XZZZ     -10.9748   YZZZ      -0.0106   ZZZZ    -172.8389
 -----------------------------------------------------------------
 Total job time:  74.26s(wall), 73.74s(cpu) 
 Sun Jul  7 08:44:07 2013

        *************************************************************
        *                                                           *
        *  Thank you very much for using Q-Chem.  Have a nice day.  *
        *                                                           *
        *************************************************************


0 sent ACK to 0 
now end server 0 ... 
 
**********************************************************************
Job 3 of 3 
**********************************************************************
 
Process 0 of 1 is on cl020.stfx.acenet.ca - thread support 1
initial socket setup ...start
initial socket setup ...done 
now start server 0 ... 

cmd = /usr/bin/ssh clhead /usr/local/qchem/bin/get_hostid 1444916578 > /scratch/tmp/6063724.1.short.q/qchem15810/lic.dat
                  Welcome to Q-Chem
     A Quantum Leap Into The Future Of Chemistry

 Y. Shao, L. Fusti-Molnar, Y. Jung, J. Kussmann, C. Ochsenfeld,
 S. T. Brown, A. T. B. Gilbert, L. V. Slipchenko,S. V. Levchenko,
 D. P. O'Neill, R. A. DiStasio Jr., R. C. Lochan, T. Wang,
 G. J. O. Beran, N. A. Besley, J. M. Herbert, C. Y. Lin,
 T. Van Voorhis, S. H. Chien, A. Sodt, R. P. Steele, 
 V. A. Rassolov, P. E. Maslen, P. P. Korambath, R. D. Adamson,
 B. Austin, J. Baker, E. F. C. Byrd, H. Dachsel, R. J. Doerksen,
 A. Dreuw, B. D. Dunietz, A. D. Dutoi, T. R. Furlani,
 S. R. Gwaltney, A. Heyden, S. Hirata, C.-P. Hsu, G. Kedziora,
 R. Z. Khaliullin, P. Klunzinger, A. M. Lee, M. S. Lee, W. Liang,
 I. Lotan, N. Nair, B. Peters, E. I. Proynov, P. A. Pieniazek, 
 Y. M. Rhee, J. Ritchie, E. Rosta, C. D. Sherrill, 
 A. C. Simmonett, J. E. Subotnik, H. L. Woodcock III,
 W. Zhang, A. T. Bell, A. K. Chakraborty, D. M. Chipman,
 F. J. Keil, A. Warshel, W. J. Hehre, H. F. Schaefer III,
 J. Kong, A. I. Krylov, P. M. W. Gill, M. Head-Gordon,
 Q-Chem, Version 3.1, Q-Chem, Inc., Pittsburgh, PA (2007).

 Additional authors for Version 3.1: 
 Z. Gan, Y. Zhao, N. E. Schultz, D. Truhlar, E. Epifanovsky and M. Oana.

 Additional authors for Version 3.2: 
 R. Baer, B. R. Brooks, D. Casanova, J.-D. Chai, C.-L. Cheng, 
 C. Cramer, D. Crittenden, A. Ghysels, G. Hawkins, E. G. Hohenstein, 
 C. Kelley, W. Kurlancheek, D. Liotard, E. Livshits, P. Manohar, 
 A. Marenich, D. Neuhauser, R. Olson, M. A. Rohrdanz, K. S. Thanthiriwatte, 
 A. J. W. Thom, V. Vanovschi, C. F. Williams, Q. Wu and Z.-Q. You. 


 Intel X86 Linux Version

 Q-chem begins on Sun Jul  7 08:44:10 2013  

 Parallel job on  1  processors
Processing $rem in /usr/local/qchem/config/preferences.

theFileMan(): MAXOPENFILES=974 MAX_SUB_FILE_NUM=16
Maximum size of a physical file is 2.0 GB, maximum size of a tmp-file is 32.0 GB


--------------------------------------------------------------
User input:
--------------------------------------------------------------

$molecule
1,2
C          0.00060        0.00000        0.00599
C         -0.00144        0.00000        1.51271
O          1.34262        0.00000        1.95481
H          1.36080        0.00000        2.91219
H         -0.52814        0.88506        1.88809
H         -0.52814       -0.88506        1.88809
H         -1.01948        0.00000       -0.37883
H          0.51474        0.88308       -0.37260
H          0.51474       -0.88308       -0.37260
$end

$comment
positive
$end

$xc_functional
C PBE   1.00
X wPBE  1.00
$end

$rem
SYMMETRY_DECOMPOSITION	0
LRC_DFT                 true
exchange 		general
BASIS                   g3large
omega			900
mem_static              760
max_scf_cycles          200
scf_final_print         1
sym_ignore              true
$end

--------------------------------------------------------------
 Writing REM_CC_EA            9
 ----------------------------------------------------
       Standard Nuclear Orientation (Angstroms)
    I     Atom         X            Y            Z
 ----------------------------------------------------
    1      C       0.000600     0.000000     0.005990
    2      C      -0.001440     0.000000     1.512710
    3      O       1.342620     0.000000     1.954810
    4      H       1.360800     0.000000     2.912190
    5      H      -0.528140     0.885060     1.888090
    6      H      -0.528140    -0.885060     1.888090
    7      H      -1.019480     0.000000    -0.378830
    8      H       0.514740     0.883080    -0.372600
    9      H       0.514740    -0.883080    -0.372600
 ----------------------------------------------------
 Nuclear Repulsion Energy =    82.1703385088 hartrees
 There are       13 alpha and       12 beta electrons
 Requested basis set is G3large
 There are 66 shells and 186 basis functions

Total QAlloc Memory Limit   2000 MB
Mega-Array Size       743 MB
MEM_STATIC part       760 MB

                       Distance Matrix (Angstroms)
             C (  1)   C (  2)   O (  3)   H (  4)   H (  5)   H (  6)
   C (  2)  1.506721
   O (  3)  2.366203  1.414903
   H (  4)  3.208760  1.953008  0.957553
   H (  5)  2.145972  1.096200  2.070634  2.323834
   H (  6)  2.145972  1.096200  2.070634  2.323834  1.770120
   H (  7)  1.090252  2.148099  3.320451  4.061594  2.482674  2.482674
   H (  8)  1.089725  2.144916  2.623367  3.505067  2.489643  3.053627
   H (  9)  1.089725  2.144916  2.623367  3.505067  3.053627  2.489643
             H (  7)   H (  8)
   H (  8)  1.770226
   H (  9)  1.770226  1.766160
 
 A cutoff of  1.0D-08 yielded   2117 shell pairs
 There are  16833 function pairs ( 20304 Cartesian)
Evaluating contribution to one-electron hamiltonian from nuclear
 Smallest overlap matrix eigenvalue = 9.78E-05

 Q-Chem warning in module mkSTV.C, line 194:

 Overlap eigenvalue is smaller than square root of threshold

 Multipole matrices computed through 2nd order

  Scale SEOQF with 1.000000e-01/1.000000e-01/1.000000e-01

 Standard Electronic Orientation quadrupole field applied
 Nucleus-field energy     =    -0.0000000056 hartrees
 Guess from superposition of atomic densities
 Warning:  Energy on first SCF cycle will be non-variational
 Long-range K will be added via erf
 Coulomb attenuation parameter = 0.9 bohr**(-1)
 An unrestricted Kohn-Sham SCF calculation will be
 performed using Pulay DIIS extrapolation
 Exchange:  wPBE + LR-HF      Correlation:  PBE
 Using SG-1 standard quadrature grid
 SCF converges when DIIS error is below 1.0E-05
 Requested basis set is G3large
 There are 66 shells and 186 basis functions
 A cutoff of  1.0D-08 yielded   2117 shell pairs
 There are  16833 function pairs ( 20304 Cartesian)
 Warning!  Inaccurate integrated density:
   Number of electrons =    25
   Numerical integral  =    25.999923725395
   Relative error      =     3.9996949016 %
 ---------------------------------------
  Cycle       Energy         DIIS Error
 ---------------------------------------
    1    -155.7069612050      3.32E-02
    2    -154.5026864764      3.46E-03
    3    -154.5760848158      1.54E-03
    4    -154.5895742026      5.32E-04
    5    -154.5964796683      4.71E-04
    6    -154.5995035850      3.23E-04
    7    -154.6054432717      2.43E-04
    8    -154.6098368512      1.12E-04
    9    -154.6101604679      1.23E-04
   10    -154.6106655444      4.85E-05
   11    -154.6107529450      2.90E-05
   12    -154.6108665755      1.84E-05
   13    -154.6109269592      1.99E-05
   14    -154.6109356838      4.30E-06 Convergence criterion met
 ---------------------------------------
 One-Electron    Energy =  -364.9064525776
 Total Coulomb   Energy =   149.4342886968
 Alpha Exchange  Energy =    -4.6739250394
 Beta  Exchange  Energy =    -4.2617367545
 DFT   Exchange  Energy =   -11.5648858337
 DFT Correlation Energy =    -0.8085626787
 Nuclear Repu.   Energy =    82.1703385033
 Nuclear Attr.   Energy =  -518.9280485048
 Kinetic         Energy =   154.0215959272
 <S^2> = 0.7583
 SCF time:  CPU 185.32 s  wall 185.94 s
 Final Alpha MO Eigenvalues
            1           2           3           4           5           6
    1 -19.6770396 -10.6936723 -10.5600002  -1.7485183  -1.2920844  -1.1181623
            7           8           9          10          11          12
    1  -1.0839944  -1.0516781  -0.9510273  -0.8655300  -0.7875226  -0.7669176
           13          14          15          16          17          18
    1  -0.7435489  -0.1339929  -0.0869662  -0.0763127  -0.0721478  -0.0421319
 Final Beta MO Eigenvalues
            1           2           3           4           5           6
    1 -19.6534658 -10.6939401 -10.5600551  -1.6663435  -1.2783269  -1.1102242
            7           8           9          10          11          12
    1  -1.0573892  -0.9263518  -0.8973022  -0.7843599  -0.7641594  -0.7451621
           13          14          15          16          17
    1  -0.3399973  -0.1313279  -0.0854878  -0.0753237  -0.0717409
 Analysis of SCF Wavefunction
 
 --------------------------------------------------------------
                    Orbital Energies (a.u.)
 --------------------------------------------------------------
 
 Alpha MOs
 -- Occupied --
-19.677 -10.694 -10.560  -1.749  -1.292  -1.118  -1.084  -1.052
 -0.951  -0.866  -0.788  -0.767  -0.744
 -- Virtual --
 -0.134  -0.087  -0.076  -0.072  -0.042  -0.030  -0.025  -0.023
 -0.005   0.002   0.019   0.038   0.046   0.057   0.060   0.076
  0.080   0.113   0.124   0.126   0.141   0.143   0.171   0.220
  0.221   0.243   0.332   0.334   0.364   0.373   0.416   0.453
  0.457   0.475   0.484   0.520   0.529   0.538   0.559   0.576
  0.636   0.667   0.723   0.732   0.750   0.838   0.839   0.893
  0.922   0.952   0.975   0.998   1.017   1.104   1.115   1.123
  1.124   1.181   1.198   1.216   1.260   1.271   1.337   1.347
  1.354   1.422   1.424   1.446   1.480   1.496   1.562   1.625
  1.682   1.884   1.910   2.094   2.208   2.371   2.434   2.520
  2.576   2.591   2.708   2.797   2.816   2.817   2.940   3.013
  3.020   3.056   3.074   3.168   3.193   3.205   3.271   3.308
  3.353   3.385   3.489   3.498   3.523   3.555   3.560   3.613
  3.637   3.756   3.796   3.882   3.945   3.981   3.998   4.054
  4.060   4.132   4.160   4.221   4.272   4.273   4.287   4.336
  4.452   4.459   4.512   4.593   4.605   4.652   4.813   5.014
  5.046   5.096   5.257   5.371   5.425   5.469   5.489   5.693
  5.705   5.797   5.867   6.338   6.785   7.001   7.051   7.069
  7.411   7.534  24.210  24.392  27.673  28.002  28.055  28.181
 28.185  28.373  40.932  40.942  41.052  41.109  41.127  41.158
 41.191  41.245  41.283  41.328  43.618  43.625  43.682  43.778
 43.829  45.454  45.809  46.229  49.704
 
 Beta MOs
 -- Occupied --
-19.653 -10.694 -10.560  -1.666  -1.278  -1.110  -1.057  -0.926
 -0.897  -0.784  -0.764  -0.745
 -- Virtual --
 -0.340  -0.131  -0.085  -0.075  -0.072  -0.042  -0.028  -0.024
 -0.022   0.001   0.003   0.021   0.038   0.046   0.059   0.063
  0.085   0.085   0.116   0.124   0.132   0.147   0.154   0.172
  0.220   0.223   0.248   0.335   0.344   0.370   0.374   0.419
  0.459   0.465   0.479   0.488   0.523   0.530   0.544   0.561
  0.589   0.636   0.670   0.725   0.736   0.752   0.842   0.842
  0.905   0.943   0.969   1.001   1.013   1.023   1.106   1.117
  1.125   1.125   1.184   1.218   1.221   1.268   1.273   1.342
  1.354   1.358   1.423   1.427   1.449   1.486   1.497   1.574
  1.640   1.726   1.895   1.949   2.133   2.213   2.379   2.440
  2.520   2.581   2.594   2.711   2.799   2.818   2.821   2.943
  3.015   3.024   3.061   3.075   3.177   3.194   3.207   3.275
  3.308   3.353   3.389   3.492   3.501   3.526   3.557   3.561
  3.622   3.639   3.759   3.800   3.885   3.946   3.987   4.003
  4.058   4.061   4.139   4.166   4.231   4.274   4.278   4.289
  4.343   4.459   4.464   4.516   4.598   4.606   4.658   4.917
  5.067   5.092   5.129   5.286   5.388   5.465   5.475   5.522
  5.705   5.707   5.816   5.875   6.359   6.879   7.066   7.107
  7.138   7.450   7.554  24.210  24.392  27.673  28.001  28.056
 28.181  28.185  28.373  40.933  40.941  41.052  41.109  41.127
 41.157  41.191  41.244  41.283  41.328  43.675  43.693  43.739
 43.794  43.838  45.515  45.823  46.244  49.728
 --------------------------------------------------------------
 
          Ground-State Mulliken Net Atomic Charges

     Atom                 Charge (a.u.)    Spin (a.u.)
  --------------------------------------------------------
      1 C                    -0.152790      -0.001527
      2 C                    -0.204839      -0.055424
      3 O                     0.294115       0.913414
      4 H                     0.341456      -0.024657
      5 H                     0.186522       0.081309
      6 H                     0.186323       0.080670
      7 H                     0.108206      -0.000990
      8 H                     0.120479       0.003506
      9 H                     0.120528       0.003699
  --------------------------------------------------------
  Sum of atomic charges =     1.000000
  Sum of spin   charges =     1.000000

 -----------------------------------------------------------------
                    Cartesian Multipole Moments
 -----------------------------------------------------------------
    Charge (ESU x 10^10)
                 4.8032
    Dipole Moment (Debye)
         X       2.0574      Y       0.0001      Z       9.1329
       Tot       9.3617
    Quadrupole Moments (Debye-Ang)
        XX     -13.0248     XY      -0.0023     YY     -15.6399
        XZ       7.3417     YZ       0.0007     ZZ       6.8140
    Octapole Moments (Debye-Ang^2)
       XXX     -15.6588    XXY      -0.0024    XYY      -6.0197
       YYY       0.0001    XXZ      -6.8279    XYZ      -0.0040
       YYZ     -15.8925    XZZ      17.4672    YZZ       0.0013
       ZZZ       9.3179
    Hexadecapole Moments (Debye-Ang^3)
      XXXX     -72.2463   XXXY      -0.0069   XXYY     -15.6582
      XYYY      -0.0022   YYYY     -24.0934   XXXZ     -22.7546
      XXYZ      -0.0040   XYYZ     -14.3926   YYYZ       0.0009
      XXZZ     -14.0299   XYZZ      -0.0081   YYZZ     -36.0894
      XZZZ      37.0664   YZZZ       0.0032   ZZZZ     -47.9868
 -----------------------------------------------------------------
 Total job time:  186.19s(wall), 185.55s(cpu) 
 Sun Jul  7 08:47:16 2013

        *************************************************************
        *                                                           *
        *  Thank you very much for using Q-Chem.  Have a nice day.  *
        *                                                           *
        *************************************************************


0 sent ACK to 0 
now end server 0 ... 
