Process 0 of 1 is on cl132 - thread support 1
initial socket setup ...start
initial socket setup ...done 
now start server 0 ... 

cmd = /usr/bin/ssh clhead /usr/local/qchem/bin/get_hostid 918188692 > /tmp/1603098.1.medium.q/qchem16083/lic.dat

cmd = /usr/bin/ssh clhead /usr/local/qchem/bin/get_hostid 918188692 > /tmp/1603098.1.medium.q/qchem16083/lic.dat

cmd = /usr/bin/ssh clhead /usr/local/qchem/bin/get_hostid 918188692 > /tmp/1603098.1.medium.q/qchem16083/lic.dat

cmd = /usr/bin/ssh clhead /usr/local/qchem/bin/get_hostid 918188692 > /tmp/1603098.1.medium.q/qchem16083/lic.dat

cmd = /usr/bin/ssh clhead /usr/local/qchem/bin/get_hostid 918188692 > /tmp/1603098.1.medium.q/qchem16083/lic.dat
                  Welcome to Q-Chem
     A Quantum Leap Into The Future Of Chemistry

 Y. Shao, L. Fusti-Molnar, Y. Jung, J. Kussmann, C. Ochsenfeld,
 S. T. Brown, A. T. B. Gilbert, L. V. Slipchenko,S. V. Levchenko,
 D. P. O'Neill, R. A. DiStasio Jr., R. C. Lochan, T. Wang,
 G. J. O. Beran, N. A. Besley, J. M. Herbert, C. Y. Lin,
 T. Van Voorhis, S. H. Chien, A. Sodt, R. P. Steele, 
 V. A. Rassolov, P. E. Maslen, P. P. Korambath, R. D. Adamson,
 B. Austin, J. Baker, E. F. C. Byrd, H. Dachsel, R. J. Doerksen,
 A. Dreuw, B. D. Dunietz, A. D. Dutoi, T. R. Furlani,
 S. R. Gwaltney, A. Heyden, S. Hirata, C.-P. Hsu, G. Kedziora,
 R. Z. Khaliullin, P. Klunzinger, A. M. Lee, M. S. Lee, W. Liang,
 I. Lotan, N. Nair, B. Peters, E. I. Proynov, P. A. Pieniazek, 
 Y. M. Rhee, J. Ritchie, E. Rosta, C. D. Sherrill, 
 A. C. Simmonett, J. E. Subotnik, H. L. Woodcock III,
 W. Zhang, A. T. Bell, A. K. Chakraborty, D. M. Chipman,
 F. J. Keil, A. Warshel, W. J. Hehre, H. F. Schaefer III,
 J. Kong, A. I. Krylov, P. M. W. Gill, M. Head-Gordon,
 Q-Chem, Version 3.1, Q-Chem, Inc., Pittsburgh, PA (2007).

 Additional authors for Version 3.1: 
 Z. Gan, Y. Zhao, N. E. Schultz, D. Truhlar, E. Epifanovsky and M. Oana.

 Additional authors for Version 3.2: 
 R. Baer, B. R. Brooks, D. Casanova, J.-D. Chai, C.-L. Cheng, 
 C. Cramer, D. Crittenden, A. Ghysels, G. Hawkins, E. G. Hohenstein, 
 C. Kelley, W. Kurlancheek, D. Liotard, E. Livshits, P. Manohar, 
 A. Marenich, D. Neuhauser, R. Olson, M. A. Rohrdanz, K. S. Thanthiriwatte, 
 A. J. W. Thom, V. Vanovschi, C. F. Williams, Q. Wu and Z.-Q. You. 


 Intel X86 Linux Version

 Q-chem begins on Wed Mar 26 01:40:26 2014  

 Parallel job on  1  processors
Processing $rem in /usr/local/qchem/config/preferences.

theFileMan(): MAXOPENFILES=974 MAX_SUB_FILE_NUM=16
Maximum size of a physical file is 2.0 GB, maximum size of a tmp-file is 32.0 GB


--------------------------------------------------------------
User input:
--------------------------------------------------------------

$molecule
-1,2
C         -0.00003        0.00010        0.99991
C          1.26459        0.75942        0.98847
C          1.26447       -0.75945        0.98840
C         -1.27145        0.00003        0.25190
C         -1.25762        0.00005        1.77082
H          1.57412        1.26097        1.90079
H          1.55767        1.26188        0.07124
H          1.57397       -1.26106        1.90071
H          1.55744       -1.26192        0.07116
H         -1.57709       -0.91495       -0.24713
H         -1.57734        0.91489       -0.24721
H         -1.55434       -0.91483        2.27543
H         -1.55439        0.91487        2.27549
$end

$comment
negative
$end

$xc_functional
C PBE   1.00
X wPBE  1.00
$end

$rem
SYMMETRY_DECOMPOSITION	0
exchange 		general
LRC_DFT                 true
BASIS                   g3large
omega			500
mem_static              760
max_scf_cycles          200
scf_final_print         1
sym_ignore              true
$end

--------------------------------------------------------------
 Writing REM_CC_EA           13
 ----------------------------------------------------
       Standard Nuclear Orientation (Angstroms)
    I     Atom         X            Y            Z
 ----------------------------------------------------
    1      C      -0.000030     0.000100     0.999910
    2      C       1.264590     0.759420     0.988470
    3      C       1.264470    -0.759450     0.988400
    4      C      -1.271450     0.000030     0.251900
    5      C      -1.257620     0.000050     1.770820
    6      H       1.574120     1.260970     1.900790
    7      H       1.557670     1.261880     0.071240
    8      H       1.573970    -1.261060     1.900710
    9      H       1.557440    -1.261920     0.071160
   10      H      -1.577090    -0.914950    -0.247130
   11      H      -1.577340     0.914890    -0.247210
   12      H      -1.554340    -0.914830     2.275430
   13      H      -1.554390     0.914870     2.275490
 ----------------------------------------------------
 Nuclear Repulsion Energy =   171.0336147312 hartrees
 There are       20 alpha and       19 beta electrons
 Requested basis set is G3large
 There are 98 shells and 290 basis functions

Total QAlloc Memory Limit   2000 MB
Mega-Array Size       743 MB
MEM_STATIC part       760 MB

                       Distance Matrix (Angstroms)
             C (  1)   C (  2)   C (  3)   C (  4)   C (  5)   H (  6)
   C (  2)  1.475114
   C (  3)  1.475130  1.518870
   C (  4)  1.475137  2.747855  2.747750
   C (  5)  1.475071  2.747773  2.747719  1.518983
   H (  6)  2.208920  1.086135  2.238400  3.522226  3.102509
   H (  7)  2.209286  1.086127  2.238956  3.103035  3.522307  1.829624
   H (  8)  2.208946  2.238356  1.086146  3.522121  3.102446  2.522030
   H (  9)  2.209295  2.238981  1.086111  3.102870  3.522212  3.116536
   H ( 10)  2.208969  3.522125  3.102447  1.086110  2.238617  4.390708
   H ( 11)  2.209085  3.102844  3.522220  1.086116  2.238660  3.829540
   H ( 12)  2.209056  3.522179  3.102625  2.238676  1.086130  3.829063
   H ( 13)  2.209059  3.102778  3.522204  2.238728  1.086121  3.169820
             H (  7)   H (  8)   H (  9)   H ( 10)   H ( 11)   H ( 12)
   H (  8)  3.116481
   H (  9)  2.523800  1.829625
   H ( 10)  3.829709  3.829124  3.169696
   H ( 11)  3.170189  4.390794  3.829714  1.829840
   H ( 12)  4.391028  3.169639  3.829158  2.522663  3.116427
   H ( 13)  3.829367  3.829069  4.391010  3.116467  2.522804  1.829700

 
 A cutoff of  1.0D-08 yielded   4435 shell pairs
 There are  39245 function pairs ( 48051 Cartesian)
Evaluating contribution to one-electron hamiltonian from nuclear
 Smallest overlap matrix eigenvalue = 2.58E-05

 Q-Chem warning in module mkSTV.C, line 194:

 Overlap eigenvalue is smaller than square root of threshold

 Multipole matrices computed through 2nd order

  Scale SEOQF with 1.000000e-01/1.000000e-01/1.000000e-01

 Standard Electronic Orientation quadrupole field applied
 Nucleus-field energy     =    -0.0000000026 hartrees
 Guess from superposition of atomic densities
 Warning:  Energy on first SCF cycle will be non-variational
 Long-range K will be added via erf
 Coulomb attenuation parameter = 0.5 bohr**(-1)
 An unrestricted Kohn-Sham SCF calculation will be
 performed using Pulay DIIS extrapolation
 Exchange:  wPBE + LR-HF      Correlation:  PBE
 Using SG-1 standard quadrature grid
 SCF converges when DIIS error is below 1.0E-05
 Requested basis set is G3large
 There are 98 shells and 290 basis functions
 A cutoff of  1.0D-08 yielded   4435 shell pairs
 There are  39245 function pairs ( 48051 Cartesian)
 Warning!  Inaccurate integrated density:
   Number of electrons =    39
   Numerical integral  =    37.999765750979
   Relative error      =    -2.5647032026 %
 ---------------------------------------
  Cycle       Energy         DIIS Error
 ---------------------------------------
    1    -197.3952637048      2.94E-02
    2    -195.0414804601      2.74E-03
    3    -195.1380719629      1.81E-03
    4    -195.1733422559      3.10E-04
    5    -195.1768622588      1.26E-04
    6    -195.1774419361      4.30E-05
    7    -195.1776089898      1.66E-05
    8    -195.1776739560      9.96E-06 Convergence criterion met
 ---------------------------------------
 One-Electron    Energy =  -604.5125066180
 Total Coulomb   Energy =   268.4435777985
 Alpha Exchange  Energy =    -4.5223135264
 Beta  Exchange  Energy =    -4.4621803032
 DFT   Exchange  Energy =   -19.9036413750
 DFT Correlation Energy =    -1.2542246604
 Nuclear Repu.   Energy =   171.0336147286
 Nuclear Attr.   Energy =  -798.7072509739
 Kinetic         Energy =   194.1947443559
 <S^2> = 0.7501
 SCF time:  CPU 376.56 s  wall 380.44 s
 Final Alpha MO Eigenvalues
            1           2           3           4           5           6
    1 -10.0485559 -10.0388051 -10.0329967 -10.0322464 -10.0318880  -0.9575194
            7           8           9          10          11          12
    1  -0.8633290  -0.6549877  -0.6513923  -0.5824628  -0.5139971  -0.5042640
           13          14          15          16          17          18
    1  -0.5006293  -0.3863350  -0.3699876  -0.3693130  -0.2956593  -0.2944355
           19          20          21          22          23          24
    1  -0.2809948   0.0349654   0.1275856   0.1279667   0.1301219   0.1588016
           25
    1   0.1590087
 Final Beta MO Eigenvalues
            1           2           3           4           5           6
    1 -10.0485738 -10.0386951 -10.0327765 -10.0320295 -10.0316687  -0.9573983
            7           8           9          10          11          12
    1  -0.8630937  -0.6541147  -0.6503350  -0.5815881  -0.5132228  -0.5040560
           13          14          15          16          17          18
    1  -0.5001394  -0.3861444  -0.3698289  -0.3686857  -0.2954592  -0.2942661
           19          20          21          22          23          24
    1  -0.2804407   0.1258360   0.1388934   0.1409408   0.1446586   0.1598713
 Analysis of SCF Wavefunction
 
 --------------------------------------------------------------
                    Orbital Energies (a.u.)
 --------------------------------------------------------------
 
 Alpha MOs
 -- Occupied --
-10.049 -10.039 -10.033 -10.032 -10.032  -0.958  -0.863  -0.655
 -0.651  -0.582  -0.514  -0.504  -0.501  -0.386  -0.370  -0.369
 -0.296  -0.294  -0.281   0.035
 -- Virtual --
  0.128   0.128   0.130   0.159   0.159   0.163   0.180   0.192
  0.221   0.248   0.250   0.256   0.265   0.267   0.268   0.287
  0.290   0.294   0.307   0.318   0.319   0.327   0.338   0.341
  0.346   0.347   0.367   0.369   0.381   0.427   0.438   0.439
  0.462   0.482   0.488   0.491   0.530   0.555   0.556   0.564
  0.574   0.625   0.675   0.692   0.694   0.696   0.724   0.728
  0.764   0.788   0.789   0.804   0.822   0.830   0.837   0.839
  0.860   0.860   0.869   0.885   0.890   0.893   0.893   0.915
  0.949   1.008   1.043   1.043   1.051   1.068   1.097   1.121
  1.150   1.154   1.155   1.229   1.281   1.283   1.310   1.339
  1.354   1.355   1.371   1.386   1.389   1.415   1.436   1.437
  1.497   1.499   1.549   1.556   1.559   1.589   1.608   1.611
  1.627   1.636   1.656   1.667   1.673   1.707   1.709   1.728
  1.732   1.756   1.805   1.819   1.821   1.833   1.845   1.849
  1.855   1.911   2.028   2.059   2.060   2.085   2.735   2.738
  2.823   2.856   2.889   2.891   2.916   2.923   2.958   2.959
  2.960   3.017   3.048   3.049   3.101   3.158   3.168   3.169
  3.174   3.205   3.261   3.263   3.276   3.287   3.340   3.341
  3.353   3.354   3.372   3.399   3.403   3.446   3.465   3.499
  3.500   3.522   3.548   3.616   3.617   3.624   3.659   3.661
  3.711   3.712   3.724   3.746   3.775   3.776   3.817   3.817
  3.833   3.876   3.876   3.888   3.963   4.061   4.093   4.141
  4.157   4.158   4.216   4.218   4.245   4.331   4.380   4.382
  4.383   4.384   4.414   4.418   4.505   4.529   4.540   4.542
  4.618   4.622   4.627   4.635   4.638   4.679   4.681   4.771
  4.772   4.801   4.802   4.806   4.840   4.879   4.990   5.003
  5.178   5.180   5.251   5.253   5.371   5.538   5.666   5.728
  5.731   5.766   5.880   5.885   5.889   5.922   6.033   6.036
  6.068  24.335  24.360  24.614  24.617  24.686  27.705  27.766
 27.818  27.819  28.206  28.296  28.321  28.322  28.340  28.363
 28.363  28.379  28.764  28.768  29.204  41.095  41.112  41.133
 41.196  41.203  41.207  41.208  41.246  41.250  41.254  41.354
 41.361  41.361  41.366  41.368  41.379  41.401  41.416  41.462
 41.467  41.473  41.476  41.496  41.567  41.568
 
 Beta MOs
 -- Occupied --
-10.049 -10.039 -10.033 -10.032 -10.032  -0.957  -0.863  -0.654
 -0.650  -0.582  -0.513  -0.504  -0.500  -0.386  -0.370  -0.369
 -0.295  -0.294  -0.280
 -- Virtual --
  0.126   0.139   0.141   0.145   0.160   0.165   0.167   0.182
  0.189   0.219   0.243   0.244   0.249   0.258   0.261   0.262
  0.286   0.287   0.294   0.303   0.316   0.317   0.322   0.332
  0.337   0.339   0.341   0.363   0.365   0.379   0.423   0.438
  0.438   0.461   0.479   0.486   0.486   0.528   0.551   0.552
  0.560   0.572   0.623   0.673   0.690   0.691   0.694   0.722
  0.726   0.761   0.786   0.788   0.801   0.820   0.827   0.836
  0.838   0.858   0.858   0.867   0.884   0.887   0.890   0.891
  0.915   0.948   1.008   1.043   1.043   1.051   1.069   1.097
  1.121   1.150   1.153   1.155   1.229   1.282   1.283   1.310
  1.339   1.354   1.355   1.371   1.386   1.389   1.415   1.436
  1.436   1.497   1.499   1.549   1.556   1.559   1.589   1.607
  1.610   1.627   1.635   1.655   1.667   1.671   1.707   1.708
  1.728   1.732   1.755   1.805   1.818   1.821   1.833   1.845
  1.849   1.854   1.912   2.028   2.059   2.060   2.085   2.735
  2.738   2.823   2.855   2.889   2.890   2.916   2.923   2.958
  2.959   2.960   3.017   3.048   3.049   3.101   3.158   3.168
  3.170   3.174   3.205   3.261   3.263   3.276   3.287   3.340
  3.341   3.353   3.354   3.372   3.399   3.403   3.446   3.465
  3.500   3.500   3.522   3.548   3.617   3.617   3.624   3.659
  3.661   3.711   3.713   3.724   3.746   3.775   3.777   3.817
  3.817   3.833   3.876   3.876   3.888   3.963   4.061   4.094
  4.141   4.156   4.158   4.217   4.218   4.245   4.331   4.381
  4.382   4.383   4.384   4.414   4.418   4.505   4.529   4.540
  4.542   4.618   4.622   4.628   4.635   4.638   4.679   4.681
  4.771   4.772   4.801   4.803   4.806   4.841   4.879   4.990
  5.004   5.178   5.181   5.251   5.253   5.372   5.539   5.666
  5.728   5.731   5.766   5.880   5.886   5.889   5.922   6.033
  6.036   6.068  24.335  24.360  24.614  24.618  24.686  27.705
 27.766  27.818  27.819  28.206  28.296  28.321  28.323  28.340
 28.364  28.364  28.379  28.764  28.768  29.204  41.095  41.112
 41.133  41.196  41.203  41.207  41.208  41.246  41.250  41.254
 41.354  41.361  41.361  41.367  41.368  41.379  41.401  41.416
 41.463  41.467  41.473  41.476  41.497  41.567  41.568
 --------------------------------------------------------------
 
          Ground-State Mulliken Net Atomic Charges

     Atom                 Charge (a.u.)    Spin (a.u.)
  --------------------------------------------------------
      1 C                    -3.848216       4.421307
      2 C                     2.853197      -3.195262
      3 C                     0.106476      -0.411612
      4 C                     1.636255      -1.955856
      5 C                     1.511620      -1.830207
      6 H                    -0.523576       0.620965
      7 H                    -0.553139       0.651752
      8 H                    -0.116735       0.192906
      9 H                    -0.133295       0.210913
     10 H                    -0.158756       0.233682
     11 H                    -0.828235       0.935453
     12 H                    -0.144217       0.218192
     13 H                    -0.801378       0.907766
  --------------------------------------------------------
  Sum of atomic charges =    -1.000000
  Sum of spin   charges =     1.000000

 -----------------------------------------------------------------
                    Cartesian Multipole Moments
 -----------------------------------------------------------------
    Charge (ESU x 10^10)
                -4.8032
    Dipole Moment (Debye)
         X       1.9298      Y      -6.0066      Z      -4.5807
       Tot       7.7965
    Quadrupole Moments (Debye-Ang)
        XX     -74.1776     XY       2.9105     YY     -64.6434
        XZ       2.0596     YZ      -5.8560     ZZ     -65.3940
    Octapole Moments (Debye-Ang^2)
       XXX      29.1944    XXY     -37.3812    XYY      13.6818
       YYY     -81.5373    XXZ     -72.7888    XYZ       2.9444
       YYZ     -63.4173    XZZ      11.1144    YZZ     -38.5678
       ZZZ    -184.2061
    Hexadecapole Moments (Debye-Ang^3)
      XXXX   -1079.6522   XXXY      25.6992   XXYY    -290.2510
      XYYY      28.5337   YYYY    -588.6887   XXXZ      31.2896
      XXYZ     -36.5543   XYYZ      14.5678   YYYZ     -79.9164
      XXZZ    -345.8687   XYZZ      16.6068   YYZZ    -261.5675
      XZZZ      31.7067   YZZZ    -102.6421   ZZZZ    -883.4850
 -----------------------------------------------------------------
 Total job time:  380.93s(wall), 376.95s(cpu) 
 Wed Mar 26 01:46:47 2014

        *************************************************************
        *                                                           *
        *  Thank you very much for using Q-Chem.  Have a nice day.  *
        *                                                           *
        *************************************************************


0 sent ACK to 0 
now end server 0 ... 
 
**********************************************************************
Job 2 of 3 
**********************************************************************
 
Process 0 of 1 is on cl132 - thread support 1
initial socket setup ...start
initial socket setup ...done 
now start server 0 ... 

cmd = /usr/bin/ssh clhead /usr/local/qchem/bin/get_hostid 116130956 > /tmp/1603098.1.medium.q/qchem16083/lic.dat

cmd = /usr/bin/ssh clhead /usr/local/qchem/bin/get_hostid 116130956 > /tmp/1603098.1.medium.q/qchem16083/lic.dat

cmd = /usr/bin/ssh clhead /usr/local/qchem/bin/get_hostid 116130956 > /tmp/1603098.1.medium.q/qchem16083/lic.dat

cmd = /usr/bin/ssh clhead /usr/local/qchem/bin/get_hostid 116130956 > /tmp/1603098.1.medium.q/qchem16083/lic.dat

cmd = /usr/bin/ssh clhead /usr/local/qchem/bin/get_hostid 116130956 > /tmp/1603098.1.medium.q/qchem16083/lic.dat
                  Welcome to Q-Chem
     A Quantum Leap Into The Future Of Chemistry

 Y. Shao, L. Fusti-Molnar, Y. Jung, J. Kussmann, C. Ochsenfeld,
 S. T. Brown, A. T. B. Gilbert, L. V. Slipchenko,S. V. Levchenko,
 D. P. O'Neill, R. A. DiStasio Jr., R. C. Lochan, T. Wang,
 G. J. O. Beran, N. A. Besley, J. M. Herbert, C. Y. Lin,
 T. Van Voorhis, S. H. Chien, A. Sodt, R. P. Steele, 
 V. A. Rassolov, P. E. Maslen, P. P. Korambath, R. D. Adamson,
 B. Austin, J. Baker, E. F. C. Byrd, H. Dachsel, R. J. Doerksen,
 A. Dreuw, B. D. Dunietz, A. D. Dutoi, T. R. Furlani,
 S. R. Gwaltney, A. Heyden, S. Hirata, C.-P. Hsu, G. Kedziora,
 R. Z. Khaliullin, P. Klunzinger, A. M. Lee, M. S. Lee, W. Liang,
 I. Lotan, N. Nair, B. Peters, E. I. Proynov, P. A. Pieniazek, 
 Y. M. Rhee, J. Ritchie, E. Rosta, C. D. Sherrill, 
 A. C. Simmonett, J. E. Subotnik, H. L. Woodcock III,
 W. Zhang, A. T. Bell, A. K. Chakraborty, D. M. Chipman,
 F. J. Keil, A. Warshel, W. J. Hehre, H. F. Schaefer III,
 J. Kong, A. I. Krylov, P. M. W. Gill, M. Head-Gordon,
 Q-Chem, Version 3.1, Q-Chem, Inc., Pittsburgh, PA (2007).

 Additional authors for Version 3.1: 
 Z. Gan, Y. Zhao, N. E. Schultz, D. Truhlar, E. Epifanovsky and M. Oana.

 Additional authors for Version 3.2: 
 R. Baer, B. R. Brooks, D. Casanova, J.-D. Chai, C.-L. Cheng, 
 C. Cramer, D. Crittenden, A. Ghysels, G. Hawkins, E. G. Hohenstein, 
 C. Kelley, W. Kurlancheek, D. Liotard, E. Livshits, P. Manohar, 
 A. Marenich, D. Neuhauser, R. Olson, M. A. Rohrdanz, K. S. Thanthiriwatte, 
 A. J. W. Thom, V. Vanovschi, C. F. Williams, Q. Wu and Z.-Q. You. 


 Intel X86 Linux Version

 Q-chem begins on Wed Mar 26 01:46:53 2014  

 Parallel job on  1  processors
Processing $rem in /usr/local/qchem/config/preferences.

theFileMan(): MAXOPENFILES=974 MAX_SUB_FILE_NUM=16
Maximum size of a physical file is 2.0 GB, maximum size of a tmp-file is 32.0 GB


--------------------------------------------------------------
User input:
--------------------------------------------------------------

$molecule
0,1
C         -0.00003        0.00010        0.99991
C          1.26459        0.75942        0.98847
C          1.26447       -0.75945        0.98840
C         -1.27145        0.00003        0.25190
C         -1.25762        0.00005        1.77082
H          1.57412        1.26097        1.90079
H          1.55767        1.26188        0.07124
H          1.57397       -1.26106        1.90071
H          1.55744       -1.26192        0.07116
H         -1.57709       -0.91495       -0.24713
H         -1.57734        0.91489       -0.24721
H         -1.55434       -0.91483        2.27543
H         -1.55439        0.91487        2.27549
$end

$comment
neutral
$end

$xc_functional
C PBE   1.00
X wPBE  1.00
$end


$rem
SYMMETRY_DECOMPOSITION	0
LRC_DFT                 true
exchange 		general
BASIS                   g3large
omega			500
mem_static              760
max_scf_cycles          200
scf_final_print         1
sym_ignore              true
$end

--------------------------------------------------------------
 Writing REM_CC_EA           13
 ----------------------------------------------------
       Standard Nuclear Orientation (Angstroms)
    I     Atom         X            Y            Z
 ----------------------------------------------------
    1      C      -0.000030     0.000100     0.999910
    2      C       1.264590     0.759420     0.988470
    3      C       1.264470    -0.759450     0.988400
    4      C      -1.271450     0.000030     0.251900
    5      C      -1.257620     0.000050     1.770820
    6      H       1.574120     1.260970     1.900790
    7      H       1.557670     1.261880     0.071240
    8      H       1.573970    -1.261060     1.900710
    9      H       1.557440    -1.261920     0.071160
   10      H      -1.577090    -0.914950    -0.247130
   11      H      -1.577340     0.914890    -0.247210
   12      H      -1.554340    -0.914830     2.275430
   13      H      -1.554390     0.914870     2.275490
 ----------------------------------------------------
 Nuclear Repulsion Energy =   171.0336147312 hartrees
 There are       19 alpha and       19 beta electrons
 Requested basis set is G3large
 There are 98 shells and 290 basis functions

Total QAlloc Memory Limit   2000 MB
Mega-Array Size       743 MB
MEM_STATIC part       760 MB

                       Distance Matrix (Angstroms)
             C (  1)   C (  2)   C (  3)   C (  4)   C (  5)   H (  6)
   C (  2)  1.475114
   C (  3)  1.475130  1.518870
   C (  4)  1.475137  2.747855  2.747750
   C (  5)  1.475071  2.747773  2.747719  1.518983
   H (  6)  2.208920  1.086135  2.238400  3.522226  3.102509
   H (  7)  2.209286  1.086127  2.238956  3.103035  3.522307  1.829624
   H (  8)  2.208946  2.238356  1.086146  3.522121  3.102446  2.522030
   H (  9)  2.209295  2.238981  1.086111  3.102870  3.522212  3.116536
   H ( 10)  2.208969  3.522125  3.102447  1.086110  2.238617  4.390708
   H ( 11)  2.209085  3.102844  3.522220  1.086116  2.238660  3.829540
   H ( 12)  2.209056  3.522179  3.102625  2.238676  1.086130  3.829063
   H ( 13)  2.209059  3.102778  3.522204  2.238728  1.086121  3.169820
             H (  7)   H (  8)   H (  9)   H ( 10)   H ( 11)   H ( 12)
   H (  8)  3.116481
   H (  9)  2.523800  1.829625
   H ( 10)  3.829709  3.829124  3.169696
   H ( 11)  3.170189  4.390794  3.829714  1.829840
   H ( 12)  4.391028  3.169639  3.829158  2.522663  3.116427
   H ( 13)  3.829367  3.829069  4.391010  3.116467  2.522804  1.829700

 
 A cutoff of  1.0D-08 yielded   4435 shell pairs
 There are  39245 function pairs ( 48051 Cartesian)
Evaluating contribution to one-electron hamiltonian from nuclear
 Smallest overlap matrix eigenvalue = 2.58E-05

 Q-Chem warning in module mkSTV.C, line 194:

 Overlap eigenvalue is smaller than square root of threshold

 Multipole matrices computed through 2nd order

  Scale SEOQF with 1.000000e-01/1.000000e-01/1.000000e-01

 Standard Electronic Orientation quadrupole field applied
 Nucleus-field energy     =    -0.0000000026 hartrees
 Guess from superposition of atomic densities
 Warning:  Energy on first SCF cycle will be non-variational
 Long-range K will be added via erf
 Coulomb attenuation parameter = 0.5 bohr**(-1)
 A restricted Kohn-Sham SCF calculation will be
 performed using Pulay DIIS extrapolation
 Exchange:  wPBE + LR-HF      Correlation:  PBE
 Using SG-1 standard quadrature grid
 SCF converges when DIIS error is below 1.0E-05
 Requested basis set is G3large
 There are 98 shells and 290 basis functions
 A cutoff of  1.0D-08 yielded   4435 shell pairs
 There are  39245 function pairs ( 48051 Cartesian)
 ---------------------------------------
  Cycle       Energy         DIIS Error
 ---------------------------------------
    1    -197.3952637048      2.94E-02
    2    -195.1245129369      2.52E-03
    3    -195.1937032234      1.47E-03
    4    -195.2146204079      2.93E-04
    5    -195.2161217886      8.93E-05
    6    -195.2162372742      2.97E-05
    7    -195.2162522229      7.75E-06 Convergence criterion met
 ---------------------------------------
 One-Electron    Energy =  -599.9461493718
 Total Coulomb   Energy =   263.7716205968
 Alpha Exchange  Energy =    -4.4638885309
 Beta  Exchange  Energy =    -4.4638885309
 DFT   Exchange  Energy =   -19.8998717140
 DFT Correlation Energy =    -1.2476894007
 Nuclear Repu.   Energy =   171.0336147286
 Nuclear Attr.   Energy =  -794.0752508942
 Kinetic         Energy =   194.1291015225
 SCF time:  CPU 244.70 s  wall 248.35 s
 Final Alpha MO Eigenvalues
            1           2           3           4           5           6
    1 -10.1697868 -10.1560227 -10.1559054 -10.1556626 -10.1555316  -1.0786989
            7           8           9          10          11          12
    1  -0.9843909  -0.7737930  -0.7737877  -0.7028804  -0.6342994  -0.6236972
           13          14          15          16          17          18
    1  -0.6236782  -0.5072265  -0.4916330  -0.4900586  -0.4162015  -0.4161863
           19          20          21          22          23          24
    1  -0.4019055   0.0431267   0.0544604   0.0544836   0.0594047   0.0779396
 Analysis of SCF Wavefunction
 
 --------------------------------------------------------------
                    Orbital Energies (a.u.)
 --------------------------------------------------------------
 
 Alpha MOs
 -- Occupied --
-10.170 -10.156 -10.156 -10.156 -10.156  -1.079  -0.984  -0.774
 -0.774  -0.703  -0.634  -0.624  -0.624  -0.507  -0.492  -0.490
 -0.416  -0.416  -0.402
 -- Virtual --
  0.043   0.054   0.054   0.059   0.078   0.078   0.082   0.098
  0.103   0.126   0.153   0.153   0.162   0.168   0.169   0.169
  0.190   0.191   0.191   0.204   0.215   0.215   0.223   0.238
  0.240   0.244   0.244   0.256   0.256   0.270   0.316   0.323
  0.323   0.348   0.371   0.371   0.381   0.416   0.443   0.443
  0.455   0.458   0.509   0.561   0.579   0.580   0.580   0.610
  0.610   0.648   0.672   0.672   0.688   0.706   0.712   0.721
  0.721   0.742   0.742   0.753   0.768   0.774   0.775   0.776
  0.795   0.832   0.888   0.923   0.923   0.931   0.947   0.977
  1.001   1.030   1.034   1.034   1.110   1.162   1.162   1.190
  1.219   1.235   1.235   1.251   1.269   1.269   1.295   1.317
  1.317   1.379   1.379   1.430   1.438   1.438   1.469   1.490
  1.490   1.508   1.517   1.537   1.546   1.554   1.589   1.589
  1.610   1.611   1.637   1.686   1.700   1.700   1.713   1.728
  1.728   1.734   1.791   1.908   1.939   1.939   1.964   2.616
  2.616   2.702   2.736   2.769   2.769   2.796   2.802   2.838
  2.838   2.840   2.896   2.928   2.928   2.980   3.037   3.048
  3.048   3.053   3.084   3.141   3.141   3.155   3.166   3.219
  3.219   3.232   3.232   3.251   3.278   3.281   3.325   3.345
  3.379   3.379   3.401   3.427   3.496   3.496   3.503   3.539
  3.539   3.591   3.591   3.602   3.625   3.654   3.655   3.696
  3.697   3.712   3.755   3.755   3.767   3.842   3.940   3.972
  4.020   4.036   4.036   4.096   4.096   4.124   4.210   4.261
  4.261   4.262   4.262   4.295   4.295   4.384   4.409   4.419
  4.421   4.497   4.502   4.506   4.515   4.515   4.559   4.559
  4.650   4.650   4.680   4.683   4.683   4.719   4.758   4.869
  4.882   5.058   5.058   5.131   5.131   5.250   5.417   5.545
  5.608   5.608   5.645   5.762   5.762   5.767   5.801   5.913
  5.913   5.947  24.213  24.238  24.494  24.494  24.565  27.584
 27.644  27.697  27.697  28.084  28.174  28.200  28.200  28.218
 28.242  28.242  28.257  28.644  28.644  29.083  40.973  40.991
 41.011  41.075  41.083  41.083  41.086  41.125  41.130  41.130
 41.233  41.240  41.240  41.245  41.245  41.257  41.279  41.294
 41.343  41.343  41.352  41.353  41.375  41.446  41.446
 --------------------------------------------------------------
 
          Ground-State Mulliken Net Atomic Charges

     Atom                 Charge (a.u.)
  ----------------------------------------
      1 C                     0.514979
      2 C                    -0.304958
      3 C                    -0.305684
      4 C                    -0.305062
      5 C                    -0.304796
      6 H                     0.088167
      7 H                     0.088145
      8 H                     0.088213
      9 H                     0.088171
     10 H                     0.088205
     11 H                     0.088253
     12 H                     0.088160
     13 H                     0.088206
  ----------------------------------------
  Sum of atomic charges =     0.000000

 -----------------------------------------------------------------
                    Cartesian Multipole Moments
 -----------------------------------------------------------------
    Charge (ESU x 10^10)
                 0.0000
    Dipole Moment (Debye)
         X       0.0002      Y      -0.0005      Z       0.0002
       Tot       0.0006
    Quadrupole Moments (Debye-Ang)
        XX     -32.5369     XY       0.0028     YY     -30.3778
        XZ       0.0200     YZ      -0.0003     ZZ     -30.3795
    Octapole Moments (Debye-Ang^2)
       XXX       0.0019    XXY       0.0033    XYY      -0.6140
       YYY       0.0020    XXZ     -32.5230    XYZ       0.0030
       YYZ     -30.3745    XZZ       0.6545    YZZ       0.0018
       ZZZ     -91.1469
    Hexadecapole Moments (Debye-Ang^3)
      XXXX    -344.7962   XXXY       0.0156   XXYY     -65.8366
      XYYY       0.0112   YYYY    -112.4849   XXXZ       1.3334
      XXYZ       0.0022   XYYZ      -0.3107   YYYZ       0.0009
      XXZZ     -98.3582   XYZZ       0.0123   YYZZ     -62.0330
      XZZZ       2.6736   YZZZ       0.0047   ZZZZ    -294.8154
 -----------------------------------------------------------------
 Total job time:  248.83s(wall), 245.08s(cpu) 
 Wed Mar 26 01:51:02 2014

        *************************************************************
        *                                                           *
        *  Thank you very much for using Q-Chem.  Have a nice day.  *
        *                                                           *
        *************************************************************


0 sent ACK to 0 
now end server 0 ... 
 
**********************************************************************
Job 3 of 3 
**********************************************************************
 
Process 0 of 1 is on cl132 - thread support 1
initial socket setup ...start
initial socket setup ...done 
now start server 0 ... 

cmd = /usr/bin/ssh clhead /usr/local/qchem/bin/get_hostid 181441821 > /tmp/1603098.1.medium.q/qchem16083/lic.dat

cmd = /usr/bin/ssh clhead /usr/local/qchem/bin/get_hostid 181441821 > /tmp/1603098.1.medium.q/qchem16083/lic.dat

cmd = /usr/bin/ssh clhead /usr/local/qchem/bin/get_hostid 181441821 > /tmp/1603098.1.medium.q/qchem16083/lic.dat

cmd = /usr/bin/ssh clhead /usr/local/qchem/bin/get_hostid 181441821 > /tmp/1603098.1.medium.q/qchem16083/lic.dat

cmd = /usr/bin/ssh clhead /usr/local/qchem/bin/get_hostid 181441821 > /tmp/1603098.1.medium.q/qchem16083/lic.dat
                  Welcome to Q-Chem
     A Quantum Leap Into The Future Of Chemistry

 Y. Shao, L. Fusti-Molnar, Y. Jung, J. Kussmann, C. Ochsenfeld,
 S. T. Brown, A. T. B. Gilbert, L. V. Slipchenko,S. V. Levchenko,
 D. P. O'Neill, R. A. DiStasio Jr., R. C. Lochan, T. Wang,
 G. J. O. Beran, N. A. Besley, J. M. Herbert, C. Y. Lin,
 T. Van Voorhis, S. H. Chien, A. Sodt, R. P. Steele, 
 V. A. Rassolov, P. E. Maslen, P. P. Korambath, R. D. Adamson,
 B. Austin, J. Baker, E. F. C. Byrd, H. Dachsel, R. J. Doerksen,
 A. Dreuw, B. D. Dunietz, A. D. Dutoi, T. R. Furlani,
 S. R. Gwaltney, A. Heyden, S. Hirata, C.-P. Hsu, G. Kedziora,
 R. Z. Khaliullin, P. Klunzinger, A. M. Lee, M. S. Lee, W. Liang,
 I. Lotan, N. Nair, B. Peters, E. I. Proynov, P. A. Pieniazek, 
 Y. M. Rhee, J. Ritchie, E. Rosta, C. D. Sherrill, 
 A. C. Simmonett, J. E. Subotnik, H. L. Woodcock III,
 W. Zhang, A. T. Bell, A. K. Chakraborty, D. M. Chipman,
 F. J. Keil, A. Warshel, W. J. Hehre, H. F. Schaefer III,
 J. Kong, A. I. Krylov, P. M. W. Gill, M. Head-Gordon,
 Q-Chem, Version 3.1, Q-Chem, Inc., Pittsburgh, PA (2007).

 Additional authors for Version 3.1: 
 Z. Gan, Y. Zhao, N. E. Schultz, D. Truhlar, E. Epifanovsky and M. Oana.

 Additional authors for Version 3.2: 
 R. Baer, B. R. Brooks, D. Casanova, J.-D. Chai, C.-L. Cheng, 
 C. Cramer, D. Crittenden, A. Ghysels, G. Hawkins, E. G. Hohenstein, 
 C. Kelley, W. Kurlancheek, D. Liotard, E. Livshits, P. Manohar, 
 A. Marenich, D. Neuhauser, R. Olson, M. A. Rohrdanz, K. S. Thanthiriwatte, 
 A. J. W. Thom, V. Vanovschi, C. F. Williams, Q. Wu and Z.-Q. You. 


 Intel X86 Linux Version

 Q-chem begins on Wed Mar 26 01:51:14 2014  

 Parallel job on  1  processors
Processing $rem in /usr/local/qchem/config/preferences.

theFileMan(): MAXOPENFILES=974 MAX_SUB_FILE_NUM=16
Maximum size of a physical file is 2.0 GB, maximum size of a tmp-file is 32.0 GB


--------------------------------------------------------------
User input:
--------------------------------------------------------------

$molecule
1,2
C         -0.00003        0.00010        0.99991
C          1.26459        0.75942        0.98847
C          1.26447       -0.75945        0.98840
C         -1.27145        0.00003        0.25190
C         -1.25762        0.00005        1.77082
H          1.57412        1.26097        1.90079
H          1.55767        1.26188        0.07124
H          1.57397       -1.26106        1.90071
H          1.55744       -1.26192        0.07116
H         -1.57709       -0.91495       -0.24713
H         -1.57734        0.91489       -0.24721
H         -1.55434       -0.91483        2.27543
H         -1.55439        0.91487        2.27549
$end

$comment
positive
$end

$xc_functional
C PBE   1.00
X wPBE  1.00
$end

$rem
SYMMETRY_DECOMPOSITION	0
LRC_DFT                 true
exchange 		general
BASIS                   g3large
omega			500
mem_static              760
max_scf_cycles          200
scf_final_print         1
sym_ignore              true
$end

--------------------------------------------------------------
 Writing REM_CC_EA           13
 ----------------------------------------------------
       Standard Nuclear Orientation (Angstroms)
    I     Atom         X            Y            Z
 ----------------------------------------------------
    1      C      -0.000030     0.000100     0.999910
    2      C       1.264590     0.759420     0.988470
    3      C       1.264470    -0.759450     0.988400
    4      C      -1.271450     0.000030     0.251900
    5      C      -1.257620     0.000050     1.770820
    6      H       1.574120     1.260970     1.900790
    7      H       1.557670     1.261880     0.071240
    8      H       1.573970    -1.261060     1.900710
    9      H       1.557440    -1.261920     0.071160
   10      H      -1.577090    -0.914950    -0.247130
   11      H      -1.577340     0.914890    -0.247210
   12      H      -1.554340    -0.914830     2.275430
   13      H      -1.554390     0.914870     2.275490
 ----------------------------------------------------
 Nuclear Repulsion Energy =   171.0336147312 hartrees
 There are       19 alpha and       18 beta electrons
 Requested basis set is G3large
 There are 98 shells and 290 basis functions

Total QAlloc Memory Limit   2000 MB
Mega-Array Size       743 MB
MEM_STATIC part       760 MB

                       Distance Matrix (Angstroms)
             C (  1)   C (  2)   C (  3)   C (  4)   C (  5)   H (  6)
   C (  2)  1.475114
   C (  3)  1.475130  1.518870
   C (  4)  1.475137  2.747855  2.747750
   C (  5)  1.475071  2.747773  2.747719  1.518983
   H (  6)  2.208920  1.086135  2.238400  3.522226  3.102509
   H (  7)  2.209286  1.086127  2.238956  3.103035  3.522307  1.829624
   H (  8)  2.208946  2.238356  1.086146  3.522121  3.102446  2.522030
   H (  9)  2.209295  2.238981  1.086111  3.102870  3.522212  3.116536
   H ( 10)  2.208969  3.522125  3.102447  1.086110  2.238617  4.390708
   H ( 11)  2.209085  3.102844  3.522220  1.086116  2.238660  3.829540
   H ( 12)  2.209056  3.522179  3.102625  2.238676  1.086130  3.829063
   H ( 13)  2.209059  3.102778  3.522204  2.238728  1.086121  3.169820
             H (  7)   H (  8)   H (  9)   H ( 10)   H ( 11)   H ( 12)
   H (  8)  3.116481
   H (  9)  2.523800  1.829625
   H ( 10)  3.829709  3.829124  3.169696
   H ( 11)  3.170189  4.390794  3.829714  1.829840
   H ( 12)  4.391028  3.169639  3.829158  2.522663  3.116427
   H ( 13)  3.829367  3.829069  4.391010  3.116467  2.522804  1.829700

 
 A cutoff of  1.0D-08 yielded   4435 shell pairs
 There are  39245 function pairs ( 48051 Cartesian)
Evaluating contribution to one-electron hamiltonian from nuclear
 Smallest overlap matrix eigenvalue = 2.58E-05

 Q-Chem warning in module mkSTV.C, line 194:

 Overlap eigenvalue is smaller than square root of threshold

 Multipole matrices computed through 2nd order

  Scale SEOQF with 1.000000e-01/1.000000e-01/1.000000e-01

 Standard Electronic Orientation quadrupole field applied
 Nucleus-field energy     =    -0.0000000026 hartrees
 Guess from superposition of atomic densities
 Warning:  Energy on first SCF cycle will be non-variational
 Long-range K will be added via erf
 Coulomb attenuation parameter = 0.5 bohr**(-1)
 An unrestricted Kohn-Sham SCF calculation will be
 performed using Pulay DIIS extrapolation
 Exchange:  wPBE + LR-HF      Correlation:  PBE
 Using SG-1 standard quadrature grid
 SCF converges when DIIS error is below 1.0E-05
 Requested basis set is G3large
 There are 98 shells and 290 basis functions
 A cutoff of  1.0D-08 yielded   4435 shell pairs
 There are  39245 function pairs ( 48051 Cartesian)
 Warning!  Inaccurate integrated density:
   Number of electrons =    37
   Numerical integral  =    37.999765750979
   Relative error      =     2.7020695972 %
 ---------------------------------------
  Cycle       Energy         DIIS Error
 ---------------------------------------
    1    -197.3952637048      2.94E-02
    2    -194.7142116572      2.52E-03
    3    -194.7909170778      1.66E-03
    4    -194.8214173620      3.86E-04
    5    -194.8265705236      1.18E-04
    6    -194.8280105930      7.09E-05
    7    -194.8288017931      4.33E-05
    8    -194.8292693359      2.48E-05
    9    -194.8295023569      2.08E-05
   10    -194.8296509670      1.76E-05
   11    -194.8297891177      1.77E-05
   12    -194.8298074317      1.78E-05
   13    -194.8297653834      1.76E-05
   14    -194.8294454847      1.82E-05
   15    -194.8292285759      1.75E-05
   16    -194.8286172404      4.02E-05
   17    -194.8285623507      6.06E-05
   18    -194.8285796289      1.21E-05
   19    -194.8285511976      2.22E-05
   20    -194.8285605616      7.38E-06 Convergence criterion met
 ---------------------------------------
 One-Electron    Energy =  -590.6662117785
 Total Coulomb   Energy =   254.5441722358
 Alpha Exchange  Energy =    -4.4893378081
 Beta  Exchange  Energy =    -4.2378580414
 DFT   Exchange  Energy =   -19.8042795232
 DFT Correlation Energy =    -1.2086603747
 Nuclear Repu.   Energy =   171.0336147286
 Nuclear Attr.   Energy =  -784.6158251290
 Kinetic         Energy =   193.9496133504
 <S^2> = 0.7547
 SCF time:  CPU 886.58 s  wall 897.05 s
 Final Alpha MO Eigenvalues
            1           2           3           4           5           6
    1 -10.4734116 -10.4302523 -10.4298626 -10.3734711 -10.3732186  -1.3554896
            7           8           9          10          11          12
    1  -1.2334914  -1.0396044  -0.9936120  -0.9534190  -0.8730891  -0.8712962
           13          14          15          16          17          18
    1  -0.8538077  -0.7474684  -0.7338906  -0.7083192  -0.7043256  -0.6612432
           19          20          21          22          23          24
    1  -0.6390317  -0.0880290  -0.0782222  -0.0767767  -0.0680894  -0.0504733
 Final Beta MO Eigenvalues
            1           2           3           4           5           6
    1 -10.4657167 -10.4266984 -10.4262668 -10.3736408 -10.3733969  -1.3285275
            7           8           9          10          11          12
    1  -1.2280461  -1.0039135  -0.9902465  -0.9196873  -0.8674810  -0.8598169
           13          14          15          16          17          18
    1  -0.8259206  -0.7408962  -0.7242645  -0.6977135  -0.6549889  -0.6296373
           19          20          21          22          23
    1  -0.3604314  -0.0874437  -0.0761587  -0.0751594  -0.0675469
 Analysis of SCF Wavefunction
 
 --------------------------------------------------------------
                    Orbital Energies (a.u.)
 --------------------------------------------------------------
 
 Alpha MOs
 -- Occupied --
-10.473 -10.430 -10.430 -10.373 -10.373  -1.355  -1.233  -1.040
 -0.994  -0.953  -0.873  -0.871  -0.854  -0.747  -0.734  -0.708
 -0.704  -0.661  -0.639
 -- Virtual --
 -0.088  -0.078  -0.077  -0.068  -0.050  -0.045  -0.040  -0.034
 -0.025  -0.010  -0.004   0.002   0.018   0.021   0.024   0.027
  0.037   0.040   0.046   0.058   0.060   0.068   0.076   0.085
  0.089   0.090   0.097   0.098   0.099   0.106   0.127   0.135
  0.139   0.166   0.177   0.196   0.197   0.219   0.247   0.248
  0.264   0.290   0.314   0.377   0.378   0.388   0.391   0.411
  0.419   0.447   0.473   0.474   0.479   0.501   0.508   0.514
  0.516   0.522   0.535   0.554   0.562   0.579   0.579   0.590
  0.600   0.646   0.660   0.708   0.719   0.727   0.752   0.762
  0.791   0.822   0.824   0.826   0.907   0.956   0.961   0.982
  0.985   1.024   1.027   1.032   1.052   1.064   1.099   1.105
  1.112   1.161   1.166   1.215   1.217   1.237   1.237   1.263
  1.292   1.293   1.303   1.323   1.323   1.351   1.377   1.383
  1.388   1.408   1.434   1.471   1.484   1.498   1.499   1.506
  1.527   1.528   1.576   1.665   1.693   1.706   1.734   2.363
  2.395   2.448   2.508   2.536   2.543   2.549   2.558   2.577
  2.588   2.615   2.653   2.680   2.687   2.725   2.790   2.796
  2.812   2.814   2.829   2.895   2.897   2.924   2.930   2.947
  2.981   2.985   2.993   3.000   3.035   3.057   3.073   3.096
  3.142   3.144   3.156   3.185   3.259   3.265   3.272   3.288
  3.310   3.340   3.351   3.367   3.387   3.408   3.412   3.452
  3.460   3.486   3.508   3.515   3.516   3.598   3.700   3.733
  3.781   3.795   3.805   3.845   3.867   3.882   3.965   4.013
  4.023   4.028   4.031   4.049   4.075   4.156   4.178   4.181
  4.203   4.250   4.262   4.263   4.285   4.293   4.317   4.321
  4.409   4.410   4.439   4.447   4.454   4.467   4.508   4.607
  4.639   4.783   4.824   4.885   4.885   5.017   5.172   5.301
  5.339   5.379   5.412   5.515   5.530   5.549   5.580   5.652
  5.684   5.689  23.927  23.993  24.220  24.276  24.305  27.326
 27.396  27.409  27.425  27.816  27.931  27.931  27.936  27.960
 27.993  28.006  28.026  28.370  28.426  28.801  40.673  40.717
 40.773  40.806  40.807  40.835  40.855  40.862  40.864  40.912
 40.932  40.953  40.969  40.990  40.993  41.026  41.035  41.047
 41.069  41.078  41.120  41.134  41.135  41.152  41.180
 
 Beta MOs
 -- Occupied --
-10.466 -10.427 -10.426 -10.374 -10.373  -1.329  -1.228  -1.004
 -0.990  -0.920  -0.867  -0.860  -0.826  -0.741  -0.724  -0.698
 -0.655  -0.630
 -- Virtual --
 -0.360  -0.087  -0.076  -0.075  -0.068  -0.045  -0.044  -0.038
 -0.033  -0.025  -0.004   0.003   0.004   0.019   0.025   0.028
  0.029   0.041   0.044   0.047   0.059   0.063   0.069   0.077
  0.089   0.090   0.095   0.097   0.100   0.101   0.107   0.135
  0.137   0.143   0.172   0.187   0.197   0.209   0.221   0.257
  0.260   0.265   0.292   0.317   0.379   0.384   0.393   0.400
  0.413   0.425   0.454   0.474   0.478   0.488   0.509   0.519
  0.520   0.526   0.533   0.535   0.558   0.567   0.582   0.584
  0.595   0.602   0.648   0.668   0.715   0.720   0.729   0.755
  0.766   0.794   0.825   0.828   0.830   0.912   0.960   0.962
  0.987   0.999   1.028   1.035   1.035   1.055   1.071   1.101
  1.109   1.116   1.166   1.173   1.222   1.225   1.238   1.246
  1.271   1.294   1.298   1.309   1.327   1.330   1.353   1.378
  1.388   1.396   1.412   1.436   1.475   1.490   1.500   1.501
  1.513   1.530   1.532   1.578   1.673   1.709   1.709   1.742
  2.374   2.399   2.459   2.514   2.543   2.552   2.563   2.580
  2.582   2.592   2.621   2.659   2.689   2.698   2.739   2.800
  2.805   2.821   2.822   2.841   2.905   2.909   2.928   2.933
  2.968   2.985   2.995   3.001   3.004   3.042   3.063   3.083
  3.107   3.147   3.153   3.166   3.194   3.267   3.268   3.277
  3.300   3.315   3.356   3.362   3.369   3.395   3.417   3.419
  3.465   3.467   3.489   3.519   3.520   3.533   3.610   3.707
  3.741   3.787   3.801   3.812   3.856   3.871   3.892   3.975
  4.023   4.031   4.034   4.037   4.060   4.080   4.161   4.186
  4.187   4.209   4.259   4.268   4.275   4.287   4.297   4.325
  4.333   4.413   4.422   4.446   4.454   4.471   4.473   4.521
  4.615   4.647   4.802   4.826   4.891   4.900   5.022   5.180
  5.310   5.356   5.381   5.418   5.523   5.536   5.554   5.584
  5.666   5.688   5.697  23.934  23.995  24.224  24.275  24.309
 27.331  27.410  27.414  27.429  27.821  27.933  27.938  27.941
 27.962  27.994  28.007  28.027  28.376  28.425  28.805  40.689
 40.726  40.773  40.810  40.813  40.840  40.860  40.862  40.864
 40.912  40.947  40.963  40.972  40.994  40.995  41.026  41.041
 41.047  41.073  41.082  41.122  41.134  41.136  41.162  41.182
 --------------------------------------------------------------
 
          Ground-State Mulliken Net Atomic Charges

     Atom                 Charge (a.u.)    Spin (a.u.)
  --------------------------------------------------------
      1 C                     0.636741       0.420787
      2 C                    -0.200481       0.204331
      3 C                    -0.201195       0.202086
      4 C                    -0.262157       0.003394
      5 C                    -0.262405       0.003299
      6 H                     0.169970       0.021136
      7 H                     0.167987       0.016647
      8 H                     0.168002       0.016923
      9 H                     0.169858       0.021228
     10 H                     0.154231       0.024476
     11 H                     0.152622       0.020600
     12 H                     0.152563       0.020475
     13 H                     0.154265       0.024618
  --------------------------------------------------------
  Sum of atomic charges =     1.000000
  Sum of spin   charges =     1.000000

 -----------------------------------------------------------------
                    Cartesian Multipole Moments
 -----------------------------------------------------------------
    Charge (ESU x 10^10)
                 4.8032
    Dipole Moment (Debye)
         X       1.3429      Y       0.0033      Z       4.7910
       Tot       4.9756
    Quadrupole Moments (Debye-Ang)
        XX     -18.8820     XY       0.0052     YY     -22.6946
        XZ       1.2942     YZ       0.0802     ZZ     -19.6019
    Octapole Moments (Debye-Ang^2)
       XXX       4.6407    XXY       0.0047    XYY       4.2205
       YYY      -0.0020    XXZ     -18.9371    XYZ       0.0112
       YYZ     -22.7360    XZZ       0.3323    YZZ       0.1595
       ZZZ     -68.3413
    Hexadecapole Moments (Debye-Ang^3)
      XXXX    -273.0757   XXXY       0.0290   XXYY     -43.2241
      XYYY       0.0001   YYYY     -88.8050   XXXZ       5.8502
      XXYZ       0.2367   XYYZ       4.4067   YYYZ       0.1126
      XXZZ     -65.5299   XYZZ       0.0137   YYZZ     -44.5667
      XZZZ      -1.1219   YZZZ       0.3527   ZZZZ    -234.7038
 -----------------------------------------------------------------
 Total job time:  897.51s(wall), 886.96s(cpu) 
 Wed Mar 26 02:06:11 2014

        *************************************************************
        *                                                           *
        *  Thank you very much for using Q-Chem.  Have a nice day.  *
        *                                                           *
        *************************************************************


0 sent ACK to 0 
now end server 0 ... 
