Process 0 of 1 is on cl128.stfx.acenet.ca - thread support 1
initial socket setup ...start
initial socket setup ...done 
now start server 0 ... 

cmd = /usr/bin/ssh clhead /usr/local/qchem/bin/get_hostid 1082083952 > /scratch/tmp/5955772.1.short.q/qchem32750/lic.dat
                  Welcome to Q-Chem
     A Quantum Leap Into The Future Of Chemistry

 Y. Shao, L. Fusti-Molnar, Y. Jung, J. Kussmann, C. Ochsenfeld,
 S. T. Brown, A. T. B. Gilbert, L. V. Slipchenko,S. V. Levchenko,
 D. P. O'Neill, R. A. DiStasio Jr., R. C. Lochan, T. Wang,
 G. J. O. Beran, N. A. Besley, J. M. Herbert, C. Y. Lin,
 T. Van Voorhis, S. H. Chien, A. Sodt, R. P. Steele, 
 V. A. Rassolov, P. E. Maslen, P. P. Korambath, R. D. Adamson,
 B. Austin, J. Baker, E. F. C. Byrd, H. Dachsel, R. J. Doerksen,
 A. Dreuw, B. D. Dunietz, A. D. Dutoi, T. R. Furlani,
 S. R. Gwaltney, A. Heyden, S. Hirata, C.-P. Hsu, G. Kedziora,
 R. Z. Khaliullin, P. Klunzinger, A. M. Lee, M. S. Lee, W. Liang,
 I. Lotan, N. Nair, B. Peters, E. I. Proynov, P. A. Pieniazek, 
 Y. M. Rhee, J. Ritchie, E. Rosta, C. D. Sherrill, 
 A. C. Simmonett, J. E. Subotnik, H. L. Woodcock III,
 W. Zhang, A. T. Bell, A. K. Chakraborty, D. M. Chipman,
 F. J. Keil, A. Warshel, W. J. Hehre, H. F. Schaefer III,
 J. Kong, A. I. Krylov, P. M. W. Gill, M. Head-Gordon,
 Q-Chem, Version 3.1, Q-Chem, Inc., Pittsburgh, PA (2007).

 Additional authors for Version 3.1: 
 Z. Gan, Y. Zhao, N. E. Schultz, D. Truhlar, E. Epifanovsky and M. Oana.

 Additional authors for Version 3.2: 
 R. Baer, B. R. Brooks, D. Casanova, J.-D. Chai, C.-L. Cheng, 
 C. Cramer, D. Crittenden, A. Ghysels, G. Hawkins, E. G. Hohenstein, 
 C. Kelley, W. Kurlancheek, D. Liotard, E. Livshits, P. Manohar, 
 A. Marenich, D. Neuhauser, R. Olson, M. A. Rohrdanz, K. S. Thanthiriwatte, 
 A. J. W. Thom, V. Vanovschi, C. F. Williams, Q. Wu and Z.-Q. You. 


 Intel X86 Linux Version

 Q-chem begins on Tue Apr 30 21:21:04 2013  

 Parallel job on  1  processors
Processing $rem in /usr/local/qchem/config/preferences.

theFileMan(): MAXOPENFILES=974 MAX_SUB_FILE_NUM=16
Maximum size of a physical file is 2.0 GB, maximum size of a tmp-file is 32.0 GB


--------------------------------------------------------------
User input:
--------------------------------------------------------------

$molecule
-1,2
NA
CL,1,NaCl

NaCl=2.37576315

$end

$comment
negative
$end

$xc_functional
C PBE   1.00
X wPBE  1.00
$end

$rem
SYMMETRY_DECOMPOSITION	0
exchange 		general
LRC_DFT                 true
BASIS                   g3large
omega			370
mem_static              760
max_scf_cycles          200
scf_final_print         1
sym_ignore              true
$end

--------------------------------------------------------------
 Writing REM_CC_EA            2
 ----------------------------------------------------
       Standard Nuclear Orientation (Angstroms)
    I     Atom         X            Y            Z
 ----------------------------------------------------
    1      Na      0.000000     0.000000     0.000000
    2      Cl      0.000000     0.000000     2.375763
 ----------------------------------------------------
 Nuclear Repulsion Energy =    41.6523584936 hartrees
 There are       15 alpha and       14 beta electrons
 Requested basis set is G3large
 There are 38 shells and 132 basis functions

Total QAlloc Memory Limit   2000 MB
Mega-Array Size       743 MB
MEM_STATIC part       760 MB

                       Distance Matrix (Angstroms)
             Na(  1)
   Cl(  2)  2.375763
 
 A cutoff of  1.0D-08 yielded    685 shell pairs
 There are   8526 function pairs ( 12269 Cartesian)
Evaluating contribution to one-electron hamiltonian from nuclear
 Smallest overlap matrix eigenvalue = 5.89E-04
 Multipole matrices computed through 2nd order

  Scale SEOQF with 1.000000e-01/1.000000e-01/1.000000e-01

 Standard Electronic Orientation quadrupole field applied
 Nucleus-field energy     =    -0.0000000103 hartrees
 Guess from superposition of atomic densities
 Warning:  Energy on first SCF cycle will be non-variational
 Long-range K will be added via erf
 Coulomb attenuation parameter = 0.37 bohr**(-1)
 An unrestricted Kohn-Sham SCF calculation will be
 performed using Pulay DIIS extrapolation
 Exchange:  wPBE + LR-HF      Correlation:  PBE
 Using SG-1 standard quadrature grid
 SCF converges when DIIS error is below 1.0E-05
 Requested basis set is G3large
 There are 38 shells and 132 basis functions
 A cutoff of  1.0D-08 yielded    685 shell pairs
 There are   8526 function pairs ( 12269 Cartesian)
 Warning!  Inaccurate integrated density:
   Number of electrons =    29
   Numerical integral  =    27.999769613993
   Relative error      =    -3.4490702966 %
 ---------------------------------------
  Cycle       Energy         DIIS Error
 ---------------------------------------
    1    -622.1155866618      1.40E-02
    2    -622.3121748029      4.05E-03
    3    -622.3596972780      2.87E-03
    4    -622.3720503043      3.83E-04
    5    -622.3739249003      1.29E-04
    6    -622.3750076234      7.18E-05
    7    -622.3754428014      3.86E-05
    8    -622.3755497794      1.76E-05
    9    -622.3755764549      6.62E-06 Convergence criterion met
 ---------------------------------------
 One-Electron    Energy =  -952.7030696076
 Total Coulomb   Energy =   331.3460243885
 Alpha Exchange  Energy =    -2.8209679494
 Beta  Exchange  Energy =    -2.7371672147
 DFT   Exchange  Energy =   -36.0544906075
 DFT Correlation Energy =    -1.0582639475
 Nuclear Repu.   Energy =    41.6523584833
 Nuclear Attr.   Energy = -1574.1264906301
 Kinetic         Energy =   621.4234210225
 <S^2> = 0.7501
 SCF time:  CPU 41.69 s  wall 43.54 s
 Final Alpha MO Eigenvalues
            1           2           3           4           5           6
    1-100.6083429 -37.9627444  -9.1312709  -6.9442389  -6.9437166  -6.9437164
            7           8           9          10          11          12
    1  -2.1196172  -1.0879029  -1.0879024  -1.0861478  -0.6896720  -0.2289443
           13          14          15          16          17          18
    1  -0.2149692  -0.2149690  -0.0323620   0.0815517   0.0815531   0.0866859
           19          20
    1   0.0970720   0.1359780
 Final Beta MO Eigenvalues
            1           2           3           4           5           6
    1-100.6082679 -37.9623022  -9.1311998  -6.9440437  -6.9436758  -6.9436755
            7           8           9          10          11          12
    1  -2.1187155  -1.0870902  -1.0870900  -1.0847895  -0.6891657  -0.2272272
           13          14          15          16          17          18
    1  -0.2148805  -0.2148801   0.0836563   0.0836590   0.0875207   0.0918179
           19
    1   0.1432584
 Analysis of SCF Wavefunction
 
 --------------------------------------------------------------
                    Orbital Energies (a.u.)
 --------------------------------------------------------------
 
 Alpha MOs
 -- Occupied --
******* -37.963  -9.131  -6.944  -6.944  -6.944  -2.120  -1.088
 -1.088  -1.086  -0.690  -0.229  -0.215  -0.215  -0.032
 -- Virtual --
  0.082   0.082   0.087   0.097   0.136   0.136   0.157   0.218
  0.235   0.235   0.240   0.240   0.241   0.277   0.277   0.280
  0.300   0.300   0.351   0.412   0.422   0.422   0.425   0.425
  0.490   0.490   0.510   0.583   0.583   0.614   0.619   0.619
  0.670   0.670   0.682   0.682   0.683   0.759   0.759   0.847
  0.907   0.907   0.966   1.314   1.314   1.357   1.357   1.375
  1.384   1.391   1.391   1.450   1.450   1.453   1.454   1.536
  1.536   1.594   1.594   1.678   1.760   1.905   1.905   1.997
  2.005   2.077   2.077   2.077   2.506   2.506   2.595   2.681
  4.657   4.657   4.684   4.684   4.706   4.707   4.781   4.858
  4.858   5.153   5.366   5.368   5.434   5.434   5.526   8.902
  8.968   9.324   9.351   9.351   9.909  13.772  13.772  13.789
 13.871  13.876  13.878  13.878  20.813  20.813  20.942  27.337
 27.393  27.418  27.446  27.446  37.054  37.054  37.060  37.060
 37.066  37.070  37.070  96.292 215.746
 
 Beta MOs
 -- Occupied --
******* -37.962  -9.131  -6.944  -6.944  -6.944  -2.119  -1.087
 -1.087  -1.085  -0.689  -0.227  -0.215  -0.215
 -- Virtual --
  0.084   0.084   0.088   0.092   0.143   0.154   0.154   0.171
  0.241   0.245   0.245   0.246   0.246   0.258   0.284   0.285
  0.285   0.307   0.308   0.356   0.417   0.423   0.423   0.424
  0.425   0.492   0.493   0.509   0.583   0.583   0.617   0.618
  0.618   0.670   0.670   0.681   0.681   0.685   0.759   0.759
  0.847   0.908   0.908   0.966   1.313   1.313   1.355   1.355
  1.374   1.384   1.388   1.388   1.449   1.449   1.453   1.454
  1.536   1.536   1.593   1.593   1.677   1.760   1.904   1.904
  1.999   2.006   2.078   2.078   2.079   2.506   2.506   2.596
  2.681   4.658   4.658   4.684   4.684   4.707   4.707   4.781
  4.859   4.859   5.153   5.366   5.368   5.434   5.434   5.526
  8.903   8.969   9.325   9.352   9.352   9.909  13.773  13.773
 13.790  13.871  13.877  13.878  13.878  20.813  20.813  20.942
 27.337  27.393  27.418  27.446  27.446  37.054  37.054  37.060
 37.061  37.066  37.070  37.070  96.293 215.746
 --------------------------------------------------------------
 
          Ground-State Mulliken Net Atomic Charges

     Atom                 Charge (a.u.)    Spin (a.u.)
  --------------------------------------------------------
      1 Na                   -0.244472       1.039188
      2 Cl                   -0.755528      -0.039188
  --------------------------------------------------------
  Sum of atomic charges =    -1.000000
  Sum of spin   charges =     1.000000

 -----------------------------------------------------------------
                    Cartesian Multipole Moments
 -----------------------------------------------------------------
    Charge (ESU x 10^10)
                -4.8032
    Dipole Moment (Debye)
         X       0.0006      Y      -0.0014      Z      -1.5265
       Tot       1.5265
    Quadrupole Moments (Debye-Ang)
        XX     -36.3702     XY      -0.0002     YY     -36.3702
        XZ      -0.0009     YZ       0.0022     ZZ     -67.3478
    Octapole Moments (Debye-Ang^2)
       XXX       0.0082    XXY      -0.0072    XYY       0.0028
       YYY      -0.0216    XXZ      -7.5903    XYZ       0.0003
       YYZ      -7.5904    XZZ       0.0030    YZZ      -0.0076
       ZZZ     -65.1569
    Hexadecapole Moments (Debye-Ang^3)
      XXXX    -263.1261   XXXY      -0.0014   XXYY     -87.7079
      XYYY      -0.0014   YYYY    -263.1260   XXXZ      -0.0101
      XXYZ       0.0087   XYYZ      -0.0034   YYYZ       0.0261
      XXZZ    -209.3118   XYZZ      -0.0004   YYZZ    -209.3118
      XZZZ      -0.0102   YZZZ       0.0266   ZZZZ   -1092.4105
 -----------------------------------------------------------------
 Total job time:  43.71s(wall), 41.84s(cpu) 
 Tue Apr 30 21:21:48 2013

        *************************************************************
        *                                                           *
        *  Thank you very much for using Q-Chem.  Have a nice day.  *
        *                                                           *
        *************************************************************


0 sent ACK to 0 
now end server 0 ... 
 
**********************************************************************
Job 2 of 3 
**********************************************************************
 
Process 0 of 1 is on cl128.stfx.acenet.ca - thread support 1
initial socket setup ...start
initial socket setup ...done 
now start server 0 ... 

cmd = /usr/bin/ssh clhead /usr/local/qchem/bin/get_hostid 1058191349 > /scratch/tmp/5955772.1.short.q/qchem32750/lic.dat
                  Welcome to Q-Chem
     A Quantum Leap Into The Future Of Chemistry

 Y. Shao, L. Fusti-Molnar, Y. Jung, J. Kussmann, C. Ochsenfeld,
 S. T. Brown, A. T. B. Gilbert, L. V. Slipchenko,S. V. Levchenko,
 D. P. O'Neill, R. A. DiStasio Jr., R. C. Lochan, T. Wang,
 G. J. O. Beran, N. A. Besley, J. M. Herbert, C. Y. Lin,
 T. Van Voorhis, S. H. Chien, A. Sodt, R. P. Steele, 
 V. A. Rassolov, P. E. Maslen, P. P. Korambath, R. D. Adamson,
 B. Austin, J. Baker, E. F. C. Byrd, H. Dachsel, R. J. Doerksen,
 A. Dreuw, B. D. Dunietz, A. D. Dutoi, T. R. Furlani,
 S. R. Gwaltney, A. Heyden, S. Hirata, C.-P. Hsu, G. Kedziora,
 R. Z. Khaliullin, P. Klunzinger, A. M. Lee, M. S. Lee, W. Liang,
 I. Lotan, N. Nair, B. Peters, E. I. Proynov, P. A. Pieniazek, 
 Y. M. Rhee, J. Ritchie, E. Rosta, C. D. Sherrill, 
 A. C. Simmonett, J. E. Subotnik, H. L. Woodcock III,
 W. Zhang, A. T. Bell, A. K. Chakraborty, D. M. Chipman,
 F. J. Keil, A. Warshel, W. J. Hehre, H. F. Schaefer III,
 J. Kong, A. I. Krylov, P. M. W. Gill, M. Head-Gordon,
 Q-Chem, Version 3.1, Q-Chem, Inc., Pittsburgh, PA (2007).

 Additional authors for Version 3.1: 
 Z. Gan, Y. Zhao, N. E. Schultz, D. Truhlar, E. Epifanovsky and M. Oana.

 Additional authors for Version 3.2: 
 R. Baer, B. R. Brooks, D. Casanova, J.-D. Chai, C.-L. Cheng, 
 C. Cramer, D. Crittenden, A. Ghysels, G. Hawkins, E. G. Hohenstein, 
 C. Kelley, W. Kurlancheek, D. Liotard, E. Livshits, P. Manohar, 
 A. Marenich, D. Neuhauser, R. Olson, M. A. Rohrdanz, K. S. Thanthiriwatte, 
 A. J. W. Thom, V. Vanovschi, C. F. Williams, Q. Wu and Z.-Q. You. 


 Intel X86 Linux Version

 Q-chem begins on Tue Apr 30 21:21:51 2013  

 Parallel job on  1  processors
Processing $rem in /usr/local/qchem/config/preferences.

theFileMan(): MAXOPENFILES=974 MAX_SUB_FILE_NUM=16
Maximum size of a physical file is 2.0 GB, maximum size of a tmp-file is 32.0 GB


--------------------------------------------------------------
User input:
--------------------------------------------------------------

$molecule
0,1
NA
CL,1,NaCl

NaCl=2.37576315

$end

$comment
neutral
$end

$xc_functional
C PBE   1.00
X wPBE  1.00
$end


$rem
SYMMETRY_DECOMPOSITION	0
LRC_DFT                 true
exchange 		general
BASIS                   g3large
omega			370
mem_static              760
max_scf_cycles          200
scf_final_print         1
sym_ignore              true
$end

--------------------------------------------------------------
 Writing REM_CC_EA            2
 ----------------------------------------------------
       Standard Nuclear Orientation (Angstroms)
    I     Atom         X            Y            Z
 ----------------------------------------------------
    1      Na      0.000000     0.000000     0.000000
    2      Cl      0.000000     0.000000     2.375763
 ----------------------------------------------------
 Nuclear Repulsion Energy =    41.6523584936 hartrees
 There are       14 alpha and       14 beta electrons
 Requested basis set is G3large
 There are 38 shells and 132 basis functions

Total QAlloc Memory Limit   2000 MB
Mega-Array Size       743 MB
MEM_STATIC part       760 MB

                       Distance Matrix (Angstroms)
             Na(  1)
   Cl(  2)  2.375763
 
 A cutoff of  1.0D-08 yielded    685 shell pairs
 There are   8526 function pairs ( 12269 Cartesian)
Evaluating contribution to one-electron hamiltonian from nuclear
 Smallest overlap matrix eigenvalue = 5.89E-04
 Multipole matrices computed through 2nd order

  Scale SEOQF with 1.000000e-01/1.000000e-01/1.000000e-01

 Standard Electronic Orientation quadrupole field applied
 Nucleus-field energy     =    -0.0000000103 hartrees
 Guess from superposition of atomic densities
 Warning:  Energy on first SCF cycle will be non-variational
 Long-range K will be added via erf
 Coulomb attenuation parameter = 0.37 bohr**(-1)
 A restricted Kohn-Sham SCF calculation will be
 performed using Pulay DIIS extrapolation
 Exchange:  wPBE + LR-HF      Correlation:  PBE
 Using SG-1 standard quadrature grid
 SCF converges when DIIS error is below 1.0E-05
 Requested basis set is G3large
 There are 38 shells and 132 basis functions
 A cutoff of  1.0D-08 yielded    685 shell pairs
 There are   8526 function pairs ( 12269 Cartesian)
 ---------------------------------------
  Cycle       Energy         DIIS Error
 ---------------------------------------
    1    -622.1155866618      1.40E-02
    2    -622.3036089645      3.95E-03
    3    -622.3380573559      2.70E-03
    4    -622.3469918767      2.87E-04
    5    -622.3471395491      4.36E-05
    6    -622.3471478644      1.99E-05
    7    -622.3471480082      5.19E-06 Convergence criterion met
 ---------------------------------------
 One-Electron    Energy =  -948.5566643874
 Total Coulomb   Energy =   327.1224063018
 Alpha Exchange  Energy =    -2.7371647259
 Beta  Exchange  Energy =    -2.7371647259
 DFT   Exchange  Energy =   -36.0392699946
 DFT Correlation Energy =    -1.0516489593
 Nuclear Repu.   Energy =    41.6523584833
 Nuclear Attr.   Energy = -1569.8950268116
 Kinetic         Energy =   621.3383624241
 SCF time:  CPU 26.56 s  wall 27.56 s
 Final Alpha MO Eigenvalues
            1           2           3           4           5           6
    1-100.7327989 -38.1533412  -9.2553900  -7.0687640  -7.0676664  -7.0676647
            7           8           9          10          11          12
    1  -2.3088830  -1.2767762  -1.2767755  -1.2748116  -0.8126292  -0.3523063
           13          14          15          16          17          18
    1  -0.3366570  -0.3366484  -0.0219352   0.0123892   0.0123896   0.0137091
           19
    1   0.0269272
 Analysis of SCF Wavefunction
 
 --------------------------------------------------------------
                    Orbital Energies (a.u.)
 --------------------------------------------------------------
 
 Alpha MOs
 -- Occupied --
******* -38.153  -9.255  -7.069  -7.068  -7.068  -2.309  -1.277
 -1.277  -1.275  -0.813  -0.352  -0.337  -0.337
 -- Virtual --
 -0.022   0.012   0.012   0.014   0.027   0.040   0.040   0.058
  0.102   0.115   0.115   0.118   0.118   0.124   0.153   0.153
  0.184   0.204   0.204   0.227   0.284   0.289   0.289   0.295
  0.295   0.352   0.352   0.367   0.445   0.445   0.461   0.480
  0.480   0.494   0.494   0.538   0.538   0.541   0.638   0.638
  0.709   0.769   0.769   0.834   1.157   1.157   1.209   1.209
  1.218   1.218   1.229   1.257   1.329   1.329   1.331   1.331
  1.404   1.404   1.455   1.455   1.530   1.620   1.762   1.762
  1.817   1.825   1.895   1.895   1.897   2.385   2.385   2.421
  2.552   4.486   4.486   4.562   4.562   4.583   4.584   4.657
  4.720   4.720   4.974   5.243   5.246   5.310   5.310   5.396
  8.714   8.779   9.135   9.162   9.162   9.784  13.583  13.583
 13.600  13.682  13.687  13.688  13.688  20.689  20.689  20.818
 27.213  27.268  27.294  27.322  27.322  36.930  36.930  36.936
 36.936  36.941  36.946  36.946  96.102 215.622
 --------------------------------------------------------------
 
          Ground-State Mulliken Net Atomic Charges

     Atom                 Charge (a.u.)
  ----------------------------------------
      1 Na                    0.669156
      2 Cl                   -0.669156
  ----------------------------------------
  Sum of atomic charges =     0.000000

 -----------------------------------------------------------------
                    Cartesian Multipole Moments
 -----------------------------------------------------------------
    Charge (ESU x 10^10)
                 0.0000
    Dipole Moment (Debye)
         X       0.0002      Y      -0.0005      Z      -9.0309
       Tot       9.0309
    Quadrupole Moments (Debye-Ang)
        XX     -19.3508     XY       0.0004     YY     -19.3508
        XZ       0.0003     YZ      -0.0006     ZZ     -36.9053
    Octapole Moments (Debye-Ang^2)
       XXX       0.0008    XXY      -0.0006    XYY       0.0003
       YYY      -0.0019    XXZ     -37.0882    XYZ       0.0004
       YYZ     -37.0883    XZZ       0.0006    YZZ      -0.0014
       ZZZ    -145.0703
    Hexadecapole Moments (Debye-Ang^3)
      XXXX     -25.6817   XXXY       0.0012   XXYY      -8.5599
      XYYY       0.0012   YYYY     -25.6820   XXXZ       0.0010
      XXYZ      -0.0007   XYYZ       0.0003   YYYZ      -0.0021
      XXZZ     -93.5739   XYZZ       0.0007   YYZZ     -93.5740
      XZZZ       0.0018   YZZZ      -0.0038   ZZZZ    -601.2031
 -----------------------------------------------------------------
 Total job time:  27.74s(wall), 26.71s(cpu) 
 Tue Apr 30 21:22:18 2013

        *************************************************************
        *                                                           *
        *  Thank you very much for using Q-Chem.  Have a nice day.  *
        *                                                           *
        *************************************************************


0 sent ACK to 0 
now end server 0 ... 
 
**********************************************************************
Job 3 of 3 
**********************************************************************
 
Process 0 of 1 is on cl128.stfx.acenet.ca - thread support 1
initial socket setup ...start
initial socket setup ...done 
now start server 0 ... 

cmd = /usr/bin/ssh clhead /usr/local/qchem/bin/get_hostid 1280505848 > /scratch/tmp/5955772.1.short.q/qchem32750/lic.dat
                  Welcome to Q-Chem
     A Quantum Leap Into The Future Of Chemistry

 Y. Shao, L. Fusti-Molnar, Y. Jung, J. Kussmann, C. Ochsenfeld,
 S. T. Brown, A. T. B. Gilbert, L. V. Slipchenko,S. V. Levchenko,
 D. P. O'Neill, R. A. DiStasio Jr., R. C. Lochan, T. Wang,
 G. J. O. Beran, N. A. Besley, J. M. Herbert, C. Y. Lin,
 T. Van Voorhis, S. H. Chien, A. Sodt, R. P. Steele, 
 V. A. Rassolov, P. E. Maslen, P. P. Korambath, R. D. Adamson,
 B. Austin, J. Baker, E. F. C. Byrd, H. Dachsel, R. J. Doerksen,
 A. Dreuw, B. D. Dunietz, A. D. Dutoi, T. R. Furlani,
 S. R. Gwaltney, A. Heyden, S. Hirata, C.-P. Hsu, G. Kedziora,
 R. Z. Khaliullin, P. Klunzinger, A. M. Lee, M. S. Lee, W. Liang,
 I. Lotan, N. Nair, B. Peters, E. I. Proynov, P. A. Pieniazek, 
 Y. M. Rhee, J. Ritchie, E. Rosta, C. D. Sherrill, 
 A. C. Simmonett, J. E. Subotnik, H. L. Woodcock III,
 W. Zhang, A. T. Bell, A. K. Chakraborty, D. M. Chipman,
 F. J. Keil, A. Warshel, W. J. Hehre, H. F. Schaefer III,
 J. Kong, A. I. Krylov, P. M. W. Gill, M. Head-Gordon,
 Q-Chem, Version 3.1, Q-Chem, Inc., Pittsburgh, PA (2007).

 Additional authors for Version 3.1: 
 Z. Gan, Y. Zhao, N. E. Schultz, D. Truhlar, E. Epifanovsky and M. Oana.

 Additional authors for Version 3.2: 
 R. Baer, B. R. Brooks, D. Casanova, J.-D. Chai, C.-L. Cheng, 
 C. Cramer, D. Crittenden, A. Ghysels, G. Hawkins, E. G. Hohenstein, 
 C. Kelley, W. Kurlancheek, D. Liotard, E. Livshits, P. Manohar, 
 A. Marenich, D. Neuhauser, R. Olson, M. A. Rohrdanz, K. S. Thanthiriwatte, 
 A. J. W. Thom, V. Vanovschi, C. F. Williams, Q. Wu and Z.-Q. You. 


 Intel X86 Linux Version

 Q-chem begins on Tue Apr 30 21:22:21 2013  

 Parallel job on  1  processors
Processing $rem in /usr/local/qchem/config/preferences.

theFileMan(): MAXOPENFILES=974 MAX_SUB_FILE_NUM=16
Maximum size of a physical file is 2.0 GB, maximum size of a tmp-file is 32.0 GB


--------------------------------------------------------------
User input:
--------------------------------------------------------------

$molecule
1,2
NA
CL,1,NaCl

NaCl=2.37576315

$end

$comment
positive
$end

$xc_functional
C PBE   1.00
X wPBE  1.00
$end

$rem
SYMMETRY_DECOMPOSITION	0
LRC_DFT                 true
exchange 		general
BASIS                   g3large
omega			370
mem_static              760
max_scf_cycles          200
scf_final_print         1
sym_ignore              true
$end

--------------------------------------------------------------
 Writing REM_CC_EA            2
 ----------------------------------------------------
       Standard Nuclear Orientation (Angstroms)
    I     Atom         X            Y            Z
 ----------------------------------------------------
    1      Na      0.000000     0.000000     0.000000
    2      Cl      0.000000     0.000000     2.375763
 ----------------------------------------------------
 Nuclear Repulsion Energy =    41.6523584936 hartrees
 There are       14 alpha and       13 beta electrons
 Requested basis set is G3large
 There are 38 shells and 132 basis functions

Total QAlloc Memory Limit   2000 MB
Mega-Array Size       743 MB
MEM_STATIC part       760 MB

                       Distance Matrix (Angstroms)
             Na(  1)
   Cl(  2)  2.375763
 
 A cutoff of  1.0D-08 yielded    685 shell pairs
 There are   8526 function pairs ( 12269 Cartesian)
Evaluating contribution to one-electron hamiltonian from nuclear
 Smallest overlap matrix eigenvalue = 5.89E-04
 Multipole matrices computed through 2nd order

  Scale SEOQF with 1.000000e-01/1.000000e-01/1.000000e-01

 Standard Electronic Orientation quadrupole field applied
 Nucleus-field energy     =    -0.0000000103 hartrees
 Guess from superposition of atomic densities
 Warning:  Energy on first SCF cycle will be non-variational
 Long-range K will be added via erf
 Coulomb attenuation parameter = 0.37 bohr**(-1)
 An unrestricted Kohn-Sham SCF calculation will be
 performed using Pulay DIIS extrapolation
 Exchange:  wPBE + LR-HF      Correlation:  PBE
 Using SG-1 standard quadrature grid
 SCF converges when DIIS error is below 1.0E-05
 Requested basis set is G3large
 There are 38 shells and 132 basis functions
 A cutoff of  1.0D-08 yielded    685 shell pairs
 There are   8526 function pairs ( 12269 Cartesian)
 Warning!  Inaccurate integrated density:
   Number of electrons =    27
   Numerical integral  =    27.999769613993
   Relative error      =     3.7028504222 %
 ---------------------------------------
  Cycle       Energy         DIIS Error
 ---------------------------------------
    1    -622.1155866618      1.40E-02
    2    -621.9958590631      1.34E-03
    3    -622.0046331470      6.93E-04
    4    -622.0054458679      1.43E-04
    5    -622.0056651697      6.00E-05
    6    -622.0057776911      5.01E-05
    7    -622.0058653456      4.58E-05
    8    -622.0060984341      4.06E-05
    9    -622.0067650234      4.19E-05
   10    -622.0067625309      3.59E-05
   11    -622.0069151907      3.64E-05
   12    -622.0069202284      1.57E-05
   13    -622.0069234538      4.85E-06 Convergence criterion met
 ---------------------------------------
 One-Electron    Energy =  -939.7015876745
 Total Coulomb   Energy =   318.3352976460
 Alpha Exchange  Energy =    -2.7575058820
 Beta  Exchange  Energy =    -2.5735070729
 DFT   Exchange  Energy =   -35.9484484477
 DFT Correlation Energy =    -1.0135305060
 Nuclear Repu.   Energy =    41.6523584833
 Nuclear Attr.   Energy = -1560.8616696275
 Kinetic         Energy =   621.1600819530
 <S^2> = 0.7541
 SCF time:  CPU 58.49 s  wall 60.68 s
 Final Alpha MO Eigenvalues
            1           2           3           4           5           6
    1-101.1271510 -38.3747372  -9.6466059  -7.4757704  -7.4537462  -7.4527249
            7           8           9          10          11          12
    1  -2.5294527  -1.4977340  -1.4968054  -1.4963142  -1.1954971  -0.7426035
           13          14          15          16          17          18
    1  -0.6982023  -0.6831601  -0.1640730  -0.1030336  -0.0998899  -0.0884272
           19
    1  -0.0662482
 Final Beta MO Eigenvalues
            1           2           3           4           5           6
    1-101.1212414 -38.3747504  -9.6412262  -7.4598798  -7.4507560  -7.4487339
            7           8           9          10          11          12
    1  -2.5294691  -1.4977168  -1.4967308  -1.4963278  -1.1371559  -0.6832978
           13          14          15          16          17          18
    1  -0.6678089  -0.3444775  -0.1633032  -0.1000298  -0.0996968  -0.0869377
 Analysis of SCF Wavefunction
 
 --------------------------------------------------------------
                    Orbital Energies (a.u.)
 --------------------------------------------------------------
 
 Alpha MOs
 -- Occupied --
******* -38.375  -9.647  -7.476  -7.454  -7.453  -2.529  -1.498
 -1.497  -1.496  -1.195  -0.743  -0.698  -0.683
 -- Virtual --
 -0.164  -0.103  -0.100  -0.088  -0.066  -0.051  -0.049  -0.045
 -0.027  -0.026  -0.014  -0.012  -0.009  -0.007  -0.006  -0.003
  0.018   0.029   0.035   0.052   0.094   0.096   0.106   0.142
  0.142   0.156   0.173   0.211   0.221   0.222   0.227   0.227
  0.236   0.318   0.318   0.321   0.323   0.332   0.362   0.383
  0.465   0.505   0.523   0.580   0.906   0.908   0.934   0.943
  0.952   0.954   0.977   0.988   0.992   0.992   1.028   1.028
  1.074   1.101   1.173   1.174   1.250   1.356   1.470   1.490
  1.606   1.614   1.682   1.683   1.685   2.005   2.049   2.177
  2.230   4.150   4.151   4.185   4.193   4.203   4.225   4.291
  4.387   4.407   4.736   4.850   4.852   4.919   4.948   5.039
  8.494   8.558   8.916   8.941   8.941   9.403  13.363  13.363
 13.378  13.460  13.466  13.467  13.467  20.281  20.307  20.435
 26.814  26.876  26.901  26.924  26.941  36.533  36.534  36.541
 36.545  36.552  36.561  36.567  95.880 215.228
 
 Beta MOs
 -- Occupied --
******* -38.375  -9.641  -7.460  -7.451  -7.449  -2.529  -1.498
 -1.497  -1.496  -1.137  -0.683  -0.668
 -- Virtual --
 -0.344  -0.163  -0.100  -0.100  -0.087  -0.066  -0.050  -0.049
 -0.045  -0.025  -0.025  -0.012  -0.010  -0.009  -0.006  -0.002
 -0.002   0.019   0.034   0.035   0.055   0.108   0.110   0.112
  0.142   0.142   0.174   0.179   0.216   0.228   0.228   0.235
  0.252   0.256   0.321   0.321   0.322   0.323   0.335   0.387
  0.389   0.470   0.525   0.526   0.591   0.920   0.921   0.954
  0.954   0.964   0.971   1.012   1.014   1.015   1.017   1.042
  1.042   1.103   1.104   1.187   1.189   1.256   1.369   1.492
  1.493   1.606   1.614   1.684   1.684   1.685   2.060   2.063
  2.181   2.239   4.214   4.214   4.227   4.229   4.231   4.234
  4.308   4.410   4.411   4.739   4.868   4.873   4.937   4.949
  5.045   8.494   8.558   8.916   8.941   8.941   9.415  13.363
 13.363  13.378  13.460  13.466  13.467  13.467  20.307  20.314
 20.439  26.828  26.886  26.909  26.936  26.943  36.539  36.540
 36.547  36.549  36.557  36.562  36.568  95.880 215.235
 --------------------------------------------------------------
 
          Ground-State Mulliken Net Atomic Charges

     Atom                 Charge (a.u.)    Spin (a.u.)
  --------------------------------------------------------
      1 Na                    0.860601       0.000897
      2 Cl                    0.139399       0.999103
  --------------------------------------------------------
  Sum of atomic charges =     1.000000
  Sum of spin   charges =     1.000000

 -----------------------------------------------------------------
                    Cartesian Multipole Moments
 -----------------------------------------------------------------
    Charge (ESU x 10^10)
                 4.8032
    Dipole Moment (Debye)
         X       0.0000      Y       0.0000      Z       1.4125
       Tot       1.4125
    Quadrupole Moments (Debye-Ang)
        XX     -14.7588     XY      -0.9817     YY     -14.5803
        XZ      -0.0005     YZ       0.0005     ZZ      -9.6514
    Octapole Moments (Debye-Ang^2)
       XXX       0.0000    XXY       0.0000    XYY       0.0000
       YYY       0.0000    XXZ     -27.3373    XYZ      -2.2618
       YYZ     -26.9260    XZZ      -0.0021    YZZ       0.0022
       ZZZ     -68.5136
    Hexadecapole Moments (Debye-Ang^3)
      XXXX     -13.4929   XXXY      -0.9630   XXYY      -4.4379
      XYYY      -0.9632   YYYY     -13.1428   XXXZ      -0.0004
      XXYZ       0.0001   XYYZ      -0.0001   YYYZ       0.0004
      XXZZ     -68.3785   XYZZ      -5.5504   YYZZ     -67.3690
      XZZZ      -0.0076   YZZZ       0.0082   ZZZZ    -367.9597
 -----------------------------------------------------------------
 Total job time:  60.89s(wall), 58.64s(cpu) 
 Tue Apr 30 21:23:22 2013

        *************************************************************
        *                                                           *
        *  Thank you very much for using Q-Chem.  Have a nice day.  *
        *                                                           *
        *************************************************************


0 sent ACK to 0 
now end server 0 ... 
