Process 0 of 1 is on cl046.dal.acenet.ca - thread support 1
initial socket setup ...start
initial socket setup ...done 
now start server 0 ... 

cmd = /usr/bin/ssh glooscap.ace-net.ca /usr/local/qchem/bin/get_hostid 275289217 > /tmp/179714.1.medium.q/qchem21412/lic.dat
                  Welcome to Q-Chem
     A Quantum Leap Into The Future Of Chemistry

 Y. Shao, L. Fusti-Molnar, Y. Jung, J. Kussmann, C. Ochsenfeld,
 S. T. Brown, A. T. B. Gilbert, L. V. Slipchenko,S. V. Levchenko,
 D. P. O'Neill, R. A. DiStasio Jr., R. C. Lochan, T. Wang,
 G. J. O. Beran, N. A. Besley, J. M. Herbert, C. Y. Lin,
 T. Van Voorhis, S. H. Chien, A. Sodt, R. P. Steele, 
 V. A. Rassolov, P. E. Maslen, P. P. Korambath, R. D. Adamson,
 B. Austin, J. Baker, E. F. C. Byrd, H. Dachsel, R. J. Doerksen,
 A. Dreuw, B. D. Dunietz, A. D. Dutoi, T. R. Furlani,
 S. R. Gwaltney, A. Heyden, S. Hirata, C.-P. Hsu, G. Kedziora,
 R. Z. Khaliullin, P. Klunzinger, A. M. Lee, M. S. Lee, W. Liang,
 I. Lotan, N. Nair, B. Peters, E. I. Proynov, P. A. Pieniazek, 
 Y. M. Rhee, J. Ritchie, E. Rosta, C. D. Sherrill, 
 A. C. Simmonett, J. E. Subotnik, H. L. Woodcock III,
 W. Zhang, A. T. Bell, A. K. Chakraborty, D. M. Chipman,
 F. J. Keil, A. Warshel, W. J. Hehre, H. F. Schaefer III,
 J. Kong, A. I. Krylov, P. M. W. Gill, M. Head-Gordon,
 Q-Chem, Version 3.1, Q-Chem, Inc., Pittsburgh, PA (2007).

 Additional authors for Version 3.1: 
 Z. Gan, Y. Zhao, N. E. Schultz, D. Truhlar, E. Epifanovsky and M. Oana.

 Additional authors for Version 3.2: 
 R. Baer, B. R. Brooks, D. Casanova, J.-D. Chai, C.-L. Cheng, 
 C. Cramer, D. Crittenden, A. Ghysels, G. Hawkins, E. G. Hohenstein, 
 C. Kelley, W. Kurlancheek, D. Liotard, E. Livshits, P. Manohar, 
 A. Marenich, D. Neuhauser, R. Olson, M. A. Rohrdanz, K. S. Thanthiriwatte, 
 A. J. W. Thom, V. Vanovschi, C. F. Williams, Q. Wu and Z.-Q. You. 


 Intel X86 Linux Version

 Q-chem begins on Tue Apr 12 12:07:55 2011  

 Parallel job on  1  processors
Processing $rem in /usr/local/qchem/config/preferences.

theFileMan(): MAXOPENFILES=974 MAX_SUB_FILE_NUM=16
Maximum size of a physical file is 2.0 GB, maximum size of a tmp-file is 32.0 GB


--------------------------------------------------------------
User input:
--------------------------------------------------------------

$molecule
-1,2
 C        25.045259       23.435011       24.198259
 C        23.883123       22.987669       23.571693
 C        22.952639       23.894247       23.036823
 C        23.225454       25.266073       23.167511
 C        24.388231       25.712584       23.794245
 C        25.325571       24.806040       24.316170
 H        25.746307       22.708881       24.618103
 H        23.683336       21.915379       23.505596
 H        22.506229       25.992571       22.782879
 H        24.569353       26.785936       23.895315
 H        21.333246       24.090744       21.797949
 H        21.790066       22.505487       22.079519
 H        26.780706       26.185043       24.738384
 H        27.238531       24.598999       25.019846
 N        26.464031       25.257441       25.008450
 N        21.747786       23.445486       22.464247

$end

$comment
negative
$end

$xc_functional
   X HF 1.0
   X BNL 1.0
   C LYP 1.0
$end

$rem
SYMMETRY_DECOMPOSITION	0
exchange 		general
BASIS                   g3large
omega			290
separate_jk		true
mem_static              760
max_scf_cycles          200
scf_final_print         1
sym_ignore              true
$end

--------------------------------------------------------------
 Writing REM_CC_EA           16
 ----------------------------------------------------
       Standard Nuclear Orientation (Angstroms)
    I     Atom         X            Y            Z
 ----------------------------------------------------
    1      C      25.045259    23.435011    24.198259
    2      C      23.883123    22.987669    23.571693
    3      C      22.952639    23.894247    23.036823
    4      C      23.225454    25.266073    23.167511
    5      C      24.388231    25.712584    23.794245
    6      C      25.325571    24.806040    24.316170
    7      H      25.746307    22.708881    24.618103
    8      H      23.683336    21.915379    23.505596
    9      H      22.506229    25.992571    22.782879
   10      H      24.569353    26.785936    23.895315
   11      H      21.333246    24.090744    21.797949
   12      H      21.790066    22.505487    22.079519
   13      H      26.780706    26.185043    24.738384
   14      H      27.238531    24.598999    25.019846
   15      N      26.464031    25.257441    25.008450
   16      N      21.747786    23.445486    22.464247
 ----------------------------------------------------
 Nuclear Repulsion Energy =   343.4676084748 hartrees
 There are       30 alpha and       29 beta electrons
 Requested basis set is G3large
 There are 128 shells and 416 basis functions

Total QAlloc Memory Limit   2000 MB
Mega-Array Size       743 MB
MEM_STATIC part       760 MB
 A cutoff of  1.0D-08 yielded   6564 shell pairs
 There are  69935 function pairs ( 87064 Cartesian)
Evaluating contribution to one-electron hamiltonian from nuclear
 Smallest overlap matrix eigenvalue = 7.45E-07

 Q-Chem warning in module mkSTV.C, line 194:

 Overlap eigenvalue is smaller than square root of threshold

 Linear dependence detected in AO basis
 Number of orthogonalized atomic orbitals = 415
 Maximum deviation from orthogonality = 8.255E-11
 Multipole matrices computed through 2nd order

  Scale SEOQF with 1.000000e-03/1.000000e-03/1.000000e-03

 Standard Electronic Orientation quadrupole field applied
 Nucleus-field energy     =     0.0000000019 hartrees
 Guess from superposition of atomic densities
 Warning:  Energy on first SCF cycle will be non-variational
 An unrestricted hybrid HF-DFT SCF calculation will be
 performed using Pulay DIIS extrapolation
 Exchange:     1.0000 Hartree-Fock + 1.0000 BNL
 Correlation:  1.0000 LYP
 Using SG-1 standard quadrature grid
 SCF converges when DIIS error is below 1.0E-05
 Warning!  Inaccurate integrated density:
   Number of electrons =    59
   Numerical integral  =    58.000465635056
   Relative error      =    -1.6941260423 %
 ---------------------------------------
  Cycle       Energy         DIIS Error
 ---------------------------------------
    1    -341.5415268341      2.49E-02
    2    -338.6103514836      2.98E-03
    3    -338.5447013387      3.62E-03
    4    -338.8385473940      5.79E-04
    5    -338.8479660133      2.76E-04
    6    -338.8498942705      9.14E-05
    7    -338.8507835192      7.22E-05
    8    -338.8515721169      6.70E-05
    9    -338.8521872539      6.75E-05
   10    -338.8526262331      6.87E-05
   11    -338.8501255775      7.03E-05
   12    -338.8469590312      1.61E-04
   13    -338.8474328733      1.46E-04
   14    -338.8472435684      1.67E-04
   15    -338.8472227940      1.64E-04
   16    -338.8467544969      1.61E-04
   17    -338.8464671027      1.60E-04
   18    -338.8463306575      1.68E-04
   19    -338.8462989702      1.71E-04
   20    -338.8466037017      1.44E-04
   21    -338.8465536038      1.52E-04
   22    -338.8465388487      1.53E-04
   23    -338.8465303966      1.52E-04
   24    -338.8462644767      1.74E-04
   25    -338.8463017967      1.72E-04
   26    -338.8476047426      4.42E-05
   27    -338.8478679591      2.43E-05
   28    -338.8476226049      2.54E-05
   29    -338.8475238677      2.61E-05
   30    -338.8474163687      2.42E-05
   31    -338.8473152152      1.36E-05
   32    -338.8471389855      1.59E-05
   33    -338.8470533784      7.80E-06 Convergence criterion met
 ---------------------------------------
 One-Electron    Energy = -1153.2193905739
 Total Coulomb   Energy =   516.1275758259
 Alpha Exchange  Energy =    -4.5112372578
 Beta  Exchange  Energy =    -4.3802872693
 DFT   Exchange  Energy =   -34.3513841368
 DFT Correlation Energy =    -1.9799384432
 Nuclear Repu.   Energy =   343.4676084767
 Nuclear Attr.   Energy = -1490.5884467951
 Kinetic         Energy =   337.3690562212
 <S^2> = 0.7588
 SCF time:  CPU 4609.43 s  wall 4615.31 s
 Final Alpha MO Eigenvalues
            1           2           3           4           5           6
    1 -13.8279655 -13.8276472  -9.7635876  -9.7634790  -9.7066342  -9.7065022
            7           8           9          10          11          12
    1  -9.7063246  -9.7062431  -0.8216805  -0.8158608  -0.7146928  -0.6322971
           13          14          15          16          17          18
    1  -0.6066471  -0.5223881  -0.4995132  -0.4443678  -0.4329331  -0.4075219
           19          20          21          22          23          24
    1  -0.3983766  -0.3301874  -0.3176834  -0.3150332  -0.3064542  -0.2777514
           25          26          27          28          29          30
    1  -0.2726108  -0.2304492  -0.1951862  -0.1609615  -0.0970579   0.0485371
           31          32          33          34          35
    1   0.1339197   0.1346804   0.1449347   0.1559107   0.1576173
 Final Beta MO Eigenvalues
            1           2           3           4           5           6
    1 -13.8279472 -13.8276350  -9.7647338  -9.7646432  -9.7031386  -9.7030002
            7           8           9          10          11          12
    1  -9.7028014  -9.7027076  -0.8211080  -0.8156634  -0.7108267  -0.6250814
           13          14          15          16          17          18
    1  -0.6035955  -0.5146369  -0.4981728  -0.4434186  -0.4304170  -0.4051880
           19          20          21          22          23          24
    1  -0.3957761  -0.3267597  -0.3148072  -0.3089659  -0.3027725  -0.2740054
           25          26          27          28          29          30
    1  -0.2695003  -0.2276723  -0.1900943  -0.1334631  -0.0840366   0.1293803
           31          32          33          34
    1   0.1300685   0.1405186   0.1474401   0.1537629
 Analysis of SCF Wavefunction
 
 --------------------------------------------------------------
                    Orbital Energies (a.u.)
 --------------------------------------------------------------
 
 Alpha MOs
 -- Occupied --
-13.828 -13.828  -9.764  -9.763  -9.707  -9.707  -9.706  -9.706
 -0.822  -0.816  -0.715  -0.632  -0.607  -0.522  -0.500  -0.444
 -0.433  -0.408  -0.398  -0.330  -0.318  -0.315  -0.306  -0.278
 -0.273  -0.230  -0.195  -0.161  -0.097   0.049
 -- Virtual --
  0.134   0.135   0.145   0.156   0.158   0.183   0.187   0.210
  0.226   0.238   0.247   0.264   0.267   0.273   0.276   0.283
  0.284   0.288   0.293   0.304   0.309   0.321   0.321   0.325
  0.328   0.338   0.340   0.348   0.352   0.361   0.361   0.372
  0.382   0.385   0.388   0.412   0.421   0.424   0.435   0.438
  0.441   0.445   0.464   0.483   0.488   0.495   0.496   0.500
  0.517   0.526   0.554   0.598   0.607   0.614   0.621   0.670
  0.717   0.739   0.765   0.767   0.768   0.775   0.782   0.785
  0.786   0.788   0.823   0.824   0.841   0.842   0.853   0.856
  0.865   0.878   0.881   0.904   0.906   0.909   0.914   0.917
  0.948   0.953   0.960   0.961   0.963   0.977   0.999   1.002
  1.018   1.019   1.027   1.047   1.057   1.070   1.079   1.084
  1.098   1.107   1.111   1.166   1.168   1.178   1.217   1.235
  1.265   1.293   1.295   1.314   1.315   1.330   1.333   1.346
  1.365   1.369   1.393   1.427   1.431   1.438   1.481   1.501
  1.518   1.525   1.528   1.537   1.553   1.573   1.573   1.577
  1.601   1.610   1.660   1.662   1.662   1.687   1.700   1.716
  1.741   1.750   1.780   1.823   1.876   1.899   1.927   1.973
  1.975   1.978   2.022   2.036   2.038   2.054   2.059   2.092
  2.115   2.132   2.142   2.183   2.276   2.399   2.469   2.483
  2.575   2.689   2.771   2.796   2.799   2.848   2.882   2.898
  2.920   2.952   2.973   2.977   2.984   3.026   3.029   3.038
  3.040   3.053   3.084   3.086   3.099   3.124   3.130   3.141
  3.149   3.174   3.185   3.198   3.209   3.241   3.294   3.329
  3.334   3.354   3.380   3.394   3.432   3.436   3.456   3.458
  3.473   3.475   3.482   3.488   3.517   3.519   3.526   3.571
  3.594   3.628   3.633   3.633   3.634   3.653   3.656   3.672
  3.698   3.712   3.732   3.738   3.788   3.791   3.805   3.814
  3.815   3.881   3.904   3.908   3.918   3.931   3.956   3.977
  3.992   3.995   4.039   4.059   4.106   4.136   4.136   4.147
  4.149   4.181   4.200   4.206   4.215   4.228   4.230   4.251
  4.261   4.303   4.345   4.351   4.380   4.420   4.500   4.511
  4.539   4.572   4.573   4.590   4.617   4.628   4.637   4.661
  4.676   4.707   4.712   4.740   4.748   4.764   4.782   4.815
  4.856   4.874   4.931   4.938   5.037   5.058   5.065   5.115
  5.148   5.157   5.220   5.256   5.260   5.318   5.367   5.405
  5.417   5.470   5.471   5.471   5.517   5.531   5.593   5.601
  5.657   5.788   5.803   5.837   5.896   5.911   6.043   6.047
  6.053   6.122   6.206   6.292   6.538   6.601   6.612   6.651
  6.743  24.086  24.628  24.661  24.901  24.911  25.394  27.427
 27.591  27.603  27.671  27.691  27.899  28.128  28.245  28.263
 28.414  28.438  28.443  28.673  28.699  28.771  28.795  28.828
 29.347  36.073  36.102  37.716  37.746  38.422  38.436  38.602
 38.697  40.663  40.678  40.707  40.727  40.826  40.828  40.863
 40.872  40.925  40.930  41.016  41.018  41.061  41.066  41.074
 41.078  41.087  41.094  41.164  41.195  41.289  41.293  41.346
 41.359  41.384  41.398  41.408  41.412  41.415  41.420  41.432
 41.441  41.481  41.511  41.550  41.561  41.620  41.650  41.702
 41.729
 
 Beta MOs
 -- Occupied --
-13.828 -13.828  -9.765  -9.765  -9.703  -9.703  -9.703  -9.703
 -0.821  -0.816  -0.711  -0.625  -0.604  -0.515  -0.498  -0.443
 -0.430  -0.405  -0.396  -0.327  -0.315  -0.309  -0.303  -0.274
 -0.270  -0.228  -0.190  -0.133  -0.084
 -- Virtual --
  0.129   0.130   0.141   0.147   0.154   0.178   0.182   0.202
  0.223   0.235   0.235   0.243   0.262   0.264   0.271   0.274
  0.281   0.282   0.284   0.291   0.303   0.319   0.319   0.322
  0.324   0.325   0.334   0.337   0.345   0.350   0.359   0.359
  0.373   0.378   0.382   0.388   0.409   0.421   0.421   0.433
  0.438   0.443   0.458   0.461   0.480   0.486   0.494   0.496
  0.498   0.517   0.526   0.556   0.600   0.608   0.614   0.621
  0.670   0.718   0.742   0.769   0.771   0.771   0.777   0.788
  0.789   0.789   0.792   0.823   0.826   0.841   0.844   0.853
  0.859   0.871   0.879   0.882   0.906   0.906   0.909   0.915
  0.919   0.954   0.956   0.964   0.964   0.968   0.978   1.000
  1.004   1.018   1.022   1.031   1.047   1.061   1.075   1.081
  1.086   1.100   1.109   1.113   1.168   1.168   1.180   1.220
  1.235   1.269   1.295   1.296   1.317   1.318   1.331   1.335
  1.349   1.367   1.370   1.394   1.427   1.432   1.440   1.483
  1.506   1.521   1.525   1.531   1.538   1.554   1.575   1.576
  1.579   1.603   1.612   1.662   1.664   1.669   1.688   1.700
  1.718   1.744   1.751   1.782   1.826   1.878   1.901   1.928
  1.974   1.977   1.982   2.026   2.038   2.040   2.055   2.061
  2.095   2.118   2.132   2.145   2.186   2.279   2.400   2.472
  2.486   2.576   2.692   2.775   2.801   2.804   2.852   2.887
  2.907   2.928   2.955   2.973   2.984   2.987   3.029   3.033
  3.044   3.045   3.057   3.090   3.092   3.104   3.128   3.140
  3.151   3.156   3.177   3.191   3.205   3.214   3.244   3.299
  3.330   3.338   3.356   3.386   3.398   3.436   3.440   3.461
  3.465   3.477   3.480   3.490   3.492   3.520   3.521   3.531
  3.575   3.600   3.630   3.635   3.636   3.637   3.656   3.663
  3.673   3.701   3.718   3.740   3.741   3.791   3.796   3.810
  3.815   3.821   3.886   3.908   3.910   3.922   3.935   3.962
  3.982   3.994   3.997   4.045   4.062   4.110   4.138   4.140
  4.149   4.150   4.184   4.202   4.210   4.217   4.228   4.232
  4.253   4.267   4.305   4.346   4.354   4.384   4.423   4.500
  4.514   4.543   4.576   4.577   4.593   4.622   4.632   4.640
  4.667   4.679   4.712   4.716   4.742   4.753   4.772   4.783
  4.818   4.860   4.876   4.934   4.940   5.037   5.059   5.071
  5.119   5.150   5.158   5.223   5.258   5.261   5.322   5.368
  5.407   5.418   5.471   5.472   5.472   5.519   5.532   5.594
  5.602   5.659   5.788   5.804   5.839   5.897   5.912   6.046
  6.049   6.053   6.124   6.208   6.293   6.539   6.602   6.612
  6.651   6.745  24.089  24.633  24.662  24.901  24.916  25.396
 27.431  27.598  27.604  27.672  27.698  27.904  28.129  28.246
 28.264  28.416  28.439  28.444  28.674  28.701  28.773  28.796
 28.829  29.348  36.073  36.102  37.716  37.746  38.422  38.437
 38.602  38.697  40.664  40.678  40.707  40.727  40.826  40.828
 40.863  40.872  40.925  40.930  41.016  41.018  41.063  41.069
 41.078  41.084  41.093  41.097  41.167  41.199  41.290  41.295
 41.345  41.358  41.389  41.403  41.413  41.415  41.419  41.425
 41.436  41.443  41.482  41.511  41.552  41.564  41.624  41.653
 41.704  41.730
 --------------------------------------------------------------
 
          Ground-State Mulliken Net Atomic Charges

     Atom                 Charge (a.u.)    Spin (a.u.)
  --------------------------------------------------------
      1 C                    -0.152517       0.266852
      2 C                    -0.222231       0.343550
      3 C                    -0.231567      -0.180225
      4 C                    -0.138363       0.253198
      5 C                    -0.211006       0.335915
      6 C                    -0.252243      -0.155970
      7 H                     0.091184      -0.006744
      8 H                     0.043476       0.042337
      9 H                     0.088907      -0.004143
     10 H                     0.061979       0.022855
     11 H                     0.164086       0.011689
     12 H                     0.142384       0.035053
     13 H                     0.153017       0.023839
     14 H                     0.157605       0.018550
     15 N                    -0.347154      -0.003362
     16 N                    -0.347557      -0.003392
  --------------------------------------------------------
  Sum of atomic charges =    -1.000000
  Sum of spin   charges =     1.000000

 -----------------------------------------------------------------
                    Cartesian Multipole Moments
 -----------------------------------------------------------------
    Charge (ESU x 10^10)
                -4.8032
    Dipole Moment (Debye)
         X    -115.3283      Y    -116.8682      Z    -114.7849
       Tot     200.3357
    Quadrupole Moments (Debye-Ang)
        XX   -2830.8664     XY   -2806.8300     YY   -2904.6122
        XZ   -2755.2112     YZ   -2793.5141     ZZ   -2806.0198
    Octapole Moments (Debye-Ang^2)
       XXX  -70938.7424    XXY  -68908.8809    XYY  -69786.6373
       YYY  -73645.1684    XXZ  -67600.5603    XYZ  -67074.8874
       YYZ  -69427.9609    XZZ  -67355.9776    YZZ  -68311.7589
       ZZZ  -70032.1681
    Hexadecapole Moments (Debye-Ang^3)
      XXXX ************   XXXY ************   XXYY ************
      XYYY ************   YYYY ************   XXXZ ************
      XXYZ ************   XYYZ ************   YYYZ ************
      XXZZ ************   XYZZ ************   YYZZ ************
      XZZZ ************   YZZZ ************   ZZZZ ************
 -----------------------------------------------------------------
 Total job time:  4616.81s(wall), 4610.90s(cpu) 
 Tue Apr 12 13:24:52 2011

        *************************************************************
        *                                                           *
        *  Thank you very much for using Q-Chem.  Have a nice day.  *
        *                                                           *
        *************************************************************


0 sent ACK to 0 
now end server 0 ... 
 
**********************************************************************
Job 2 of 3 
**********************************************************************
 
Process 0 of 1 is on cl046.dal.acenet.ca - thread support 1
initial socket setup ...start
initial socket setup ...done 
now start server 0 ... 

cmd = /usr/bin/ssh glooscap.ace-net.ca /usr/local/qchem/bin/get_hostid 633289739 > /tmp/179714.1.medium.q/qchem21412/lic.dat
                  Welcome to Q-Chem
     A Quantum Leap Into The Future Of Chemistry

 Y. Shao, L. Fusti-Molnar, Y. Jung, J. Kussmann, C. Ochsenfeld,
 S. T. Brown, A. T. B. Gilbert, L. V. Slipchenko,S. V. Levchenko,
 D. P. O'Neill, R. A. DiStasio Jr., R. C. Lochan, T. Wang,
 G. J. O. Beran, N. A. Besley, J. M. Herbert, C. Y. Lin,
 T. Van Voorhis, S. H. Chien, A. Sodt, R. P. Steele, 
 V. A. Rassolov, P. E. Maslen, P. P. Korambath, R. D. Adamson,
 B. Austin, J. Baker, E. F. C. Byrd, H. Dachsel, R. J. Doerksen,
 A. Dreuw, B. D. Dunietz, A. D. Dutoi, T. R. Furlani,
 S. R. Gwaltney, A. Heyden, S. Hirata, C.-P. Hsu, G. Kedziora,
 R. Z. Khaliullin, P. Klunzinger, A. M. Lee, M. S. Lee, W. Liang,
 I. Lotan, N. Nair, B. Peters, E. I. Proynov, P. A. Pieniazek, 
 Y. M. Rhee, J. Ritchie, E. Rosta, C. D. Sherrill, 
 A. C. Simmonett, J. E. Subotnik, H. L. Woodcock III,
 W. Zhang, A. T. Bell, A. K. Chakraborty, D. M. Chipman,
 F. J. Keil, A. Warshel, W. J. Hehre, H. F. Schaefer III,
 J. Kong, A. I. Krylov, P. M. W. Gill, M. Head-Gordon,
 Q-Chem, Version 3.1, Q-Chem, Inc., Pittsburgh, PA (2007).

 Additional authors for Version 3.1: 
 Z. Gan, Y. Zhao, N. E. Schultz, D. Truhlar, E. Epifanovsky and M. Oana.

 Additional authors for Version 3.2: 
 R. Baer, B. R. Brooks, D. Casanova, J.-D. Chai, C.-L. Cheng, 
 C. Cramer, D. Crittenden, A. Ghysels, G. Hawkins, E. G. Hohenstein, 
 C. Kelley, W. Kurlancheek, D. Liotard, E. Livshits, P. Manohar, 
 A. Marenich, D. Neuhauser, R. Olson, M. A. Rohrdanz, K. S. Thanthiriwatte, 
 A. J. W. Thom, V. Vanovschi, C. F. Williams, Q. Wu and Z.-Q. You. 


 Intel X86 Linux Version

 Q-chem begins on Tue Apr 12 13:25:13 2011  

 Parallel job on  1  processors
Processing $rem in /usr/local/qchem/config/preferences.

theFileMan(): MAXOPENFILES=974 MAX_SUB_FILE_NUM=16
Maximum size of a physical file is 2.0 GB, maximum size of a tmp-file is 32.0 GB


--------------------------------------------------------------
User input:
--------------------------------------------------------------

$molecule
0,1
 C        25.045259       23.435011       24.198259
 C        23.883123       22.987669       23.571693
 C        22.952639       23.894247       23.036823
 C        23.225454       25.266073       23.167511
 C        24.388231       25.712584       23.794245
 C        25.325571       24.806040       24.316170
 H        25.746307       22.708881       24.618103
 H        23.683336       21.915379       23.505596
 H        22.506229       25.992571       22.782879
 H        24.569353       26.785936       23.895315
 H        21.333246       24.090744       21.797949
 H        21.790066       22.505487       22.079519
 H        26.780706       26.185043       24.738384
 H        27.238531       24.598999       25.019846
 N        26.464031       25.257441       25.008450
 N        21.747786       23.445486       22.464247

$end

$comment
neutral
$end

$xc_functional
   X HF 1.0
   X BNL 1.0
   C LYP 1.0
$end

$rem
SYMMETRY_DECOMPOSITION	0
exchange 		general
BASIS                   g3large
omega			290
separate_jk		true
mem_static              760
max_scf_cycles          200
scf_final_print         1
sym_ignore              true
$end

--------------------------------------------------------------
 Writing REM_CC_EA           16
 ----------------------------------------------------
       Standard Nuclear Orientation (Angstroms)
    I     Atom         X            Y            Z
 ----------------------------------------------------
    1      C      25.045259    23.435011    24.198259
    2      C      23.883123    22.987669    23.571693
    3      C      22.952639    23.894247    23.036823
    4      C      23.225454    25.266073    23.167511
    5      C      24.388231    25.712584    23.794245
    6      C      25.325571    24.806040    24.316170
    7      H      25.746307    22.708881    24.618103
    8      H      23.683336    21.915379    23.505596
    9      H      22.506229    25.992571    22.782879
   10      H      24.569353    26.785936    23.895315
   11      H      21.333246    24.090744    21.797949
   12      H      21.790066    22.505487    22.079519
   13      H      26.780706    26.185043    24.738384
   14      H      27.238531    24.598999    25.019846
   15      N      26.464031    25.257441    25.008450
   16      N      21.747786    23.445486    22.464247
 ----------------------------------------------------
 Nuclear Repulsion Energy =   343.4676084748 hartrees
 There are       29 alpha and       29 beta electrons
 Requested basis set is G3large
 There are 128 shells and 416 basis functions

Total QAlloc Memory Limit   2000 MB
Mega-Array Size       743 MB
MEM_STATIC part       760 MB
 A cutoff of  1.0D-08 yielded   6564 shell pairs
 There are  69935 function pairs ( 87064 Cartesian)
Evaluating contribution to one-electron hamiltonian from nuclear
 Smallest overlap matrix eigenvalue = 7.45E-07

 Q-Chem warning in module mkSTV.C, line 194:

 Overlap eigenvalue is smaller than square root of threshold

 Linear dependence detected in AO basis
 Number of orthogonalized atomic orbitals = 415
 Maximum deviation from orthogonality = 8.255E-11
 Multipole matrices computed through 2nd order

  Scale SEOQF with 1.000000e-03/1.000000e-03/1.000000e-03

 Standard Electronic Orientation quadrupole field applied
 Nucleus-field energy     =     0.0000000019 hartrees
 Guess from superposition of atomic densities
 Warning:  Energy on first SCF cycle will be non-variational
 A restricted hybrid HF-DFT SCF calculation will be
 performed using Pulay DIIS extrapolation
 Exchange:     1.0000 Hartree-Fock + 1.0000 BNL
 Correlation:  1.0000 LYP
 Using SG-1 standard quadrature grid
 SCF converges when DIIS error is below 1.0E-05
 ---------------------------------------
  Cycle       Energy         DIIS Error
 ---------------------------------------
    1    -341.5415268341      2.49E-02
    2    -338.7906662729      2.15E-03
    3    -338.8539816334      1.51E-03
    4    -338.8962929718      2.23E-04
    5    -338.8973714844      7.44E-05
    6    -338.8975282248      4.13E-05
    7    -338.8975513226      6.45E-06 Convergence criterion met
 ---------------------------------------
 One-Electron    Energy = -1142.8051550490
 Total Coulomb   Energy =   505.4240693894
 Alpha Exchange  Energy =    -4.3889885948
 Beta  Exchange  Energy =    -4.3889885948
 DFT   Exchange  Energy =   -34.2508588326
 DFT Correlation Energy =    -1.9552381175
 Nuclear Repu.   Energy =   343.4676084767
 Nuclear Attr.   Energy = -1479.9169523138
 Kinetic         Energy =   337.1117972647
 SCF time:  CPU 746.69 s  wall 747.79 s
 Final Alpha MO Eigenvalues
            1           2           3           4           5           6
    1 -13.9846102 -13.9844476  -9.9457667  -9.9456757  -9.9089917  -9.9088764
            7           8           9          10          11          12
    1  -9.9085662  -9.9084931  -0.9898238  -0.9794446  -0.8976932  -0.8219315
           13          14          15          16          17          18
    1  -0.7859193  -0.7026135  -0.6758475  -0.6123370  -0.6097695  -0.5758718
           19          20          21          22          23          24
    1  -0.5589964  -0.5144963  -0.5012333  -0.4937333  -0.4911219  -0.4611491
           25          26          27          28          29          30
    1  -0.4370894  -0.4154280  -0.3601106  -0.3374661  -0.2608287   0.0276180
           31          32          33          34
    1   0.0325625   0.0399778   0.0522355   0.0537556
 Analysis of SCF Wavefunction
 
 --------------------------------------------------------------
                    Orbital Energies (a.u.)
 --------------------------------------------------------------
 
 Alpha MOs
 -- Occupied --
-13.985 -13.984  -9.946  -9.946  -9.909  -9.909  -9.909  -9.908
 -0.990  -0.979  -0.898  -0.822  -0.786  -0.703  -0.676  -0.612
 -0.610  -0.576  -0.559  -0.514  -0.501  -0.494  -0.491  -0.461
 -0.437  -0.415  -0.360  -0.337  -0.261
 -- Virtual --
  0.028   0.033   0.040   0.052   0.054   0.058   0.078   0.084
  0.086   0.102   0.114   0.124   0.129   0.133   0.134   0.146
  0.155   0.159   0.168   0.168   0.174   0.181   0.193   0.197
  0.201   0.201   0.214   0.215   0.222   0.225   0.227   0.232
  0.243   0.254   0.261   0.270   0.275   0.276   0.290   0.294
  0.295   0.309   0.309   0.328   0.344   0.346   0.351   0.355
  0.362   0.368   0.369   0.390   0.436   0.442   0.456   0.460
  0.511   0.549   0.573   0.599   0.602   0.602   0.613   0.614
  0.616   0.623   0.629   0.667   0.670   0.677   0.688   0.697
  0.697   0.702   0.712   0.718   0.742   0.742   0.757   0.757
  0.758   0.772   0.786   0.796   0.797   0.807   0.821   0.837
  0.852   0.852   0.858   0.863   0.882   0.894   0.897   0.912
  0.920   0.921   0.941   0.942   1.010   1.011   1.017   1.050
  1.082   1.097   1.126   1.135   1.151   1.151   1.163   1.171
  1.172   1.198   1.208   1.224   1.263   1.270   1.272   1.315
  1.327   1.348   1.355   1.364   1.365   1.386   1.400   1.408
  1.419   1.425   1.432   1.491   1.491   1.503   1.529   1.534
  1.555   1.574   1.585   1.617   1.654   1.699   1.734   1.767
  1.802   1.806   1.815   1.849   1.862   1.873   1.893   1.897
  1.928   1.948   1.970   1.976   2.007   2.096   2.220   2.300
  2.311   2.404   2.511   2.591   2.621   2.625   2.665   2.696
  2.717   2.732   2.775   2.797   2.803   2.812   2.848   2.850
  2.857   2.857   2.870   2.897   2.903   2.914   2.939   2.943
  2.954   2.962   2.989   2.998   3.013   3.030   3.060   3.113
  3.146   3.152   3.172   3.193   3.214   3.249   3.251   3.270
  3.271   3.290   3.291   3.296   3.306   3.338   3.340   3.341
  3.392   3.408   3.447   3.451   3.452   3.465   3.473   3.485
  3.498   3.519   3.529   3.556   3.567   3.614   3.616   3.622
  3.632   3.644   3.705   3.726   3.731   3.746   3.754   3.776
  3.792   3.826   3.831   3.858   3.894   3.929   3.955   3.962
  3.969   3.973   4.001   4.022   4.028   4.050   4.056   4.065
  4.066   4.078   4.140   4.170   4.185   4.197   4.240   4.321
  4.329   4.360   4.395   4.401   4.414   4.434   4.447   4.460
  4.476   4.500   4.522   4.533   4.563   4.568   4.576   4.610
  4.631   4.680   4.708   4.757   4.763   4.863   4.883   4.887
  4.932   4.975   4.982   5.046   5.077   5.084   5.140   5.192
  5.234   5.260   5.306   5.307   5.310   5.344   5.363   5.427
  5.430   5.489   5.619   5.622   5.664   5.733   5.749   5.856
  5.865   5.885   5.946   6.023   6.118   6.378   6.448   6.456
  6.484   6.557  23.890  24.428  24.471  24.711  24.713  25.201
 27.231  27.389  27.415  27.482  27.489  27.703  27.934  28.052
 28.072  28.217  28.244  28.246  28.478  28.502  28.573  28.600
 28.636  29.151  35.916  35.945  37.559  37.589  38.265  38.280
 38.445  38.540  40.507  40.521  40.550  40.570  40.669  40.671
 40.705  40.715  40.768  40.773  40.829  40.830  40.864  40.873
 40.877  40.881  40.886  40.900  40.963  40.995  41.096  41.100
 41.158  41.171  41.183  41.198  41.207  41.212  41.221  41.222
 41.234  41.249  41.292  41.325  41.354  41.360  41.422  41.452
 41.507  41.534
 --------------------------------------------------------------
 
          Ground-State Mulliken Net Atomic Charges

     Atom                 Charge (a.u.)
  ----------------------------------------
      1 C                    -0.004467
      2 C                     0.000147
      3 C                    -0.389763
      4 C                    -0.004281
      5 C                     0.002560
      6 C                    -0.388842
      7 H                     0.156204
      8 H                     0.156662
      9 H                     0.156880
     10 H                     0.156388
     11 H                     0.196099
     12 H                     0.196157
     13 H                     0.196402
     14 H                     0.196219
     15 N                    -0.313290
     16 N                    -0.313075
  ----------------------------------------
  Sum of atomic charges =     0.000000

 -----------------------------------------------------------------
                    Cartesian Multipole Moments
 -----------------------------------------------------------------
    Charge (ESU x 10^10)
                 0.0000
    Dipole Moment (Debye)
         X       1.0043      Y      -0.0349      Z      -1.8237
       Tot       2.0822
    Quadrupole Moments (Debye-Ang)
        XX       5.5679     XY      24.5968     YY     -43.6178
        XZ     -13.6613     YZ     -44.9424     ZZ    -137.7181
    Octapole Moments (Debye-Ang^2)
       XXX   -1323.4369    XXY     169.5196    XYY    -407.8680
       YYY   -3124.4618    XXZ    -620.3992    XYZ    -326.9839
       YYZ   -2103.4191    XZZ   -2465.1824    YZZ   -3366.3186
       ZZZ   -6731.4057
    Hexadecapole Moments (Debye-Ang^3)
      XXXX  -91415.8087   XXXY  -30596.6264   XXYY  -19554.7682
      XYYY  -59111.8371   YYYY -151516.2453   XXXZ  -46130.7474
      XXYZ  -14372.7062   XYYZ  -31868.9276   YYYZ -100077.7648
      XXZZ  -63312.9914   XYZZ  -60039.7473   YYZZ -106058.1892
      XZZZ -139368.2800   YZZZ -164436.0256   ZZZZ -271390.6293
 -----------------------------------------------------------------
 Total job time:  749.17s(wall), 748.05s(cpu) 
 Tue Apr 12 13:37:42 2011

        *************************************************************
        *                                                           *
        *  Thank you very much for using Q-Chem.  Have a nice day.  *
        *                                                           *
        *************************************************************


0 sent ACK to 0 
now end server 0 ... 
 
**********************************************************************
Job 3 of 3 
**********************************************************************
 
Process 0 of 1 is on cl046.dal.acenet.ca - thread support 1
initial socket setup ...start
initial socket setup ...done 
now start server 0 ... 

cmd = /usr/bin/ssh glooscap.ace-net.ca /usr/local/qchem/bin/get_hostid 2061053537 > /tmp/179714.1.medium.q/qchem21412/lic.dat
                  Welcome to Q-Chem
     A Quantum Leap Into The Future Of Chemistry

 Y. Shao, L. Fusti-Molnar, Y. Jung, J. Kussmann, C. Ochsenfeld,
 S. T. Brown, A. T. B. Gilbert, L. V. Slipchenko,S. V. Levchenko,
 D. P. O'Neill, R. A. DiStasio Jr., R. C. Lochan, T. Wang,
 G. J. O. Beran, N. A. Besley, J. M. Herbert, C. Y. Lin,
 T. Van Voorhis, S. H. Chien, A. Sodt, R. P. Steele, 
 V. A. Rassolov, P. E. Maslen, P. P. Korambath, R. D. Adamson,
 B. Austin, J. Baker, E. F. C. Byrd, H. Dachsel, R. J. Doerksen,
 A. Dreuw, B. D. Dunietz, A. D. Dutoi, T. R. Furlani,
 S. R. Gwaltney, A. Heyden, S. Hirata, C.-P. Hsu, G. Kedziora,
 R. Z. Khaliullin, P. Klunzinger, A. M. Lee, M. S. Lee, W. Liang,
 I. Lotan, N. Nair, B. Peters, E. I. Proynov, P. A. Pieniazek, 
 Y. M. Rhee, J. Ritchie, E. Rosta, C. D. Sherrill, 
 A. C. Simmonett, J. E. Subotnik, H. L. Woodcock III,
 W. Zhang, A. T. Bell, A. K. Chakraborty, D. M. Chipman,
 F. J. Keil, A. Warshel, W. J. Hehre, H. F. Schaefer III,
 J. Kong, A. I. Krylov, P. M. W. Gill, M. Head-Gordon,
 Q-Chem, Version 3.1, Q-Chem, Inc., Pittsburgh, PA (2007).

 Additional authors for Version 3.1: 
 Z. Gan, Y. Zhao, N. E. Schultz, D. Truhlar, E. Epifanovsky and M. Oana.

 Additional authors for Version 3.2: 
 R. Baer, B. R. Brooks, D. Casanova, J.-D. Chai, C.-L. Cheng, 
 C. Cramer, D. Crittenden, A. Ghysels, G. Hawkins, E. G. Hohenstein, 
 C. Kelley, W. Kurlancheek, D. Liotard, E. Livshits, P. Manohar, 
 A. Marenich, D. Neuhauser, R. Olson, M. A. Rohrdanz, K. S. Thanthiriwatte, 
 A. J. W. Thom, V. Vanovschi, C. F. Williams, Q. Wu and Z.-Q. You. 


 Intel X86 Linux Version

 Q-chem begins on Tue Apr 12 13:38:05 2011  

 Parallel job on  1  processors
Processing $rem in /usr/local/qchem/config/preferences.

theFileMan(): MAXOPENFILES=974 MAX_SUB_FILE_NUM=16
Maximum size of a physical file is 2.0 GB, maximum size of a tmp-file is 32.0 GB


--------------------------------------------------------------
User input:
--------------------------------------------------------------

$molecule
1,2
 C        25.045259       23.435011       24.198259
 C        23.883123       22.987669       23.571693
 C        22.952639       23.894247       23.036823
 C        23.225454       25.266073       23.167511
 C        24.388231       25.712584       23.794245
 C        25.325571       24.806040       24.316170
 H        25.746307       22.708881       24.618103
 H        23.683336       21.915379       23.505596
 H        22.506229       25.992571       22.782879
 H        24.569353       26.785936       23.895315
 H        21.333246       24.090744       21.797949
 H        21.790066       22.505487       22.079519
 H        26.780706       26.185043       24.738384
 H        27.238531       24.598999       25.019846
 N        26.464031       25.257441       25.008450
 N        21.747786       23.445486       22.464247

$end

$comment
positive
$end

$xc_functional
   X HF 1.0
   X BNL 1.0
   C LYP 1.0
$end

$rem
SYMMETRY_DECOMPOSITION	0
exchange 		general
BASIS                   g3large
omega			290
separate_jk		true
mem_static              760
max_scf_cycles          200
scf_final_print         1
sym_ignore              true
$end

--------------------------------------------------------------
 Writing REM_CC_EA           16
 ----------------------------------------------------
       Standard Nuclear Orientation (Angstroms)
    I     Atom         X            Y            Z
 ----------------------------------------------------
    1      C      25.045259    23.435011    24.198259
    2      C      23.883123    22.987669    23.571693
    3      C      22.952639    23.894247    23.036823
    4      C      23.225454    25.266073    23.167511
    5      C      24.388231    25.712584    23.794245
    6      C      25.325571    24.806040    24.316170
    7      H      25.746307    22.708881    24.618103
    8      H      23.683336    21.915379    23.505596
    9      H      22.506229    25.992571    22.782879
   10      H      24.569353    26.785936    23.895315
   11      H      21.333246    24.090744    21.797949
   12      H      21.790066    22.505487    22.079519
   13      H      26.780706    26.185043    24.738384
   14      H      27.238531    24.598999    25.019846
   15      N      26.464031    25.257441    25.008450
   16      N      21.747786    23.445486    22.464247
 ----------------------------------------------------
 Nuclear Repulsion Energy =   343.4676084748 hartrees
 There are       29 alpha and       28 beta electrons
 Requested basis set is G3large
 There are 128 shells and 416 basis functions

Total QAlloc Memory Limit   2000 MB
Mega-Array Size       743 MB
MEM_STATIC part       760 MB
 A cutoff of  1.0D-08 yielded   6564 shell pairs
 There are  69935 function pairs ( 87064 Cartesian)
Evaluating contribution to one-electron hamiltonian from nuclear
 Smallest overlap matrix eigenvalue = 7.45E-07

 Q-Chem warning in module mkSTV.C, line 194:

 Overlap eigenvalue is smaller than square root of threshold

 Linear dependence detected in AO basis
 Number of orthogonalized atomic orbitals = 415
 Maximum deviation from orthogonality = 8.255E-11
 Multipole matrices computed through 2nd order

  Scale SEOQF with 1.000000e-03/1.000000e-03/1.000000e-03

 Standard Electronic Orientation quadrupole field applied
 Nucleus-field energy     =     0.0000000019 hartrees
 Guess from superposition of atomic densities
 Warning:  Energy on first SCF cycle will be non-variational
 An unrestricted hybrid HF-DFT SCF calculation will be
 performed using Pulay DIIS extrapolation
 Exchange:     1.0000 Hartree-Fock + 1.0000 BNL
 Correlation:  1.0000 LYP
 Using SG-1 standard quadrature grid
 SCF converges when DIIS error is below 1.0E-05
 Warning!  Inaccurate integrated density:
   Number of electrons =    57
   Numerical integral  =    58.000465635056
   Relative error      =     1.7552028685 %
 ---------------------------------------
  Cycle       Energy         DIIS Error
 ---------------------------------------
    1    -341.5415268341      2.49E-02
    2    -338.5684630049      1.64E-03
    3    -338.6207702398      8.87E-04
    4    -338.6345062141      3.07E-04
    5    -338.6366083015      9.56E-05
    6    -338.6368354428      3.97E-05
    7    -338.6369029684      1.00E-05 Convergence criterion met
 ---------------------------------------
 One-Electron    Energy = -1131.1893647542
 Total Coulomb   Energy =   493.7481977724
 Alpha Exchange  Energy =    -4.3999250759
 Beta  Exchange  Energy =    -4.2392479937
 DFT   Exchange  Energy =   -34.1012536858
 DFT Correlation Energy =    -1.9229177079
 Nuclear Repu.   Energy =   343.4676084767
 Nuclear Attr.   Energy = -1468.0030764628
 Kinetic         Energy =   336.8137117087
 <S^2> = 0.7666
 SCF time:  CPU 949.88 s  wall 951.11 s
 Final Alpha MO Eigenvalues
            1           2           3           4           5           6
    1 -14.2021396 -14.2019080 -10.1666270 -10.1665330 -10.1103006 -10.1101795
            7           8           9          10          11          12
    1 -10.1094310 -10.1093451  -1.1977864  -1.1869197  -1.1035016  -1.0189690
           13          14          15          16          17          18
    1  -0.9956924  -0.9034509  -0.8747803  -0.8090783  -0.8089597  -0.7782559
           19          20          21          22          23          24
    1  -0.7556473  -0.7071073  -0.7024415  -0.7012464  -0.6835957  -0.6600575
           25          26          27          28          29          30
    1  -0.6515126  -0.6099882  -0.5710076  -0.5330806  -0.4766124  -0.1346250
           31          32          33          34
    1  -0.1196394  -0.0940123  -0.0890131  -0.0740091
 Final Beta MO Eigenvalues
            1           2           3           4           5           6
    1 -14.1966627 -14.1964263 -10.1636408 -10.1635614 -10.1094115 -10.1092920
            7           8           9          10          11          12
    1 -10.1086436 -10.1085688  -1.1905601  -1.1790151  -1.0968458  -1.0167065
           13          14          15          16          17          18
    1  -0.9839070  -0.8991087  -0.8705044  -0.8060586  -0.8052726  -0.7729775
           19          20          21          22          23          24
    1  -0.7509126  -0.7042629  -0.6973083  -0.6868793  -0.6823619  -0.6562009
           25          26          27          28          29          30
    1  -0.6228983  -0.6073797  -0.5302859  -0.5232302  -0.2616050  -0.1195136
           31          32          33
    1  -0.0975532  -0.0901965  -0.0884010
 Analysis of SCF Wavefunction
 
 --------------------------------------------------------------
                    Orbital Energies (a.u.)
 --------------------------------------------------------------
 
 Alpha MOs
 -- Occupied --
-14.202 -14.202 -10.167 -10.167 -10.110 -10.110 -10.109 -10.109
 -1.198  -1.187  -1.104  -1.019  -0.996  -0.903  -0.875  -0.809
 -0.809  -0.778  -0.756  -0.707  -0.702  -0.701  -0.684  -0.660
 -0.652  -0.610  -0.571  -0.533  -0.477
 -- Virtual --
 -0.135  -0.120  -0.094  -0.089  -0.074  -0.061  -0.054  -0.039
 -0.028  -0.026  -0.025  -0.008   0.001   0.006   0.006   0.008
  0.030   0.031   0.037   0.044   0.044   0.051   0.053   0.055
  0.061   0.074   0.074   0.082   0.082   0.091   0.093   0.095
  0.100   0.110   0.126   0.127   0.136   0.139   0.145   0.147
  0.160   0.162   0.175   0.179   0.181   0.195   0.206   0.207
  0.216   0.216   0.220   0.228   0.275   0.278   0.285   0.286
  0.343   0.362   0.400   0.422   0.430   0.430   0.435   0.435
  0.444   0.446   0.453   0.496   0.499   0.500   0.517   0.518
  0.523   0.531   0.537   0.540   0.569   0.572   0.586   0.586
  0.593   0.595   0.610   0.617   0.626   0.627   0.644   0.666
  0.676   0.677   0.681   0.695   0.699   0.708   0.724   0.729
  0.732   0.747   0.759   0.764   0.831   0.836   0.843   0.871
  0.903   0.917   0.943   0.957   0.972   0.973   0.985   0.991
  0.993   1.020   1.035   1.036   1.091   1.093   1.097   1.132
  1.139   1.159   1.171   1.180   1.189   1.199   1.222   1.223
  1.238   1.241   1.247   1.306   1.309   1.323   1.352   1.359
  1.372   1.406   1.410   1.435   1.471   1.512   1.543   1.575
  1.619   1.620   1.625   1.664   1.674   1.681   1.703   1.707
  1.736   1.758   1.774   1.786   1.823   1.906   2.026   2.107
  2.117   2.216   2.308   2.387   2.427   2.429   2.475   2.501
  2.522   2.530   2.587   2.595   2.604   2.622   2.650   2.653
  2.656   2.660   2.679   2.697   2.702   2.714   2.741   2.744
  2.756   2.757   2.782   2.791   2.810   2.829   2.853   2.916
  2.944   2.954   2.972   2.991   3.010   3.045   3.053   3.065
  3.073   3.091   3.093   3.102   3.104   3.135   3.141   3.143
  3.187   3.208   3.243   3.250   3.257   3.269   3.277   3.287
  3.294   3.321   3.334   3.360   3.369   3.414   3.417   3.418
  3.437   3.445   3.509   3.527   3.528   3.547   3.552   3.576
  3.594   3.623   3.630   3.657   3.698   3.732   3.748   3.763
  3.767   3.780   3.806   3.821   3.831   3.856   3.861   3.868
  3.869   3.877   3.945   3.977   3.986   4.015   4.056   4.128
  4.130   4.161   4.198   4.200   4.217   4.244   4.255   4.266
  4.273   4.301   4.318   4.332   4.366   4.366   4.378   4.403
  4.437   4.480   4.507   4.557   4.566   4.658   4.677   4.688
  4.732   4.779   4.780   4.847   4.875   4.880   4.935   4.991
  5.027   5.047   5.096   5.097   5.098   5.146   5.158   5.222
  5.227   5.280   5.416   5.424   5.459   5.527   5.542   5.665
  5.668   5.679   5.744   5.818   5.923   6.176   6.250   6.258
  6.281   6.357  23.685  24.226  24.259  24.498  24.510  24.992
 27.022  27.187  27.198  27.266  27.287  27.495  27.725  27.843
 27.862  28.013  28.036  28.041  28.272  28.298  28.370  28.394
 28.427  28.945  35.699  35.727  37.338  37.368  38.051  38.065
 38.230  38.325  40.286  40.298  40.333  40.351  40.448  40.450
 40.487  40.495  40.553  40.557  40.611  40.613  40.657  40.663
 40.670  40.675  40.683  40.691  40.762  40.793  40.885  40.889
 40.940  40.953  40.980  40.994  41.005  41.009  41.012  41.016
 41.028  41.039  41.078  41.109  41.148  41.158  41.217  41.247
 41.300  41.327
 
 Beta MOs
 -- Occupied --
-14.197 -14.196 -10.164 -10.164 -10.109 -10.109 -10.109 -10.109
 -1.191  -1.179  -1.097  -1.017  -0.984  -0.899  -0.871  -0.806
 -0.805  -0.773  -0.751  -0.704  -0.697  -0.687  -0.682  -0.656
 -0.623  -0.607  -0.530  -0.523
 -- Virtual --
 -0.262  -0.120  -0.098  -0.090  -0.088  -0.074  -0.060  -0.054
 -0.038  -0.027  -0.025  -0.023  -0.006   0.001   0.006   0.007
  0.009   0.031   0.032   0.037   0.045   0.045   0.051   0.053
  0.062   0.063   0.074   0.076   0.083   0.084   0.092   0.095
  0.097   0.101   0.111   0.128   0.128   0.136   0.142   0.146
  0.147   0.160   0.164   0.177   0.179   0.184   0.196   0.207
  0.208   0.217   0.218   0.222   0.228   0.277   0.279   0.288
  0.289   0.344   0.367   0.403   0.425   0.432   0.435   0.438
  0.438   0.448   0.449   0.454   0.499   0.502   0.503   0.521
  0.522   0.527   0.534   0.541   0.544   0.571   0.573   0.590
  0.590   0.594   0.596   0.611   0.621   0.628   0.633   0.648
  0.669   0.679   0.680   0.685   0.696   0.704   0.712   0.727
  0.733   0.734   0.749   0.764   0.766   0.835   0.837   0.845
  0.874   0.908   0.920   0.946   0.959   0.975   0.975   0.988
  0.992   0.996   1.022   1.038   1.039   1.093   1.094   1.099
  1.135   1.143   1.163   1.173   1.184   1.190   1.203   1.225
  1.227   1.242   1.243   1.249   1.310   1.312   1.327   1.355
  1.360   1.377   1.407   1.412   1.438   1.473   1.515   1.548
  1.581   1.622   1.622   1.632   1.667   1.678   1.688   1.706
  1.713   1.743   1.764   1.779   1.792   1.825   1.910   2.029
  2.112   2.120   2.218   2.314   2.394   2.431   2.434   2.478
  2.505   2.526   2.536   2.589   2.604   2.607   2.626   2.654
  2.660   2.660   2.664   2.683   2.700   2.707   2.719   2.744
  2.749   2.761   2.764   2.790   2.800   2.817   2.834   2.861
  2.919   2.949   2.957   2.976   2.995   3.016   3.051   3.057
  3.072   3.077   3.096   3.096   3.105   3.110   3.141   3.145
  3.146   3.194   3.212   3.250   3.256   3.261   3.273   3.280
  3.292   3.302   3.325   3.338   3.364   3.374   3.420   3.424
  3.425   3.441   3.451   3.514   3.532   3.533   3.554   3.559
  3.581   3.598   3.634   3.636   3.663   3.703   3.737   3.757
  3.768   3.778   3.781   3.810   3.826   3.836   3.859   3.867
  3.871   3.875   3.883   3.951   3.979   3.994   4.016   4.057
  4.132   4.133   4.166   4.203   4.205   4.221   4.246   4.258
  4.270   4.279   4.306   4.323   4.338   4.370   4.372   4.382
  4.413   4.439   4.485   4.514   4.561   4.571   4.664   4.684
  4.692   4.736   4.783   4.786   4.852   4.880   4.887   4.943
  4.995   5.036   5.062   5.108   5.109   5.113   5.153   5.166
  5.232   5.233   5.292   5.423   5.427   5.466   5.535   5.550
  5.668   5.669   5.685   5.748   5.822   5.926   6.181   6.255
  6.264   6.286   6.360  23.687  24.228  24.262  24.501  24.511
 24.994  27.025  27.189  27.203  27.271  27.289  27.498  27.726
 27.845  27.863  28.014  28.037  28.042  28.273  28.299  28.371
 28.395  28.429  28.946  35.706  35.735  37.348  37.378  38.054
 38.069  38.234  38.329  40.297  40.311  40.341  40.360  40.460
 40.462  40.495  40.505  40.558  40.563  40.616  40.618  40.659
 40.665  40.673  40.677  40.685  40.693  40.762  40.794  40.887
 40.892  40.945  40.958  40.982  40.996  41.007  41.010  41.014
 41.018  41.030  41.041  41.081  41.112  41.149  41.159  41.219
 41.248  41.301  41.328
 --------------------------------------------------------------
 
          Ground-State Mulliken Net Atomic Charges

     Atom                 Charge (a.u.)    Spin (a.u.)
  --------------------------------------------------------
      1 C                     0.054501       0.050538
      2 C                     0.059218       0.044631
      3 C                    -0.342898       0.185126
      4 C                     0.053653       0.050616
      5 C                     0.059170       0.044563
      6 C                    -0.343895       0.184781
      7 H                     0.205222      -0.003002
      8 H                     0.205173      -0.002697
      9 H                     0.205775      -0.002987
     10 H                     0.204990      -0.002704
     11 H                     0.238967      -0.001113
     12 H                     0.239175      -0.001187
     13 H                     0.239389      -0.001122
     14 H                     0.239179      -0.001181
     15 N                    -0.158946       0.227854
     16 N                    -0.158674       0.227882
  --------------------------------------------------------
  Sum of atomic charges =     1.000000
  Sum of spin   charges =     1.000000

 -----------------------------------------------------------------
                    Cartesian Multipole Moments
 -----------------------------------------------------------------
    Charge (ESU x 10^10)
                 4.8032
    Dipole Moment (Debye)
         X     116.8820      Y     116.9264      Z     112.0196
       Tot     199.7038
    Quadrupole Moments (Debye-Ang)
        XX    2823.3108     XY    2851.5869     YY    2816.0359
        XZ    2742.1370     YZ    2729.9836     ZZ    2570.5360
    Octapole Moments (Debye-Ang^2)
       XXX   67723.8077    XXY   69038.1557    XYY   68839.2313
       YYY   67073.3343    XXZ   66614.3220    XYZ   66970.9125
       YYZ   65809.1238    XZZ   63314.2634    YZZ   62713.0291
       ZZZ   57932.6325
    Hexadecapole Moments (Debye-Ang^3)
      XXXX 1613189.6371   XXXY 1659997.3140   XXYY 1670426.3846
      XYYY 1643852.3197   YYYY 1578489.5275   XXXZ 1606760.1699
      XXYZ 1630518.4282   XYYZ 1618192.7339   YYYZ 1568625.6585
      XXZZ 1546825.0370   XYZZ 1547907.2269   YYZZ 1512727.1702
      XZZZ 1436462.9835   YZZZ 1414883.6112   ZZZZ 1278176.3018
 -----------------------------------------------------------------
 Total job time:  952.52s(wall), 951.27s(cpu) 
 Tue Apr 12 13:53:57 2011

        *************************************************************
        *                                                           *
        *  Thank you very much for using Q-Chem.  Have a nice day.  *
        *                                                           *
        *************************************************************


0 sent ACK to 0 
now end server 0 ... 
