Process 0 of 1 is on cl093.stfx.acenet.ca - thread support 1
initial socket setup ...start
initial socket setup ...done 
now start server 0 ... 

cmd = /usr/bin/ssh clhead /usr/local/qchem/bin/get_hostid 567355056 > /scratch/tmp/6067110.1.short.q/qchem28280/lic.dat
                  Welcome to Q-Chem
     A Quantum Leap Into The Future Of Chemistry

 Y. Shao, L. Fusti-Molnar, Y. Jung, J. Kussmann, C. Ochsenfeld,
 S. T. Brown, A. T. B. Gilbert, L. V. Slipchenko,S. V. Levchenko,
 D. P. O'Neill, R. A. DiStasio Jr., R. C. Lochan, T. Wang,
 G. J. O. Beran, N. A. Besley, J. M. Herbert, C. Y. Lin,
 T. Van Voorhis, S. H. Chien, A. Sodt, R. P. Steele, 
 V. A. Rassolov, P. E. Maslen, P. P. Korambath, R. D. Adamson,
 B. Austin, J. Baker, E. F. C. Byrd, H. Dachsel, R. J. Doerksen,
 A. Dreuw, B. D. Dunietz, A. D. Dutoi, T. R. Furlani,
 S. R. Gwaltney, A. Heyden, S. Hirata, C.-P. Hsu, G. Kedziora,
 R. Z. Khaliullin, P. Klunzinger, A. M. Lee, M. S. Lee, W. Liang,
 I. Lotan, N. Nair, B. Peters, E. I. Proynov, P. A. Pieniazek, 
 Y. M. Rhee, J. Ritchie, E. Rosta, C. D. Sherrill, 
 A. C. Simmonett, J. E. Subotnik, H. L. Woodcock III,
 W. Zhang, A. T. Bell, A. K. Chakraborty, D. M. Chipman,
 F. J. Keil, A. Warshel, W. J. Hehre, H. F. Schaefer III,
 J. Kong, A. I. Krylov, P. M. W. Gill, M. Head-Gordon,
 Q-Chem, Version 3.1, Q-Chem, Inc., Pittsburgh, PA (2007).

 Additional authors for Version 3.1: 
 Z. Gan, Y. Zhao, N. E. Schultz, D. Truhlar, E. Epifanovsky and M. Oana.

 Additional authors for Version 3.2: 
 R. Baer, B. R. Brooks, D. Casanova, J.-D. Chai, C.-L. Cheng, 
 C. Cramer, D. Crittenden, A. Ghysels, G. Hawkins, E. G. Hohenstein, 
 C. Kelley, W. Kurlancheek, D. Liotard, E. Livshits, P. Manohar, 
 A. Marenich, D. Neuhauser, R. Olson, M. A. Rohrdanz, K. S. Thanthiriwatte, 
 A. J. W. Thom, V. Vanovschi, C. F. Williams, Q. Wu and Z.-Q. You. 


 Intel X86 Linux Version

 Q-chem begins on Wed Jul 24 15:58:54 2013  

 Parallel job on  1  processors
Processing $rem in /usr/local/qchem/config/preferences.

theFileMan(): MAXOPENFILES=974 MAX_SUB_FILE_NUM=16
Maximum size of a physical file is 2.0 GB, maximum size of a tmp-file is 32.0 GB


--------------------------------------------------------------
User input:
--------------------------------------------------------------

$molecule
0,1
C
C,1,CCS
X,2,1.00000,1,90.00000
C,2,CCT,3,90.00000,1,180.00000,0
X,4,1.00000,2,90.00000,3,0.00000,0
C,4,CCS,5,90.00000,2,180.00000,0
H,1,CH,2,HCC,3,0.00000,0
H,1,CH,2,HCC,3,120.00000,0
H,1,CH,2,HCC,3,-120.00000,0
H,6,CH,4,HCC,7,0.00000,0
H,6,CH,4,HCC,7,120.00000,0
H,6,CH,4,HCC,7,-120.00000,0

CCS=1.46150625
CCT=1.20917083
CH=1.09706726
HCC=111.38649086

$end


$comment
b3lyp opt
$end

$rem
   EXCHANGE B3LYP
   UNRESTRICTED TRUE
   SYMMETRY_DECOMPOSITION	0
   BASIS                   g3large
   JOBTYPE                 opt
   mem_static              760
   max_scf_cycles          200
   scf_final_print         1
   sym_ignore              true
$end


--------------------------------------------------------------
 Writing REM_CC_EA           10
 ----------------------------------------------------
       Standard Nuclear Orientation (Angstroms)
    I     Atom         X            Y            Z
 ----------------------------------------------------
    1      C       0.000000     0.000000     0.000000
    2      C       0.000000     0.000000     1.461506
    3      C       0.000000     0.000000     2.670677
    4      C       0.000000     0.000000     4.132183
    5      H       1.021525     0.000000    -0.400054
    6      H      -0.510763    -0.884667    -0.400054
    7      H      -0.510763     0.884667    -0.400054
    8      H       1.021525     0.000000     4.532237
    9      H      -0.510763     0.884667     4.532237
   10      H      -0.510763    -0.884667     4.532237
 ----------------------------------------------------
 Nuclear Repulsion Energy =    99.7467788106 hartrees
 There are       15 alpha and       15 beta electrons
 Requested basis set is G3large
 There are 76 shells and 228 basis functions

Total QAlloc Memory Limit   2000 MB
Mega-Array Size       743 MB
MEM_STATIC part       760 MB
 A cutoff of  1.0D-11 yielded   2623 shell pairs
 There are  23962 function pairs ( 29417 Cartesian)
Evaluating contribution to one-electron hamiltonian from nuclear
 Smallest overlap matrix eigenvalue = 3.04E-08

 Q-Chem warning in module mkSTV.C, line 194:

 Overlap eigenvalue is smaller than square root of threshold

 Linear dependence detected in AO basis
 Number of orthogonalized atomic orbitals = 227
 Maximum deviation from orthogonality = 3.075E-11
 Multipole matrices computed through 2nd order

  Scale SEOQF with 1.000000e-01/1.000000e-01/1.000000e-01

 Standard Electronic Orientation quadrupole field applied
 Nucleus-field energy     =    -0.0000000233 hartrees
 Guess from superposition of atomic densities
 Warning:  Energy on first SCF cycle will be non-variational
 An unrestricted hybrid HF-DFT SCF calculation will be
 performed using Pulay DIIS extrapolation
 Exchange:     0.2000 Hartree-Fock + 0.0800 Slater + 0.7200 Becke88
 Correlation:  0.8100 LYP + 0.1900 VWN1RPA
 Using SG-1 standard quadrature grid
 SCF converges when DIIS error is below 1.0E-08
 ---------------------------------------
  Cycle       Energy         DIIS Error
 ---------------------------------------
    1    -156.5837412321      2.95E-02
    2    -155.9180791272      4.18E-03
    3    -155.9268288398      3.94E-03
    4    -156.0378890574      2.91E-04
    5    -156.0384634086      7.57E-05
    6    -156.0384940806      3.57E-05
    7    -156.0385015052      2.76E-06
    8    -156.0385014987      7.66E-07
    9    -156.0385014942      6.01E-07
   10    -156.0385015085      1.62E-07
   11    -156.0385015112      7.19E-09 Convergence criterion met
 ---------------------------------------
 One-Electron    Energy =  -405.5967337846
 Total Coulomb   Energy =   173.7238003747
 Alpha Exchange  Energy =    -2.2807893007
 Beta  Exchange  Energy =    -2.2807893007
 DFT   Exchange  Energy =   -18.1049198259
 DFT Correlation Energy =    -1.2458484614
 Nuclear Repu.   Energy =    99.7467787874
 Nuclear Attr.   Energy =  -560.7928492815
 Kinetic         Energy =   155.1961154969
 <S^2> = 0.0000
 SCF time:  CPU 178.16 s  wall 180.07 s
 Final Alpha MO Eigenvalues
            1           2           3           4           5           6
    1 -10.1862499 -10.1862395 -10.1597566 -10.1575077  -0.7838451  -0.7453650
            7           8           9          10          11          12
    1  -0.6704836  -0.4833099  -0.4389184  -0.4326272  -0.4326253  -0.4200285
           13          14          15          16          17          18
    1  -0.4200269  -0.2543025  -0.2543008  -0.0088780   0.0036703   0.0306298
           19          20
    1   0.0306980   0.0343319
 Final Beta MO Eigenvalues
            1           2           3           4           5           6
    1 -10.1862499 -10.1862395 -10.1597566 -10.1575077  -0.7838451  -0.7453650
            7           8           9          10          11          12
    1  -0.6704836  -0.4833099  -0.4389184  -0.4326272  -0.4326253  -0.4200285
           13          14          15          16          17          18
    1  -0.4200269  -0.2543025  -0.2543008  -0.0088780   0.0036703   0.0306298
           19          20
    1   0.0306980   0.0343319
 Analysis of SCF Wavefunction
 
 --------------------------------------------------------------
                    Orbital Energies (a.u.)
 --------------------------------------------------------------
 
 Alpha MOs
 -- Occupied --
-10.186 -10.186 -10.160 -10.158  -0.784  -0.745  -0.670  -0.483
 -0.439  -0.433  -0.433  -0.420  -0.420  -0.254  -0.254
 -- Virtual --
 -0.009   0.004   0.031   0.031   0.034   0.034   0.052   0.068
  0.068   0.081   0.092   0.092   0.111   0.111   0.118   0.124
  0.125   0.125   0.142   0.176   0.176   0.181   0.181   0.213
  0.220   0.220   0.221   0.233   0.291   0.296   0.383   0.429
  0.429   0.448   0.448   0.463   0.485   0.499   0.499   0.540
  0.540   0.572   0.572   0.613   0.613   0.622   0.622   0.643
  0.644   0.652   0.652   0.683   0.700   0.784   0.815   0.816
  0.816   0.855   0.855   0.895   0.922   0.922   0.992   0.992
  1.027   1.067   1.117   1.117   1.133   1.133   1.239   1.239
  1.243   1.243   1.269   1.333   1.340   1.389   1.389   1.403
  1.403   1.426   1.426   1.462   1.513   1.537   1.556   1.556
  1.729   1.729   2.092   2.144   2.304   2.304   2.503   2.503
  2.558   2.593   2.655   2.655   2.659   2.693   2.750   2.750
  2.755   2.839   2.839   2.894   2.932   2.938   2.939   2.941
  2.941   3.025   3.068   3.068   3.094   3.104   3.104   3.129
  3.136   3.136   3.150   3.150   3.232   3.232   3.363   3.363
  3.399   3.399   3.440   3.440   3.443   3.495   3.574   3.574
  3.595   3.595   3.618   3.783   3.783   3.828   3.831   3.831
  3.856   3.857   3.863   4.049   4.093   4.093   4.131   4.175
  4.175   4.282   4.282   4.330   4.330   4.335   4.359   4.368
  4.497   4.626   4.626   4.691   4.846   4.846   5.019   5.338
  5.595   5.595   5.616   5.616   5.848   5.848   6.213   6.770
 23.672  24.336  24.433  25.557  27.502  27.502  27.761  27.761
 27.954  28.110  28.110  28.143  28.143  28.162  28.808  29.597
 40.908  40.946  40.953  40.986  40.995  41.148  41.155  41.162
 41.164  41.165  41.183  41.208  41.210  41.242  41.249  41.271
 41.273  41.465  41.466  41.761
 
 Beta MOs
 -- Occupied --
-10.186 -10.186 -10.160 -10.158  -0.784  -0.745  -0.670  -0.483
 -0.439  -0.433  -0.433  -0.420  -0.420  -0.254  -0.254
 -- Virtual --
 -0.009   0.004   0.031   0.031   0.034   0.034   0.052   0.068
  0.068   0.081   0.092   0.092   0.111   0.111   0.118   0.124
  0.125   0.125   0.142   0.176   0.176   0.181   0.181   0.213
  0.220   0.220   0.221   0.233   0.291   0.296   0.383   0.429
  0.429   0.448   0.448   0.463   0.485   0.499   0.499   0.540
  0.540   0.572   0.572   0.613   0.613   0.622   0.622   0.643
  0.644   0.652   0.652   0.683   0.700   0.784   0.815   0.816
  0.816   0.855   0.855   0.895   0.922   0.922   0.992   0.992
  1.027   1.067   1.117   1.117   1.133   1.133   1.239   1.239
  1.243   1.243   1.269   1.333   1.340   1.389   1.389   1.403
  1.403   1.426   1.426   1.462   1.513   1.537   1.556   1.556
  1.729   1.729   2.092   2.144   2.304   2.304   2.503   2.503
  2.558   2.593   2.655   2.655   2.659   2.693   2.750   2.750
  2.755   2.839   2.839   2.894   2.932   2.938   2.939   2.941
  2.941   3.025   3.068   3.068   3.094   3.104   3.104   3.129
  3.136   3.136   3.150   3.150   3.232   3.232   3.363   3.363
  3.399   3.399   3.440   3.440   3.443   3.495   3.574   3.574
  3.595   3.595   3.618   3.783   3.783   3.828   3.831   3.831
  3.856   3.857   3.863   4.049   4.093   4.093   4.131   4.175
  4.175   4.282   4.282   4.330   4.330   4.335   4.359   4.368
  4.497   4.626   4.626   4.691   4.846   4.846   5.019   5.338
  5.595   5.595   5.616   5.616   5.848   5.848   6.213   6.770
 23.672  24.336  24.433  25.557  27.502  27.502  27.761  27.761
 27.954  28.110  28.110  28.143  28.143  28.162  28.808  29.597
 40.908  40.946  40.953  40.986  40.995  41.148  41.155  41.162
 41.164  41.165  41.183  41.208  41.210  41.242  41.249  41.271
 41.273  41.465  41.466  41.761
 --------------------------------------------------------------
 
          Ground-State Mulliken Net Atomic Charges

     Atom                 Charge (a.u.)    Spin (a.u.)
  --------------------------------------------------------
      1 C                    -0.820903       0.000000
      2 C                     0.440218       0.000000
      3 C                     0.440218       0.000000
      4 C                    -0.820903       0.000000
      5 H                     0.126784       0.000000
      6 H                     0.126950       0.000000
      7 H                     0.126950       0.000000
      8 H                     0.126785       0.000000
      9 H                     0.126950       0.000000
     10 H                     0.126950       0.000000
  --------------------------------------------------------
  Sum of atomic charges =     0.000000
  Sum of spin   charges =     0.000000

 -----------------------------------------------------------------
                    Cartesian Multipole Moments
 -----------------------------------------------------------------
    Charge (ESU x 10^10)
                 0.0000
    Dipole Moment (Debye)
         X       0.0009      Y       0.0000      Z       0.0000
       Tot       0.0009
    Quadrupole Moments (Debye-Ang)
        XX     -26.0295     XY       0.0000     YY     -26.0295
        XZ       0.0019     YZ       0.0000     ZZ     -19.2874
    Octapole Moments (Debye-Ang^2)
       XXX       1.3559    XXY       0.0000    XYY      -1.3504
       YYY       0.0000    XXZ     -53.7793    XYZ       0.0000
       YYZ     -53.7794    XZZ       0.0030    YZZ       0.0000
       ZZZ    -119.5486
    Hexadecapole Moments (Debye-Ang^3)
      XXXX     -43.7516   XXXY       0.0000   XXYY     -14.5837
      XYYY       0.0000   YYYY     -43.7533   XXXZ       2.8015
      XXYZ       0.0000   XYYZ      -2.7900   YYYZ       0.0000
      XXZZ    -193.5556   XYZZ       0.0000   YYZZ    -193.5537
      XZZZ       0.0027   YZZZ       0.0000   ZZZZ    -957.3822
 -----------------------------------------------------------------
 Calculating analytic gradient of the SCF energy
 Gradient of XC Energy
            1           2           3           4           5           6
    1   0.0005818  -0.0005076  -0.0005076   0.0005818   0.1747439  -0.0874091
    2   0.0000000  -0.0000000  -0.0000000   0.0000000   0.0000000  -0.1513600
    3   0.0395904  -0.4699728   0.4699728  -0.0395904  -0.0707487  -0.0706825
            7           8           9          10
    1  -0.0874091   0.1747439  -0.0874091  -0.0874091
    2   0.1513600   0.0000000   0.1513600  -0.1513600
    3  -0.0706825   0.0707487   0.0706825   0.0706825
 Gradient of SCF Energy
            1           2           3           4           5           6
    1   0.0000021   0.0000050   0.0000050   0.0000020   0.0031238  -0.0015654
    2  -0.0000000   0.0000000   0.0000000  -0.0000000  -0.0000000  -0.0027295
    3   0.0014103  -0.0131984   0.0131984  -0.0014103  -0.0018510  -0.0017881
            7           8           9          10
    1  -0.0015654   0.0031238  -0.0015654  -0.0015654
    2   0.0027295  -0.0000000   0.0027295  -0.0027295
    3  -0.0017881   0.0018510   0.0017881   0.0017881
 Max gradient component =       1.320E-02
 RMS gradient           =       3.791E-03
 Gradient time:  CPU 67.76 s  wall 68.12 s
 Geometry Optimization Parameters
   NAtoms,    NIC,     NZ,  NCons,   NDum,   NFix, NCnnct, MaxDiis
       10      50      12       0       0       0       0       0


** GEOMETRY OPTIMIZATION IN DELOCALIZED INTERNAL COORDINATES **
   Searching for a Minimum

   Optimization Cycle:   1

                       Coordinates (Angstroms)
     ATOM              X           Y           Z
    1  C           0.000000    0.000000    0.000000
    2  C           0.000000    0.000000    1.461506
    3  C           0.000000    0.000000    2.670677
    4  C           0.000000    0.000000    4.132183
    5  H           1.021525    0.000000   -0.400054
    6  H          -0.510763   -0.884667   -0.400054
    7  H          -0.510763    0.884667   -0.400054
    8  H           1.021525    0.000000    4.532237
    9  H          -0.510763    0.884667    4.532237
   10  H          -0.510763   -0.884667    4.532237
   Point Group: c1    Number of degrees of freedom:  24


   Energy is   -156.038501511


 Attempting to Generate Delocalized Internal Coordinates

 19 Hessian modes will be used to form the next step
  Hessian Eigenvalues:
     0.050736    0.050736    0.160000    0.160000    0.160000    0.160000
     0.160000    0.160000    0.196305    0.196305    0.340085    0.340085
     0.340085    0.340085    0.340085    0.340085    0.367764    0.367764
     1.003468

 Minimum Search - Taking Simple RFO Step
 Searching for Lamda that Minimizes Along All modes
 Value Taken    Lamda =  -0.00063166
 Step Taken.  Stepsize is  0.036507

                             Maximum     Tolerance    Cnvgd?
         Gradient           0.015030      0.000300      NO
         Displacement       0.027997      0.001200      NO
         Energy change     *********      0.000001      NO


 New Cartesian Coordinates Obtained by Inverse Iteration

 Displacement from previous Coordinates is:  0.080538
 Writing REM_CC_EA           10
 ----------------------------------------------------
       Standard Nuclear Orientation (Angstroms)
    I     Atom         X            Y            Z
 ----------------------------------------------------
    1      C      -0.000089     0.000000     0.010306
    2      C      -0.000427     0.000000     1.466043
    3      C      -0.000427     0.000000     2.666141
    4      C      -0.000089     0.000000     4.121877
    5      H       1.017844     0.000000    -0.383634
    6      H      -0.508664    -0.881268    -0.384787
    7      H      -0.508664     0.881268    -0.384787
    8      H       1.017844     0.000000     4.515817
    9      H      -0.508664     0.881268     4.516971
   10      H      -0.508664    -0.881268     4.516970
 ----------------------------------------------------
 Nuclear Repulsion Energy =   100.2830632118 hartrees
 There are       15 alpha and       15 beta electrons
 Applying Cartesian multipole field
    Component          Value
    ---------          -----
     (2,0,0)        1.00000E-11
     (0,2,0)        2.00000E-11
     (0,0,2)       -3.00000E-11
 Nucleus-field energy     =    -0.0000000231 hartrees
 Requested basis set is G3large
 There are 76 shells and 228 basis functions
 A cutoff of  1.0D-11 yielded   2625 shell pairs
 There are  23986 function pairs ( 29441 Cartesian)
Evaluating contribution to one-electron hamiltonian from nuclear
 Smallest overlap matrix eigenvalue = 2.80E-08

 Q-Chem warning in module mkSTV.C, line 194:

 Overlap eigenvalue is smaller than square root of threshold

 Linear dependence detected in AO basis
 Number of orthogonalized atomic orbitals = 227
 Maximum deviation from orthogonality = 3.571E-11
 Multipole matrices computed through 2nd order
 Guess MOs from SCF MO coefficient file
Reading MOs from coefficient file
Reading MOs from coefficient file
 An unrestricted hybrid HF-DFT SCF calculation will be
 performed using Pulay DIIS extrapolation
 Exchange:     0.2000 Hartree-Fock + 0.0800 Slater + 0.7200 Becke88
 Correlation:  0.8100 LYP + 0.1900 VWN1RPA
 Using SG-1 standard quadrature grid
 SCF converges when DIIS error is below 1.0E-08
 Warning!  Inaccurate integrated density:
   Number of electrons =    30
   Numerical integral  =    30.035798099785
   Relative error      =     0.1193269993 %
 ---------------------------------------
  Cycle       Energy         DIIS Error
 ---------------------------------------
    1    -156.0351464899      3.11E-04
    2    -156.0387153760      9.84E-05
    3    -156.0387443734      9.08E-05
    4    -156.0388046168      5.45E-06
    5    -156.0388048752      3.04E-06
    6    -156.0388047665      5.47E-07
    7    -156.0388047991      4.64E-08
    8    -156.0388047852      2.33E-09 Convergence criterion met
 ---------------------------------------
 One-Electron    Energy =  -406.6573929236
 Total Coulomb   Energy =   174.2748670585
 Alpha Exchange  Energy =    -2.2836169443
 Beta  Exchange  Energy =    -2.2836169443
 DFT   Exchange  Energy =   -18.1249160881
 DFT Correlation Energy =    -1.2471921321
 Nuclear Repu.   Energy =   100.2830631887
 Nuclear Attr.   Energy =  -561.9616074388
 Kinetic         Energy =   155.3042145152
 <S^2> = 0.0000
 SCF time:  CPU 130.78 s  wall 131.28 s
 Final Alpha MO Eigenvalues
            1           2           3           4           5           6
    1 -10.1834274 -10.1834164 -10.1563895 -10.1539630  -0.7856900  -0.7469408
            7           8           9          10          11          12
    1  -0.6718613  -0.4828895  -0.4392430  -0.4341992  -0.4341758  -0.4212558
           13          14          15          16          17          18
    1  -0.4212342  -0.2548916  -0.2548797  -0.0086485   0.0042017   0.0307191
           19          20
    1   0.0307844   0.0357333
 Final Beta MO Eigenvalues
            1           2           3           4           5           6
    1 -10.1834274 -10.1834164 -10.1563895 -10.1539630  -0.7856900  -0.7469408
            7           8           9          10          11          12
    1  -0.6718613  -0.4828895  -0.4392430  -0.4341992  -0.4341758  -0.4212558
           13          14          15          16          17          18
    1  -0.4212342  -0.2548916  -0.2548797  -0.0086485   0.0042017   0.0307191
           19          20
    1   0.0307844   0.0357333
 Analysis of SCF Wavefunction
 
 --------------------------------------------------------------
                    Orbital Energies (a.u.)
 --------------------------------------------------------------
 
 Alpha MOs
 -- Occupied --
-10.183 -10.183 -10.156 -10.154  -0.786  -0.747  -0.672  -0.483
 -0.439  -0.434  -0.434  -0.421  -0.421  -0.255  -0.255
 -- Virtual --
 -0.009   0.004   0.031   0.031   0.036   0.036   0.052   0.070
  0.070   0.081   0.092   0.092   0.111   0.111   0.118   0.125
  0.125   0.125   0.142   0.177   0.177   0.182   0.182   0.213
  0.221   0.221   0.222   0.239   0.293   0.297   0.385   0.430
  0.430   0.448   0.448   0.464   0.486   0.499   0.499   0.543
  0.543   0.572   0.573   0.614   0.614   0.624   0.624   0.646
  0.647   0.654   0.654   0.685   0.702   0.782   0.815   0.819
  0.819   0.857   0.857   0.894   0.927   0.927   0.998   0.998
  1.034   1.081   1.119   1.119   1.135   1.135   1.245   1.245
  1.249   1.249   1.276   1.335   1.343   1.393   1.393   1.408
  1.408   1.429   1.429   1.467   1.518   1.544   1.560   1.560
  1.723   1.723   2.102   2.147   2.302   2.302   2.508   2.508
  2.553   2.588   2.654   2.654   2.656   2.690   2.748   2.748
  2.757   2.847   2.847   2.896   2.934   2.935   2.943   2.949
  2.949   3.025   3.067   3.067   3.099   3.105   3.105   3.131
  3.131   3.131   3.153   3.153   3.240   3.240   3.367   3.367
  3.408   3.408   3.446   3.446   3.446   3.507   3.577   3.578
  3.599   3.599   3.622   3.797   3.797   3.844   3.844   3.844
  3.870   3.870   3.877   4.063   4.110   4.110   4.147   4.187
  4.187   4.291   4.291   4.348   4.348   4.348   4.374   4.384
  4.517   4.648   4.648   4.694   4.870   4.870   5.018   5.372
  5.618   5.618   5.640   5.640   5.883   5.883   6.261   6.793
 23.670  24.369  24.469  25.643  27.516  27.516  27.775  27.775
 27.967  28.121  28.121  28.155  28.155  28.172  28.779  29.656
 40.911  40.951  40.959  40.992  41.001  41.151  41.157  41.166
 41.174  41.177  41.188  41.212  41.215  41.247  41.255  41.279
 41.281  41.483  41.484  41.785
 
 Beta MOs
 -- Occupied --
-10.183 -10.183 -10.156 -10.154  -0.786  -0.747  -0.672  -0.483
 -0.439  -0.434  -0.434  -0.421  -0.421  -0.255  -0.255
 -- Virtual --
 -0.009   0.004   0.031   0.031   0.036   0.036   0.052   0.070
  0.070   0.081   0.092   0.092   0.111   0.111   0.118   0.125
  0.125   0.125   0.142   0.177   0.177   0.182   0.182   0.213
  0.221   0.221   0.222   0.239   0.293   0.297   0.385   0.430
  0.430   0.448   0.448   0.464   0.486   0.499   0.499   0.543
  0.543   0.572   0.573   0.614   0.614   0.624   0.624   0.646
  0.647   0.654   0.654   0.685   0.702   0.782   0.815   0.819
  0.819   0.857   0.857   0.894   0.927   0.927   0.998   0.998
  1.034   1.081   1.119   1.119   1.135   1.135   1.245   1.245
  1.249   1.249   1.276   1.335   1.343   1.393   1.393   1.408
  1.408   1.429   1.429   1.467   1.518   1.544   1.560   1.560
  1.723   1.723   2.102   2.147   2.302   2.302   2.508   2.508
  2.553   2.588   2.654   2.654   2.656   2.690   2.748   2.748
  2.757   2.847   2.847   2.896   2.934   2.935   2.943   2.949
  2.949   3.025   3.067   3.067   3.099   3.105   3.105   3.131
  3.131   3.131   3.153   3.153   3.240   3.240   3.367   3.367
  3.408   3.408   3.446   3.446   3.446   3.507   3.577   3.578
  3.599   3.599   3.622   3.797   3.797   3.844   3.844   3.844
  3.870   3.870   3.877   4.063   4.110   4.110   4.147   4.187
  4.187   4.291   4.291   4.348   4.348   4.348   4.374   4.384
  4.517   4.648   4.648   4.694   4.870   4.870   5.018   5.372
  5.618   5.618   5.640   5.640   5.883   5.883   6.261   6.793
 23.670  24.369  24.469  25.643  27.516  27.516  27.775  27.775
 27.967  28.121  28.121  28.155  28.155  28.172  28.779  29.656
 40.911  40.951  40.959  40.992  41.001  41.151  41.157  41.166
 41.174  41.177  41.188  41.212  41.215  41.247  41.255  41.279
 41.281  41.483  41.484  41.785
 --------------------------------------------------------------
 
          Ground-State Mulliken Net Atomic Charges

     Atom                 Charge (a.u.)    Spin (a.u.)
  --------------------------------------------------------
      1 C                    -0.829030       0.000000
      2 C                     0.444835       0.000000
      3 C                     0.444835       0.000000
      4 C                    -0.829030       0.000000
      5 H                     0.127949       0.000000
      6 H                     0.128123       0.000000
      7 H                     0.128123       0.000000
      8 H                     0.127949       0.000000
      9 H                     0.128123       0.000000
     10 H                     0.128123       0.000000
  --------------------------------------------------------
  Sum of atomic charges =     0.000000
  Sum of spin   charges =     0.000000

 -----------------------------------------------------------------
                    Cartesian Multipole Moments
 -----------------------------------------------------------------
    Charge (ESU x 10^10)
                 0.0000
    Dipole Moment (Debye)
         X       0.0019      Y       0.0000      Z       0.0000
       Tot       0.0019
    Quadrupole Moments (Debye-Ang)
        XX     -25.9460     XY       0.0000     YY     -25.9468
        XZ       0.0039     YZ       0.0000     ZZ     -19.4193
    Octapole Moments (Debye-Ang^2)
       XXX       1.3560    XXY       0.0000    XYY      -1.3267
       YYY       0.0000    XXZ     -53.6068    XYZ       0.0000
       YYZ     -53.6084    XZZ       0.0040    YZZ       0.0000
       ZZZ    -120.3661
    Hexadecapole Moments (Debye-Ang^3)
      XXXX     -43.3782   XXXY       0.0000   XXYY     -14.4606
      XYYY       0.0000   YYYY     -43.3816   XXXZ       2.8016
      XXYZ       0.0000   XYYZ      -2.7410   YYYZ       0.0000
      XXZZ    -192.2729   XYZZ       0.0000   YYZZ    -192.2658
      XZZZ      -0.0086   YZZZ       0.0000   ZZZZ    -956.5731
 -----------------------------------------------------------------
 Calculating analytic gradient of the SCF energy
 Gradient of XC Energy
            1           2           3           4           5           6
    1   0.0004173  -0.0004794  -0.0004794   0.0004173   0.1756291  -0.0877835
    2   0.0000000   0.0000000  -0.0000000   0.0000000  -0.0000000  -0.1520643
    3   0.0406030  -0.4796352   0.4796352  -0.0406030  -0.0698420  -0.0700323
            7           8           9          10
    1  -0.0877835   0.1756291  -0.0877835  -0.0877835
    2   0.1520643  -0.0000000   0.1520643  -0.1520643
    3  -0.0700324   0.0698420   0.0700324   0.0700323
 Gradient of SCF Energy
            1           2           3           4           5           6
    1  -0.0000374   0.0000443   0.0000443  -0.0000373   0.0000427  -0.0000248
    2   0.0000000  -0.0000000  -0.0000000   0.0000000   0.0000000  -0.0000478
    3   0.0005102   0.0004587  -0.0004587  -0.0005102   0.0000189   0.0000187
            7           8           9          10
    1  -0.0000248   0.0000427  -0.0000248  -0.0000248
    2   0.0000478  -0.0000000   0.0000478  -0.0000478
    3   0.0000187  -0.0000189  -0.0000187  -0.0000187
 Max gradient component =       5.102E-04
 RMS gradient           =       1.794E-04
 Gradient time:  CPU 68.24 s  wall 68.30 s
 Geometry Optimization Parameters
   NAtoms,    NIC,     NZ,  NCons,   NDum,   NFix, NCnnct, MaxDiis
       10      50      12       0       0       0       0       0

 Cartesian Hessian Update
 Hessian Updated using BFGS Update


** GEOMETRY OPTIMIZATION IN DELOCALIZED INTERNAL COORDINATES **
   Searching for a Minimum

   Optimization Cycle:   2

                       Coordinates (Angstroms)
     ATOM              X           Y           Z
    1  C          -0.000089    0.000000    0.010306
    2  C          -0.000427    0.000000    1.466043
    3  C          -0.000427    0.000000    2.666141
    4  C          -0.000089    0.000000    4.121877
    5  H           1.017844    0.000000   -0.383634
    6  H          -0.508664   -0.881268   -0.384787
    7  H          -0.508664    0.881268   -0.384787
    8  H           1.017844    0.000000    4.515817
    9  H          -0.508664    0.881268    4.516971
   10  H          -0.508664   -0.881268    4.516970
   Point Group: c1    Number of degrees of freedom:  24


   Energy is   -156.038804785

 Hessian Updated using BFGS Update

  8 Hessian modes will be used to form the next step
  Hessian Eigenvalues:
     0.050734    0.159995    0.160461    0.196267    0.331616    0.340087
     0.380398    1.038968

 Minimum Search - Taking Simple RFO Step
 Searching for Lamda that Minimizes Along All modes
 Value Taken    Lamda =  -0.00000277
 Step Taken.  Stepsize is  0.002442

                             Maximum     Tolerance    Cnvgd?
         Gradient           0.001165      0.000300      NO
         Displacement       0.002234      0.001200      NO
         Energy change     -0.000303      0.000001      NO


 New Cartesian Coordinates Obtained by Inverse Iteration

 Displacement from previous Coordinates is:  0.006303
 Writing REM_CC_EA           10
 ----------------------------------------------------
       Standard Nuclear Orientation (Angstroms)
    I     Atom         X            Y            Z
 ----------------------------------------------------
    1      C      -0.000080     0.000000     0.009294
    2      C      -0.000712     0.000000     1.465795
    3      C      -0.000712     0.000000     2.666388
    4      C      -0.000080     0.000000     4.122890
    5      H       1.017803     0.000000    -0.384599
    6      H      -0.508506    -0.881129    -0.386086
    7      H      -0.508506     0.881129    -0.386086
    8      H       1.017803     0.000000     4.516782
    9      H      -0.508506     0.881129     4.518269
   10      H      -0.508506    -0.881129     4.518269
 ----------------------------------------------------
 Nuclear Repulsion Energy =   100.2471782824 hartrees
 There are       15 alpha and       15 beta electrons
 Applying Cartesian multipole field
    Component          Value
    ---------          -----
     (2,0,0)        1.00000E-11
     (0,2,0)        2.00000E-11
     (0,0,2)       -3.00000E-11
 Nucleus-field energy     =    -0.0000000232 hartrees
 Requested basis set is G3large
 There are 76 shells and 228 basis functions
 A cutoff of  1.0D-11 yielded   2625 shell pairs
 There are  23986 function pairs ( 29441 Cartesian)
Evaluating contribution to one-electron hamiltonian from nuclear
 Smallest overlap matrix eigenvalue = 2.82E-08

 Q-Chem warning in module mkSTV.C, line 194:

 Overlap eigenvalue is smaller than square root of threshold

 Linear dependence detected in AO basis
 Number of orthogonalized atomic orbitals = 227
 Maximum deviation from orthogonality = 2.338E-11
 Multipole matrices computed through 2nd order
 Guess MOs from SCF MO coefficient file
Reading MOs from coefficient file
Reading MOs from coefficient file
 An unrestricted hybrid HF-DFT SCF calculation will be
 performed using Pulay DIIS extrapolation
 Exchange:     0.2000 Hartree-Fock + 0.0800 Slater + 0.7200 Becke88
 Correlation:  0.8100 LYP + 0.1900 VWN1RPA
 Using SG-1 standard quadrature grid
 SCF converges when DIIS error is below 1.0E-08
 ---------------------------------------
  Cycle       Energy         DIIS Error
 ---------------------------------------
    1    -156.0394246443      2.53E-05
    2    -156.0388057794      7.05E-06
    3    -156.0388058960      6.42E-06
    4    -156.0388061747      6.32E-07
    5    -156.0388061770      2.01E-07
    6    -156.0388061955      5.23E-08
    7    -156.0388061890      6.73E-09 Convergence criterion met
 ---------------------------------------
 One-Electron    Energy =  -406.5858253570
 Total Coulomb   Energy =   174.2381122036
 Alpha Exchange  Energy =    -2.2835067860
 Beta  Exchange  Energy =    -2.2835067860
 DFT   Exchange  Energy =   -18.1241282866
 DFT Correlation Energy =    -1.2471294363
 Nuclear Repu.   Energy =   100.2471782592
 Nuclear Attr.   Energy =  -561.8853415860
 Kinetic         Energy =   155.2995162290
 <S^2> = 0.0000
 SCF time:  CPU 110.78 s  wall 111.29 s
 Final Alpha MO Eigenvalues
            1           2           3           4           5           6
    1 -10.1835129 -10.1835020 -10.1566058 -10.1541894  -0.7855415  -0.7468465
            7           8           9          10          11          12
    1  -0.6718625  -0.4829056  -0.4391794  -0.4341406  -0.4341143  -0.4212450
           13          14          15          16          17          18
    1  -0.4212207  -0.2548963  -0.2548841  -0.0086486   0.0041788   0.0307291
           19          20
    1   0.0307924   0.0357134
 Final Beta MO Eigenvalues
            1           2           3           4           5           6
    1 -10.1835129 -10.1835020 -10.1566058 -10.1541894  -0.7855415  -0.7468465
            7           8           9          10          11          12
    1  -0.6718625  -0.4829056  -0.4391794  -0.4341406  -0.4341143  -0.4212450
           13          14          15          16          17          18
    1  -0.4212207  -0.2548963  -0.2548841  -0.0086486   0.0041788   0.0307291
           19          20
    1   0.0307924   0.0357134
 Analysis of SCF Wavefunction
 
 --------------------------------------------------------------
                    Orbital Energies (a.u.)
 --------------------------------------------------------------
 
 Alpha MOs
 -- Occupied --
-10.184 -10.184 -10.157 -10.154  -0.786  -0.747  -0.672  -0.483
 -0.439  -0.434  -0.434  -0.421  -0.421  -0.255  -0.255
 -- Virtual --
 -0.009   0.004   0.031   0.031   0.036   0.036   0.052   0.070
  0.070   0.081   0.092   0.092   0.111   0.111   0.118   0.125
  0.125   0.125   0.142   0.177   0.177   0.182   0.182   0.213
  0.221   0.221   0.222   0.238   0.293   0.297   0.384   0.430
  0.430   0.448   0.448   0.464   0.486   0.499   0.499   0.543
  0.543   0.573   0.573   0.614   0.614   0.624   0.624   0.646
  0.647   0.654   0.654   0.685   0.702   0.782   0.815   0.818
  0.819   0.857   0.857   0.894   0.927   0.927   0.997   0.997
  1.033   1.080   1.119   1.119   1.135   1.135   1.245   1.245
  1.248   1.249   1.276   1.335   1.343   1.393   1.393   1.408
  1.408   1.429   1.429   1.467   1.519   1.544   1.560   1.560
  1.724   1.724   2.102   2.147   2.301   2.302   2.507   2.508
  2.553   2.588   2.654   2.654   2.657   2.691   2.748   2.748
  2.757   2.846   2.846   2.897   2.934   2.936   2.942   2.949
  2.949   3.025   3.067   3.067   3.098   3.105   3.105   3.130
  3.131   3.132   3.153   3.153   3.240   3.240   3.367   3.367
  3.407   3.408   3.445   3.446   3.446   3.506   3.577   3.577
  3.598   3.599   3.622   3.796   3.797   3.844   3.844   3.844
  3.869   3.869   3.877   4.063   4.109   4.109   4.146   4.187
  4.187   4.291   4.291   4.347   4.347   4.347   4.373   4.384
  4.516   4.647   4.647   4.694   4.868   4.868   5.018   5.369
  5.618   5.618   5.640   5.640   5.880   5.880   6.257   6.792
 23.669  24.368  24.467  25.638  27.515  27.515  27.774  27.774
 27.965  28.121  28.121  28.154  28.154  28.172  28.780  29.652
 40.911  40.950  40.959  40.992  41.001  41.150  41.157  41.166
 41.173  41.176  41.188  41.212  41.215  41.247  41.255  41.279
 41.281  41.482  41.483  41.784
 
 Beta MOs
 -- Occupied --
-10.184 -10.184 -10.157 -10.154  -0.786  -0.747  -0.672  -0.483
 -0.439  -0.434  -0.434  -0.421  -0.421  -0.255  -0.255
 -- Virtual --
 -0.009   0.004   0.031   0.031   0.036   0.036   0.052   0.070
  0.070   0.081   0.092   0.092   0.111   0.111   0.118   0.125
  0.125   0.125   0.142   0.177   0.177   0.182   0.182   0.213
  0.221   0.221   0.222   0.238   0.293   0.297   0.384   0.430
  0.430   0.448   0.448   0.464   0.486   0.499   0.499   0.543
  0.543   0.573   0.573   0.614   0.614   0.624   0.624   0.646
  0.647   0.654   0.654   0.685   0.702   0.782   0.815   0.818
  0.819   0.857   0.857   0.894   0.927   0.927   0.997   0.997
  1.033   1.080   1.119   1.119   1.135   1.135   1.245   1.245
  1.248   1.249   1.276   1.335   1.343   1.393   1.393   1.408
  1.408   1.429   1.429   1.467   1.519   1.544   1.560   1.560
  1.724   1.724   2.102   2.147   2.301   2.302   2.507   2.508
  2.553   2.588   2.654   2.654   2.657   2.691   2.748   2.748
  2.757   2.846   2.846   2.897   2.934   2.936   2.942   2.949
  2.949   3.025   3.067   3.067   3.098   3.105   3.105   3.130
  3.131   3.132   3.153   3.153   3.240   3.240   3.367   3.367
  3.407   3.408   3.445   3.446   3.446   3.506   3.577   3.577
  3.598   3.599   3.622   3.796   3.797   3.844   3.844   3.844
  3.869   3.869   3.877   4.063   4.109   4.109   4.146   4.187
  4.187   4.291   4.291   4.347   4.347   4.347   4.373   4.384
  4.516   4.647   4.647   4.694   4.868   4.868   5.018   5.369
  5.618   5.618   5.640   5.640   5.880   5.880   6.257   6.792
 23.669  24.368  24.467  25.638  27.515  27.515  27.774  27.774
 27.965  28.121  28.121  28.154  28.154  28.172  28.780  29.652
 40.911  40.950  40.959  40.992  41.001  41.150  41.157  41.166
 41.173  41.176  41.188  41.212  41.215  41.247  41.255  41.279
 41.281  41.482  41.483  41.784
 --------------------------------------------------------------
 
          Ground-State Mulliken Net Atomic Charges

     Atom                 Charge (a.u.)    Spin (a.u.)
  --------------------------------------------------------
      1 C                    -0.828457       0.000000
      2 C                     0.444110       0.000000
      3 C                     0.444107       0.000000
      4 C                    -0.828457       0.000000
      5 H                     0.127997       0.000000
      6 H                     0.128176       0.000000
      7 H                     0.128176       0.000000
      8 H                     0.127997       0.000000
      9 H                     0.128176       0.000000
     10 H                     0.128176       0.000000
  --------------------------------------------------------
  Sum of atomic charges =     0.000000
  Sum of spin   charges =     0.000000

 -----------------------------------------------------------------
                    Cartesian Multipole Moments
 -----------------------------------------------------------------
    Charge (ESU x 10^10)
                 0.0000
    Dipole Moment (Debye)
         X       0.0025      Y       0.0000      Z       0.0000
       Tot       0.0025
    Quadrupole Moments (Debye-Ang)
        XX     -25.9506     XY       0.0000     YY     -25.9516
        XZ       0.0052     YZ       0.0000     ZZ     -19.4022
    Octapole Moments (Debye-Ang^2)
       XXX       1.3653    XXY       0.0000    XYY      -1.3228
       YYY       0.0000    XXZ     -53.6163    XYZ       0.0000
       YYZ     -53.6183    XZZ       0.0084    YZZ       0.0000
       ZZZ    -120.2599
    Hexadecapole Moments (Debye-Ang^3)
      XXXX     -43.3848   XXXY       0.0000   XXYY     -14.4632
      XYYY       0.0000   YYYY     -43.3884   XXXZ       2.8208
      XXYZ       0.0000   XYYZ      -2.7330   YYYZ       0.0000
      XXZZ    -192.3570   XYZZ       0.0000   YYZZ    -192.3491
      XZZZ       0.0077   YZZZ       0.0000   ZZZZ    -956.3536
 -----------------------------------------------------------------
 Calculating analytic gradient of the SCF energy
 Gradient of XC Energy
            1           2           3           4           5           6
    1   0.0004064  -0.0005059  -0.0005060   0.0004064   0.1756126  -0.0877565
    2   0.0000000  -0.0000000  -0.0000000   0.0000000  -0.0000000  -0.1520337
    3   0.0405770  -0.4788017   0.4788016  -0.0405770  -0.0698896  -0.0701389
            7           8           9          10
    1  -0.0877565   0.1756126  -0.0877565  -0.0877565
    2   0.1520337  -0.0000000   0.1520338  -0.1520338
    3  -0.0701389   0.0698896   0.0701389   0.0701389
 Gradient of SCF Energy
            1           2           3           4           5           6
    1  -0.0000359   0.0000359   0.0000359  -0.0000359  -0.0000065   0.0000032
    2   0.0000000  -0.0000000  -0.0000000   0.0000000  -0.0000000   0.0000043
    3   0.0001008  -0.0000515   0.0000517  -0.0001009  -0.0000237  -0.0000205
            7           8           9          10
    1   0.0000032  -0.0000066   0.0000033   0.0000033
    2  -0.0000043  -0.0000000  -0.0000044   0.0000044
    3  -0.0000205   0.0000236   0.0000204   0.0000204
 Max gradient component =       1.009E-04
 RMS gradient           =       3.357E-05
 Gradient time:  CPU 67.99 s  wall 68.04 s
 Geometry Optimization Parameters
   NAtoms,    NIC,     NZ,  NCons,   NDum,   NFix, NCnnct, MaxDiis
       10      50      12       0       0       0       0       0

 Cartesian Hessian Update
 Hessian Updated using BFGS Update


** GEOMETRY OPTIMIZATION IN DELOCALIZED INTERNAL COORDINATES **
   Searching for a Minimum

   Optimization Cycle:   3

                       Coordinates (Angstroms)
     ATOM              X           Y           Z
    1  C          -0.000080    0.000000    0.009294
    2  C          -0.000712    0.000000    1.465795
    3  C          -0.000712    0.000000    2.666388
    4  C          -0.000080    0.000000    4.122890
    5  H           1.017803    0.000000   -0.384599
    6  H          -0.508506   -0.881129   -0.386086
    7  H          -0.508506    0.881129   -0.386086
    8  H           1.017803    0.000000    4.516782
    9  H          -0.508506    0.881129    4.518269
   10  H          -0.508506   -0.881129    4.518269
   Point Group: c1    Number of degrees of freedom:  24


   Energy is   -156.038806189

 Hessian Updated using BFGS Update

 10 Hessian modes will be used to form the next step
  Hessian Eigenvalues:
     0.050622    0.159926    0.165780    0.188924    0.330407    0.340085
     0.340090    0.364800    0.367764    1.064126

 Minimum Search - Taking Simple RFO Step
 Searching for Lamda that Minimizes Along All modes
 Value Taken    Lamda =   0.00000000
 Step Taken.  Stepsize is  0.000729

                             Maximum     Tolerance    Cnvgd?
         Gradient           0.000079      0.000300     YES
         Displacement       0.000364      0.001200     YES
         Energy change     -0.000001      0.000001      NO


                       Distance Matrix (Angstroms)
             C (  1)   C (  2)   C (  3)   C (  4)   H (  5)   H (  6)
   C (  2)  1.456502
   C (  3)  2.657095  1.200593
   C (  4)  4.113596  2.657095  1.456502
   H (  5)  1.091439  2.112187  3.216504  4.620989
   H (  6)  1.091426  2.112748  3.217428  4.622309  1.762388
   H (  7)  1.091426  2.112748  3.217428  4.622309  1.762388  1.762258
   H (  8)  4.620989  3.216504  2.112187  1.091439  4.901382  5.210002
   H (  9)  4.622309  3.217428  2.112748  1.091426  5.210002  5.211358
   H ( 10)  4.622309  3.217428  2.112748  1.091426  5.210002  4.904355
             H (  7)   H (  8)   H (  9)
   H (  8)  5.210002
   H (  9)  4.904355  1.762388
   H ( 10)  5.211358  1.762388  1.762258
 


 ******************************
 **  OPTIMIZATION CONVERGED  **
 ******************************
 Analysis of SCF Wavefunction
 
 --------------------------------------------------------------
                    Orbital Energies (a.u.)
 --------------------------------------------------------------
 
 Alpha MOs
 -- Occupied --
-10.184 -10.184 -10.157 -10.154  -0.786  -0.747  -0.672  -0.483
 -0.439  -0.434  -0.434  -0.421  -0.421  -0.255  -0.255
 -- Virtual --
 -0.009   0.004   0.031   0.031   0.036   0.036   0.052   0.070
  0.070   0.081   0.092   0.092   0.111   0.111   0.118   0.125
  0.125   0.125   0.142   0.177   0.177   0.182   0.182   0.213
  0.221   0.221   0.222   0.238   0.293   0.297   0.384   0.430
  0.430   0.448   0.448   0.464   0.486   0.499   0.499   0.543
  0.543   0.573   0.573   0.614   0.614   0.624   0.624   0.646
  0.647   0.654   0.654   0.685   0.702   0.782   0.815   0.818
  0.819   0.857   0.857   0.894   0.927   0.927   0.997   0.997
  1.033   1.080   1.119   1.119   1.135   1.135   1.245   1.245
  1.248   1.249   1.276   1.335   1.343   1.393   1.393   1.408
  1.408   1.429   1.429   1.467   1.519   1.544   1.560   1.560
  1.724   1.724   2.102   2.147   2.301   2.302   2.507   2.508
  2.553   2.588   2.654   2.654   2.657   2.691   2.748   2.748
  2.757   2.846   2.846   2.897   2.934   2.936   2.942   2.949
  2.949   3.025   3.067   3.067   3.098   3.105   3.105   3.130
  3.131   3.132   3.153   3.153   3.240   3.240   3.367   3.367
  3.407   3.408   3.445   3.446   3.446   3.506   3.577   3.577
  3.598   3.599   3.622   3.796   3.797   3.844   3.844   3.844
  3.869   3.869   3.877   4.063   4.109   4.109   4.146   4.187
  4.187   4.291   4.291   4.347   4.347   4.347   4.373   4.384
  4.516   4.647   4.647   4.694   4.868   4.868   5.018   5.369
  5.618   5.618   5.640   5.640   5.880   5.880   6.257   6.792
 23.669  24.368  24.467  25.638  27.515  27.515  27.774  27.774
 27.965  28.121  28.121  28.154  28.154  28.172  28.780  29.652
 40.911  40.950  40.959  40.992  41.001  41.150  41.157  41.166
 41.173  41.176  41.188  41.212  41.215  41.247  41.255  41.279
 41.281  41.482  41.483  41.784
 
 Beta MOs
 -- Occupied --
-10.184 -10.184 -10.157 -10.154  -0.786  -0.747  -0.672  -0.483
 -0.439  -0.434  -0.434  -0.421  -0.421  -0.255  -0.255
 -- Virtual --
 -0.009   0.004   0.031   0.031   0.036   0.036   0.052   0.070
  0.070   0.081   0.092   0.092   0.111   0.111   0.118   0.125
  0.125   0.125   0.142   0.177   0.177   0.182   0.182   0.213
  0.221   0.221   0.222   0.238   0.293   0.297   0.384   0.430
  0.430   0.448   0.448   0.464   0.486   0.499   0.499   0.543
  0.543   0.573   0.573   0.614   0.614   0.624   0.624   0.646
  0.647   0.654   0.654   0.685   0.702   0.782   0.815   0.818
  0.819   0.857   0.857   0.894   0.927   0.927   0.997   0.997
  1.033   1.080   1.119   1.119   1.135   1.135   1.245   1.245
  1.248   1.249   1.276   1.335   1.343   1.393   1.393   1.408
  1.408   1.429   1.429   1.467   1.519   1.544   1.560   1.560
  1.724   1.724   2.102   2.147   2.301   2.302   2.507   2.508
  2.553   2.588   2.654   2.654   2.657   2.691   2.748   2.748
  2.757   2.846   2.846   2.897   2.934   2.936   2.942   2.949
  2.949   3.025   3.067   3.067   3.098   3.105   3.105   3.130
  3.131   3.132   3.153   3.153   3.240   3.240   3.367   3.367
  3.407   3.408   3.445   3.446   3.446   3.506   3.577   3.577
  3.598   3.599   3.622   3.796   3.797   3.844   3.844   3.844
  3.869   3.869   3.877   4.063   4.109   4.109   4.146   4.187
  4.187   4.291   4.291   4.347   4.347   4.347   4.373   4.384
  4.516   4.647   4.647   4.694   4.868   4.868   5.018   5.369
  5.618   5.618   5.640   5.640   5.880   5.880   6.257   6.792
 23.669  24.368  24.467  25.638  27.515  27.515  27.774  27.774
 27.965  28.121  28.121  28.154  28.154  28.172  28.780  29.652
 40.911  40.950  40.959  40.992  41.001  41.150  41.157  41.166
 41.173  41.176  41.188  41.212  41.215  41.247  41.255  41.279
 41.281  41.482  41.483  41.784
 --------------------------------------------------------------
 
          Ground-State Mulliken Net Atomic Charges

     Atom                 Charge (a.u.)    Spin (a.u.)
  --------------------------------------------------------
      1 C                    -0.828457       0.000000
      2 C                     0.444110       0.000000
      3 C                     0.444107       0.000000
      4 C                    -0.828457       0.000000
      5 H                     0.127997       0.000000
      6 H                     0.128176       0.000000
      7 H                     0.128176       0.000000
      8 H                     0.127997       0.000000
      9 H                     0.128176       0.000000
     10 H                     0.128176       0.000000
  --------------------------------------------------------
  Sum of atomic charges =     0.000000
  Sum of spin   charges =     0.000000

 -----------------------------------------------------------------
                    Cartesian Multipole Moments
 -----------------------------------------------------------------
    Charge (ESU x 10^10)
                 0.0000
    Dipole Moment (Debye)
         X       0.0025      Y       0.0000      Z       0.0000
       Tot       0.0025
    Quadrupole Moments (Debye-Ang)
        XX     -25.9506     XY       0.0000     YY     -25.9516
        XZ       0.0052     YZ       0.0000     ZZ     -19.4022
    Octapole Moments (Debye-Ang^2)
       XXX       1.3653    XXY       0.0000    XYY      -1.3228
       YYY       0.0000    XXZ     -53.6163    XYZ       0.0000
       YYZ     -53.6183    XZZ       0.0084    YZZ       0.0000
       ZZZ    -120.2599
    Hexadecapole Moments (Debye-Ang^3)
      XXXX     -43.3848   XXXY       0.0000   XXYY     -14.4632
      XYYY       0.0000   YYYY     -43.3884   XXXZ       2.8208
      XXYZ       0.0000   XYYZ      -2.7330   YYYZ       0.0000
      XXZZ    -192.3570   XYZZ       0.0000   YYZZ    -192.3491
      XZZZ       0.0077   YZZZ       0.0000   ZZZZ    -956.3536
 -----------------------------------------------------------------
 Total job time:  628.18s(wall), 624.62s(cpu) 
 Wed Jul 24 16:09:22 2013

        *************************************************************
        *                                                           *
        *  Thank you very much for using Q-Chem.  Have a nice day.  *
        *                                                           *
        *************************************************************


0 sent ACK to 0 
now end server 0 ... 
 
**********************************************************************
Job 2 of 2 
**********************************************************************
 
Process 0 of 1 is on cl093.stfx.acenet.ca - thread support 1
initial socket setup ...start
initial socket setup ...done 
now start server 0 ... 

cmd = /usr/bin/ssh clhead /usr/local/qchem/bin/get_hostid 1633237771 > /scratch/tmp/6067110.1.short.q/qchem28280/lic.dat
                  Welcome to Q-Chem
     A Quantum Leap Into The Future Of Chemistry

 Y. Shao, L. Fusti-Molnar, Y. Jung, J. Kussmann, C. Ochsenfeld,
 S. T. Brown, A. T. B. Gilbert, L. V. Slipchenko,S. V. Levchenko,
 D. P. O'Neill, R. A. DiStasio Jr., R. C. Lochan, T. Wang,
 G. J. O. Beran, N. A. Besley, J. M. Herbert, C. Y. Lin,
 T. Van Voorhis, S. H. Chien, A. Sodt, R. P. Steele, 
 V. A. Rassolov, P. E. Maslen, P. P. Korambath, R. D. Adamson,
 B. Austin, J. Baker, E. F. C. Byrd, H. Dachsel, R. J. Doerksen,
 A. Dreuw, B. D. Dunietz, A. D. Dutoi, T. R. Furlani,
 S. R. Gwaltney, A. Heyden, S. Hirata, C.-P. Hsu, G. Kedziora,
 R. Z. Khaliullin, P. Klunzinger, A. M. Lee, M. S. Lee, W. Liang,
 I. Lotan, N. Nair, B. Peters, E. I. Proynov, P. A. Pieniazek, 
 Y. M. Rhee, J. Ritchie, E. Rosta, C. D. Sherrill, 
 A. C. Simmonett, J. E. Subotnik, H. L. Woodcock III,
 W. Zhang, A. T. Bell, A. K. Chakraborty, D. M. Chipman,
 F. J. Keil, A. Warshel, W. J. Hehre, H. F. Schaefer III,
 J. Kong, A. I. Krylov, P. M. W. Gill, M. Head-Gordon,
 Q-Chem, Version 3.1, Q-Chem, Inc., Pittsburgh, PA (2007).

 Additional authors for Version 3.1: 
 Z. Gan, Y. Zhao, N. E. Schultz, D. Truhlar, E. Epifanovsky and M. Oana.

 Additional authors for Version 3.2: 
 R. Baer, B. R. Brooks, D. Casanova, J.-D. Chai, C.-L. Cheng, 
 C. Cramer, D. Crittenden, A. Ghysels, G. Hawkins, E. G. Hohenstein, 
 C. Kelley, W. Kurlancheek, D. Liotard, E. Livshits, P. Manohar, 
 A. Marenich, D. Neuhauser, R. Olson, M. A. Rohrdanz, K. S. Thanthiriwatte, 
 A. J. W. Thom, V. Vanovschi, C. F. Williams, Q. Wu and Z.-Q. You. 


 Intel X86 Linux Version

 Q-chem begins on Wed Jul 24 16:09:25 2013  

 Parallel job on  1  processors
Processing $rem in /usr/local/qchem/config/preferences.

theFileMan(): MAXOPENFILES=974 MAX_SUB_FILE_NUM=16
Maximum size of a physical file is 2.0 GB, maximum size of a tmp-file is 32.0 GB


--------------------------------------------------------------
User input:
--------------------------------------------------------------

$molecule 
READ 
$end 

$rem
   EXCHANGE B3LYP
   UNRESTRICTED TRUE
   SYMMETRY_DECOMPOSITION       0
   BASIS                   g3large
   JOBTYPE                 freq
   mem_static              760
   max_scf_cycles          200
   scf_final_print         1
   sym_ignore              true
   JOBTYPE                 freq
   IDERIV 1
   SCF_GUESS READ
$end
--------------------------------------------------------------
 Writing REM_CC_EA           10
 ----------------------------------------------------
       Standard Nuclear Orientation (Angstroms)
    I     Atom         X            Y            Z
 ----------------------------------------------------
    1      C      -0.000080     0.000000     0.009294
    2      C      -0.000712     0.000000     1.465795
    3      C      -0.000712     0.000000     2.666388
    4      C      -0.000080     0.000000     4.122890
    5      H       1.017803     0.000000    -0.384599
    6      H      -0.508506    -0.881129    -0.386086
    7      H      -0.508506     0.881129    -0.386086
    8      H       1.017803     0.000000     4.516782
    9      H      -0.508506     0.881129     4.518269
   10      H      -0.508506    -0.881129     4.518269
 ----------------------------------------------------
 Nuclear Repulsion Energy =   100.2471782824 hartrees
 There are       15 alpha and       15 beta electrons
 Requested basis set is G3large
 There are 76 shells and 228 basis functions

Total QAlloc Memory Limit   2000 MB
Mega-Array Size       759 MB
MEM_STATIC part       760 MB

                       Distance Matrix (Angstroms)
             C (  1)   C (  2)   C (  3)   C (  4)   H (  5)   H (  6)
   C (  2)  1.456502
   C (  3)  2.657095  1.200593
   C (  4)  4.113596  2.657095  1.456502
   H (  5)  1.091439  2.112187  3.216504  4.620989
   H (  6)  1.091426  2.112748  3.217428  4.622309  1.762388
   H (  7)  1.091426  2.112748  3.217428  4.622309  1.762388  1.762258
   H (  8)  4.620989  3.216504  2.112187  1.091439  4.901382  5.210002
   H (  9)  4.622309  3.217428  2.112748  1.091426  5.210002  5.211358
   H ( 10)  4.622309  3.217428  2.112748  1.091426  5.210002  4.904355
             H (  7)   H (  8)   H (  9)
   H (  8)  5.210002
   H (  9)  4.904355  1.762388
   H ( 10)  5.211358  1.762388  1.762258
 
 A cutoff of  1.0D-11 yielded   2625 shell pairs
 There are  23986 function pairs ( 29441 Cartesian)
Evaluating contribution to one-electron hamiltonian from nuclear
 Smallest overlap matrix eigenvalue = 2.82E-08

 Q-Chem warning in module mkSTV.C, line 194:

 Overlap eigenvalue is smaller than square root of threshold

 Linear dependence detected in AO basis
 Number of orthogonalized atomic orbitals = 227
 Maximum deviation from orthogonality = 3.862E-11
 Multipole matrices computed through 2nd order
 Guess MOs from SCF MO coefficient file
Reading MOs from coefficient file
Reading MOs from coefficient file
 An unrestricted hybrid HF-DFT SCF calculation will be
 performed using Pulay DIIS extrapolation
 Exchange:     0.2000 Hartree-Fock + 0.0800 Slater + 0.7200 Becke88
 Correlation:  0.8100 LYP + 0.1900 VWN1RPA
 Using SG-1 standard quadrature grid
 SCF converges when DIIS error is below 1.0E-08
 ---------------------------------------
  Cycle       Energy         DIIS Error
 ---------------------------------------
    1    -156.0388062017      9.38E-09
    2    -156.0388062016      2.25E-08
    3    -156.0388062018      2.83E-10 Convergence criterion met
 ---------------------------------------
 One-Electron    Energy =  -406.5858251826
 Total Coulomb   Energy =   174.2381119803
 Alpha Exchange  Energy =    -2.2835067835
 Beta  Exchange  Energy =    -2.2835067835
 DFT   Exchange  Energy =   -18.1241282792
 DFT Correlation Energy =    -1.2471294355
 Nuclear Repu.   Energy =   100.2471782824
 Nuclear Attr.   Energy =  -561.8853413572
 Kinetic         Energy =   155.2995161745
 <S^2> = 0.0000
 SCF time:  CPU 47.49 s  wall 47.63 s
 Final Alpha MO Eigenvalues
            1           2           3           4           5           6
    1 -10.1835128 -10.1835020 -10.1566058 -10.1541894  -0.7855415  -0.7468465
            7           8           9          10          11          12
    1  -0.6718625  -0.4829056  -0.4391794  -0.4341406  -0.4341143  -0.4212450
           13          14          15          16          17          18
    1  -0.4212207  -0.2548963  -0.2548841  -0.0086486   0.0041788   0.0307291
           19          20
    1   0.0307924   0.0357134
 Final Beta MO Eigenvalues
            1           2           3           4           5           6
    1 -10.1835128 -10.1835020 -10.1566058 -10.1541894  -0.7855415  -0.7468465
            7           8           9          10          11          12
    1  -0.6718625  -0.4829056  -0.4391794  -0.4341406  -0.4341143  -0.4212450
           13          14          15          16          17          18
    1  -0.4212207  -0.2548963  -0.2548841  -0.0086486   0.0041788   0.0307291
           19          20
    1   0.0307924   0.0357134
 Analysis of SCF Wavefunction
 
 --------------------------------------------------------------
                    Orbital Energies (a.u.)
 --------------------------------------------------------------
 
 Alpha MOs
 -- Occupied --
-10.184 -10.184 -10.157 -10.154  -0.786  -0.747  -0.672  -0.483
 -0.439  -0.434  -0.434  -0.421  -0.421  -0.255  -0.255
 -- Virtual --
 -0.009   0.004   0.031   0.031   0.036   0.036   0.052   0.070
  0.070   0.081   0.092   0.092   0.111   0.111   0.118   0.125
  0.125   0.125   0.142   0.177   0.177   0.182   0.182   0.213
  0.221   0.221   0.222   0.238   0.293   0.297   0.384   0.430
  0.430   0.448   0.448   0.464   0.486   0.499   0.499   0.543
  0.543   0.573   0.573   0.614   0.614   0.624   0.624   0.646
  0.647   0.654   0.654   0.685   0.702   0.782   0.815   0.818
  0.819   0.857   0.857   0.894   0.927   0.927   0.997   0.997
  1.033   1.080   1.119   1.119   1.135   1.135   1.245   1.245
  1.248   1.249   1.276   1.335   1.343   1.393   1.393   1.408
  1.408   1.429   1.429   1.467   1.519   1.544   1.560   1.560
  1.724   1.724   2.102   2.147   2.301   2.302   2.507   2.508
  2.553   2.588   2.654   2.654   2.657   2.691   2.748   2.748
  2.757   2.846   2.846   2.897   2.934   2.936   2.942   2.949
  2.949   3.025   3.067   3.067   3.098   3.105   3.105   3.130
  3.131   3.132   3.153   3.153   3.240   3.240   3.367   3.367
  3.407   3.408   3.445   3.446   3.446   3.506   3.577   3.577
  3.598   3.599   3.622   3.796   3.797   3.844   3.844   3.844
  3.869   3.869   3.877   4.063   4.109   4.109   4.146   4.187
  4.187   4.291   4.291   4.347   4.347   4.347   4.373   4.384
  4.516   4.647   4.647   4.694   4.868   4.868   5.018   5.369
  5.618   5.618   5.640   5.640   5.880   5.880   6.257   6.792
 23.669  24.368  24.467  25.638  27.515  27.515  27.774  27.774
 27.965  28.121  28.121  28.154  28.154  28.172  28.780  29.652
 40.911  40.950  40.959  40.992  41.001  41.150  41.157  41.166
 41.173  41.176  41.188  41.212  41.215  41.247  41.255  41.279
 41.281  41.482  41.483  41.784
 
 Beta MOs
 -- Occupied --
-10.184 -10.184 -10.157 -10.154  -0.786  -0.747  -0.672  -0.483
 -0.439  -0.434  -0.434  -0.421  -0.421  -0.255  -0.255
 -- Virtual --
 -0.009   0.004   0.031   0.031   0.036   0.036   0.052   0.070
  0.070   0.081   0.092   0.092   0.111   0.111   0.118   0.125
  0.125   0.125   0.142   0.177   0.177   0.182   0.182   0.213
  0.221   0.221   0.222   0.238   0.293   0.297   0.384   0.430
  0.430   0.448   0.448   0.464   0.486   0.499   0.499   0.543
  0.543   0.573   0.573   0.614   0.614   0.624   0.624   0.646
  0.647   0.654   0.654   0.685   0.702   0.782   0.815   0.818
  0.819   0.857   0.857   0.894   0.927   0.927   0.997   0.997
  1.033   1.080   1.119   1.119   1.135   1.135   1.245   1.245
  1.248   1.249   1.276   1.335   1.343   1.393   1.393   1.408
  1.408   1.429   1.429   1.467   1.519   1.544   1.560   1.560
  1.724   1.724   2.102   2.147   2.301   2.302   2.507   2.508
  2.553   2.588   2.654   2.654   2.657   2.691   2.748   2.748
  2.757   2.846   2.846   2.897   2.934   2.936   2.942   2.949
  2.949   3.025   3.067   3.067   3.098   3.105   3.105   3.130
  3.131   3.132   3.153   3.153   3.240   3.240   3.367   3.367
  3.407   3.408   3.445   3.446   3.446   3.506   3.577   3.577
  3.598   3.599   3.622   3.796   3.797   3.844   3.844   3.844
  3.869   3.869   3.877   4.063   4.109   4.109   4.146   4.187
  4.187   4.291   4.291   4.347   4.347   4.347   4.373   4.384
  4.516   4.647   4.647   4.694   4.868   4.868   5.018   5.369
  5.618   5.618   5.640   5.640   5.880   5.880   6.257   6.792
 23.669  24.368  24.467  25.638  27.515  27.515  27.774  27.774
 27.965  28.121  28.121  28.154  28.154  28.172  28.780  29.652
 40.911  40.950  40.959  40.992  41.001  41.150  41.157  41.166
 41.173  41.176  41.188  41.212  41.215  41.247  41.255  41.279
 41.281  41.482  41.483  41.784
 --------------------------------------------------------------
 
          Ground-State Mulliken Net Atomic Charges

     Atom                 Charge (a.u.)    Spin (a.u.)
  --------------------------------------------------------
      1 C                    -0.828457       0.000000
      2 C                     0.444109       0.000000
      3 C                     0.444109       0.000000
      4 C                    -0.828457       0.000000
      5 H                     0.127997       0.000000
      6 H                     0.128176       0.000000
      7 H                     0.128176       0.000000
      8 H                     0.127997       0.000000
      9 H                     0.128176       0.000000
     10 H                     0.128176       0.000000
  --------------------------------------------------------
  Sum of atomic charges =     0.000000
  Sum of spin   charges =     0.000000

 -----------------------------------------------------------------
                    Cartesian Multipole Moments
 -----------------------------------------------------------------
    Charge (ESU x 10^10)
                 0.0000
    Dipole Moment (Debye)
         X       0.0025      Y       0.0000      Z       0.0000
       Tot       0.0025
    Quadrupole Moments (Debye-Ang)
        XX     -25.9506     XY       0.0000     YY     -25.9516
        XZ       0.0052     YZ       0.0000     ZZ     -19.4021
    Octapole Moments (Debye-Ang^2)
       XXX       1.3653    XXY       0.0000    XYY      -1.3228
       YYY       0.0000    XXZ     -53.6163    XYZ       0.0000
       YYZ     -53.6183    XZZ       0.0084    YZZ       0.0000
       ZZZ    -120.2598
    Hexadecapole Moments (Debye-Ang^3)
      XXXX     -43.3848   XXXY       0.0000   XXYY     -14.4632
      XYYY       0.0000   YYYY     -43.3884   XXXZ       2.8208
      XXYZ       0.0000   XYYZ      -2.7330   YYYZ       0.0000
      XXZZ    -192.3570   XYZZ       0.0000   YYZZ    -192.3491
      XZZZ       0.0077   YZZZ       0.0000   ZZZZ    -956.3534
 -----------------------------------------------------------------
 Calculating analytic gradient of the SCF energy
 Gradient of XC Energy
            1           2           3           4           5           6
    1   0.0004064  -0.0005060  -0.0005060   0.0004064   0.1756126  -0.0877565
    2   0.0000000  -0.0000000   0.0000000   0.0000000  -0.0000000  -0.1520338
    3   0.0405770  -0.4788016   0.4788017  -0.0405771  -0.0698896  -0.0701389
            7           8           9          10
    1  -0.0877565   0.1756126  -0.0877565  -0.0877565
    2   0.1520337  -0.0000000   0.1520337  -0.1520337
    3  -0.0701389   0.0698896   0.0701389   0.0701389
 Gradient of SCF Energy
            1           2           3           4           5           6
    1  -0.0000359   0.0000359   0.0000359  -0.0000359  -0.0000065   0.0000032
    2   0.0000000  -0.0000000  -0.0000000   0.0000000  -0.0000000   0.0000044
    3   0.0001009  -0.0000516   0.0000516  -0.0001009  -0.0000237  -0.0000205
            7           8           9          10
    1   0.0000032  -0.0000065   0.0000032   0.0000032
    2  -0.0000044  -0.0000000  -0.0000044   0.0000044
    3  -0.0000205   0.0000236   0.0000205   0.0000205
 Max gradient component =       1.009E-04
 RMS gradient           =       3.358E-05
 Gradient time:  CPU 67.93 s  wall 68.31 s
 ######################################################
 ######################################################
 # Starting finite difference calculation for IDERIV  #
 Finite diff step size: 1.89e-03 a.u.
 Writing REM_CC_EA           10
 ----------------------------------------------------
       Standard Nuclear Orientation (Angstroms)
    I     Atom         X            Y            Z
 ----------------------------------------------------
    1      C       0.000920     0.000000     0.009294
    2      C      -0.000712     0.000000     1.465795
    3      C      -0.000712     0.000000     2.666388
    4      C      -0.000080     0.000000     4.122890
    5      H       1.017803     0.000000    -0.384599
    6      H      -0.508506    -0.881129    -0.386086
    7      H      -0.508506     0.881129    -0.386086
    8      H       1.017803     0.000000     4.516782
    9      H      -0.508506     0.881129     4.518269
   10      H      -0.508506    -0.881129     4.518269
 ----------------------------------------------------
 Nuclear Repulsion Energy =   100.2471735793 hartrees
 There are       15 alpha and       15 beta electrons

                       Distance Matrix (Angstroms)
             C (  1)   C (  2)   C (  3)   C (  4)   H (  5)   H (  6)
   C (  2)  1.456502
   C (  3)  2.657095  1.200593
   C (  4)  4.113596  2.657095  1.456502
   H (  5)  1.090506  2.112187  3.216504  4.620989
   H (  6)  1.091892  2.112748  3.217428  4.622309  1.762388
   H (  7)  1.091892  2.112748  3.217428  4.622309  1.762388  1.762258
   H (  8)  4.620769  3.216504  2.112187  1.091439  4.901382  5.210002
   H (  9)  4.622420  3.217428  2.112748  1.091426  5.210002  5.211358
   H ( 10)  4.622420  3.217428  2.112748  1.091426  5.210002  4.904355
             H (  7)   H (  8)   H (  9)
   H (  8)  5.210002
   H (  9)  4.904355  1.762388
   H ( 10)  5.211358  1.762388  1.762258
 
 Requested basis set is G3large
 There are 76 shells and 228 basis functions
 A cutoff of  1.0D-11 yielded   2625 shell pairs
 There are  23986 function pairs ( 29441 Cartesian)
Evaluating contribution to one-electron hamiltonian from nuclear
 Smallest overlap matrix eigenvalue = 2.82E-08

 Q-Chem warning in module mkSTV.C, line 194:

 Overlap eigenvalue is smaller than square root of threshold

 Linear dependence detected in AO basis
 Number of orthogonalized atomic orbitals = 227
 Maximum deviation from orthogonality = 1.832E-11
 Multipole matrices computed through 2nd order
 Guess MOs from SCF MO coefficient file
Reading MOs from coefficient file
Reading MOs from coefficient file
 An unrestricted hybrid HF-DFT SCF calculation will be
 performed using Pulay DIIS extrapolation
 Exchange:     0.2000 Hartree-Fock + 0.0800 Slater + 0.7200 Becke88
 Correlation:  0.8100 LYP + 0.1900 VWN1RPA
 Using SG-1 standard quadrature grid
 SCF converges when DIIS error is below 1.0E-08
 ---------------------------------------
  Cycle       Energy         DIIS Error
 ---------------------------------------
    1    -156.0388036275      1.96E-05
    2    -156.0388052437      2.89E-06
    3    -156.0388052965      1.81E-06
    4    -156.0388053138      1.38E-07
    5    -156.0388053173      8.77E-08
    6    -156.0388053157      5.36E-08
    7    -156.0388053157      4.02E-09 Convergence criterion met
 ---------------------------------------
 One-Electron    Energy =  -406.5858140547
 Total Coulomb   Energy =   174.2381065069
 Alpha Exchange  Energy =    -2.2835067846
 Beta  Exchange  Energy =    -2.2835067846
 DFT   Exchange  Energy =   -18.1241283576
 DFT Correlation Energy =    -1.2471294206
 Nuclear Repu.   Energy =   100.2471735793
 Nuclear Attr.   Energy =  -561.8853317995
 Kinetic         Energy =   155.2995177448
 <S^2> = 0.0000
 SCF time:  CPU 107.69 s  wall 108.18 s
 Final Alpha MO Eigenvalues
            1           2           3           4           5           6
    1 -10.1835128 -10.1835020 -10.1566058 -10.1541894  -0.7855415  -0.7468466
            7           8           9          10          11          12
    1  -0.6718625  -0.4829056  -0.4391793  -0.4342281  -0.4340284  -0.4213455
           13          14          15          16          17          18
    1  -0.4211188  -0.2549084  -0.2548720  -0.0086486   0.0041787   0.0307316
           19          20
    1   0.0307899   0.0356998
 Final Beta MO Eigenvalues
            1           2           3           4           5           6
    1 -10.1835128 -10.1835020 -10.1566058 -10.1541894  -0.7855415  -0.7468466
            7           8           9          10          11          12
    1  -0.6718625  -0.4829056  -0.4391793  -0.4342281  -0.4340284  -0.4213455
           13          14          15          16          17          18
    1  -0.4211188  -0.2549084  -0.2548720  -0.0086486   0.0041787   0.0307316
           19          20
    1   0.0307899   0.0356998
 Analysis of SCF Wavefunction
 
 --------------------------------------------------------------
                    Orbital Energies (a.u.)
 --------------------------------------------------------------
 
 Alpha MOs
 -- Occupied --
-10.184 -10.184 -10.157 -10.154  -0.786  -0.747  -0.672  -0.483
 -0.439  -0.434  -0.434  -0.421  -0.421  -0.255  -0.255
 -- Virtual --
 -0.009   0.004   0.031   0.031   0.036   0.036   0.052   0.070
  0.070   0.081   0.092   0.092   0.111   0.111   0.118   0.125
  0.125   0.125   0.142   0.177   0.177   0.182   0.182   0.213
  0.221   0.221   0.222   0.238   0.293   0.297   0.384   0.430
  0.430   0.448   0.448   0.464   0.486   0.499   0.499   0.543
  0.543   0.573   0.573   0.614   0.614   0.624   0.624   0.646
  0.647   0.654   0.654   0.685   0.702   0.782   0.815   0.818
  0.819   0.857   0.857   0.894   0.927   0.927   0.997   0.997
  1.033   1.080   1.119   1.119   1.135   1.135   1.245   1.245
  1.248   1.249   1.276   1.335   1.343   1.393   1.393   1.408
  1.408   1.429   1.429   1.467   1.519   1.544   1.560   1.560
  1.723   1.724   2.102   2.147   2.301   2.302   2.507   2.508
  2.553   2.588   2.654   2.654   2.657   2.691   2.748   2.748
  2.757   2.846   2.846   2.897   2.934   2.936   2.942   2.948
  2.949   3.025   3.067   3.067   3.098   3.105   3.105   3.130
  3.131   3.132   3.153   3.153   3.240   3.240   3.367   3.367
  3.407   3.408   3.445   3.446   3.446   3.506   3.577   3.578
  3.598   3.599   3.622   3.796   3.797   3.844   3.844   3.845
  3.869   3.869   3.877   4.063   4.109   4.109   4.146   4.186
  4.187   4.290   4.291   4.347   4.347   4.347   4.373   4.384
  4.516   4.647   4.647   4.694   4.868   4.868   5.018   5.369
  5.618   5.619   5.640   5.641   5.880   5.880   6.257   6.792
 23.669  24.368  24.467  25.638  27.515  27.515  27.774  27.774
 27.965  28.121  28.122  28.154  28.155  28.172  28.780  29.652
 40.911  40.950  40.959  40.992  41.001  41.150  41.157  41.166
 41.173  41.176  41.188  41.211  41.215  41.247  41.255  41.279
 41.281  41.482  41.483  41.784
 
 Beta MOs
 -- Occupied --
-10.184 -10.184 -10.157 -10.154  -0.786  -0.747  -0.672  -0.483
 -0.439  -0.434  -0.434  -0.421  -0.421  -0.255  -0.255
 -- Virtual --
 -0.009   0.004   0.031   0.031   0.036   0.036   0.052   0.070
  0.070   0.081   0.092   0.092   0.111   0.111   0.118   0.125
  0.125   0.125   0.142   0.177   0.177   0.182   0.182   0.213
  0.221   0.221   0.222   0.238   0.293   0.297   0.384   0.430
  0.430   0.448   0.448   0.464   0.486   0.499   0.499   0.543
  0.543   0.573   0.573   0.614   0.614   0.624   0.624   0.646
  0.647   0.654   0.654   0.685   0.702   0.782   0.815   0.818
  0.819   0.857   0.857   0.894   0.927   0.927   0.997   0.997
  1.033   1.080   1.119   1.119   1.135   1.135   1.245   1.245
  1.248   1.249   1.276   1.335   1.343   1.393   1.393   1.408
  1.408   1.429   1.429   1.467   1.519   1.544   1.560   1.560
  1.723   1.724   2.102   2.147   2.301   2.302   2.507   2.508
  2.553   2.588   2.654   2.654   2.657   2.691   2.748   2.748
  2.757   2.846   2.846   2.897   2.934   2.936   2.942   2.948
  2.949   3.025   3.067   3.067   3.098   3.105   3.105   3.130
  3.131   3.132   3.153   3.153   3.240   3.240   3.367   3.367
  3.407   3.408   3.445   3.446   3.446   3.506   3.577   3.578
  3.598   3.599   3.622   3.796   3.797   3.844   3.844   3.845
  3.869   3.869   3.877   4.063   4.109   4.109   4.146   4.186
  4.187   4.290   4.291   4.347   4.347   4.347   4.373   4.384
  4.516   4.647   4.647   4.694   4.868   4.868   5.018   5.369
  5.618   5.619   5.640   5.641   5.880   5.880   6.257   6.792
 23.669  24.368  24.467  25.638  27.515  27.515  27.774  27.774
 27.965  28.121  28.122  28.154  28.155  28.172  28.780  29.652
 40.911  40.950  40.959  40.992  41.001  41.150  41.157  41.166
 41.173  41.176  41.188  41.211  41.215  41.247  41.255  41.279
 41.281  41.482  41.483  41.784
 --------------------------------------------------------------
 
          Ground-State Mulliken Net Atomic Charges

     Atom                 Charge (a.u.)    Spin (a.u.)
  --------------------------------------------------------
      1 C                    -0.828456       0.000000
      2 C                     0.444102       0.000000
      3 C                     0.444113       0.000000
      4 C                    -0.828456       0.000000
      5 H                     0.128227       0.000000
      6 H                     0.128061       0.000000
      7 H                     0.128061       0.000000
      8 H                     0.128004       0.000000
      9 H                     0.128172       0.000000
     10 H                     0.128172       0.000000
  --------------------------------------------------------
  Sum of atomic charges =     0.000000
  Sum of spin   charges =     0.000000

 -----------------------------------------------------------------
                    Cartesian Multipole Moments
 -----------------------------------------------------------------
    Charge (ESU x 10^10)
                 0.0000
    Dipole Moment (Debye)
         X       0.0033      Y       0.0000      Z       0.0000
       Tot       0.0033
    Quadrupole Moments (Debye-Ang)
        XX     -25.9488     XY       0.0000     YY     -25.9533
        XZ       0.0049     YZ       0.0000     ZZ     -19.4021
    Octapole Moments (Debye-Ang^2)
       XXX       1.3542    XXY       0.0000    XYY      -1.3265
       YYY       0.0000    XXZ     -53.6168    XYZ       0.0000
       YYZ     -53.6178    XZZ       0.0064    YZZ       0.0000
       ZZZ    -120.2598
    Hexadecapole Moments (Debye-Ang^3)
      XXXX     -43.3775   XXXY       0.0000   XXYY     -14.4623
      XYYY       0.0000   YYYY     -43.3974   XXXZ       2.8202
      XXYZ       0.0000   XYYZ      -2.7332   YYYZ       0.0000
      XXZZ    -192.3538   XYZZ       0.0000   YYZZ    -192.3523
      XZZZ       0.0114   YZZZ       0.0000   ZZZZ    -956.3534
 -----------------------------------------------------------------
 Calculating analytic gradient of the SCF energy
 Gradient of XC Energy
            1           2           3           4           5           6
    1   0.0007791  -0.0009454  -0.0002352   0.0003558   0.1757543  -0.0879056
    2   0.0000000  -0.0000000   0.0000000   0.0000000  -0.0000000  -0.1518662
    3   0.0405746  -0.4787986   0.4787997  -0.0405768  -0.0700407  -0.0700628
            7           8           9          10
    1  -0.0879056   0.1756140  -0.0877557  -0.0877557
    2   0.1518662  -0.0000000   0.1520334  -0.1520334
    3  -0.0700628   0.0698945   0.0701364   0.0701364
 Gradient of SCF Energy
            1           2           3           4           5           6
    1   0.0009714  -0.0000850   0.0000427  -0.0000227  -0.0005260  -0.0001898
    2   0.0000000  -0.0000000  -0.0000000   0.0000000  -0.0000000  -0.0001829
    3   0.0000994  -0.0000510   0.0000516  -0.0001009   0.0001372  -0.0001004
            7           8           9          10
    1  -0.0001898  -0.0000067   0.0000030   0.0000030
    2   0.0001829  -0.0000000  -0.0000045   0.0000045
    3  -0.0001004   0.0000272   0.0000187   0.0000187
 Max gradient component =       9.714E-04
 RMS gradient           =       2.187E-04
 Gradient time:  CPU 67.55 s  wall 67.62 s
 Writing REM_CC_EA           10
 ----------------------------------------------------
       Standard Nuclear Orientation (Angstroms)
    I     Atom         X            Y            Z
 ----------------------------------------------------
    1      C      -0.001080     0.000000     0.009294
    2      C      -0.000712     0.000000     1.465795
    3      C      -0.000712     0.000000     2.666388
    4      C      -0.000080     0.000000     4.122890
    5      H       1.017803     0.000000    -0.384599
    6      H      -0.508506    -0.881129    -0.386086
    7      H      -0.508506     0.881129    -0.386086
    8      H       1.017803     0.000000     4.516782
    9      H      -0.508506     0.881129     4.518269
   10      H      -0.508506    -0.881129     4.518269
 ----------------------------------------------------
 Nuclear Repulsion Energy =   100.2471776666 hartrees
 There are       15 alpha and       15 beta electrons

                       Distance Matrix (Angstroms)
             C (  1)   C (  2)   C (  3)   C (  4)   H (  5)   H (  6)
   C (  2)  1.456501
   C (  3)  2.657095  1.200593
   C (  4)  4.113596  2.657095  1.456502
   H (  5)  1.092371  2.112187  3.216504  4.620989
   H (  6)  1.090960  2.112748  3.217428  4.622309  1.762388
   H (  7)  1.090960  2.112748  3.217428  4.622309  1.762388  1.762258
   H (  8)  4.621210  3.216504  2.112187  1.091439  4.901382  5.210002
   H (  9)  4.622200  3.217428  2.112748  1.091426  5.210002  5.211358
   H ( 10)  4.622200  3.217428  2.112748  1.091426  5.210002  4.904355
             H (  7)   H (  8)   H (  9)
   H (  8)  5.210002
   H (  9)  4.904355  1.762388
   H ( 10)  5.211358  1.762388  1.762258
 
 Requested basis set is G3large
 There are 76 shells and 228 basis functions
 A cutoff of  1.0D-11 yielded   2625 shell pairs
 There are  23986 function pairs ( 29441 Cartesian)
Evaluating contribution to one-electron hamiltonian from nuclear
 Smallest overlap matrix eigenvalue = 2.82E-08

 Q-Chem warning in module mkSTV.C, line 194:

 Overlap eigenvalue is smaller than square root of threshold

 Linear dependence detected in AO basis
 Number of orthogonalized atomic orbitals = 227
 Maximum deviation from orthogonality = 1.025E-11
 Multipole matrices computed through 2nd order
 Guess MOs from SCF MO coefficient file
Reading MOs from coefficient file
Reading MOs from coefficient file
 An unrestricted hybrid HF-DFT SCF calculation will be
 performed using Pulay DIIS extrapolation
 Exchange:     0.2000 Hartree-Fock + 0.0800 Slater + 0.7200 Becke88
 Correlation:  0.8100 LYP + 0.1900 VWN1RPA
 Using SG-1 standard quadrature grid
 SCF converges when DIIS error is below 1.0E-08
[...]
Order 1, Length 30
  -0.0992188  -0.2168494  -0.0715225   0.0029836   0.0037455  -0.0037303  -0.0004571   0.0001948   0.0017930   0.0000464  -0.0000965  -0.0002189   0.0000880   0.0004338   0.0013085   0.1093703   0.2340510   0.0808752  -0.0127105  -0.0213906  -0.0085541   0.0000082   0.0000010   0.0000384  -0.0000315  -0.0000410  -0.0000783  -0.0000817  -0.0000504   0.0000798
Order 1, Length 30
  -0.0423880  -0.0733218  -0.0748538  -0.0160806  -0.0278948  -0.0205985   0.0003172   0.0005387   0.0004132   0.0009417   0.0016286  -0.0002405   0.0041811   0.0098936   0.0041453   0.0466849   0.0808752   0.0875755   0.0064996   0.0085555   0.0041373  -0.0000221  -0.0001170   0.0000489  -0.0000874  -0.0000774   0.0000474  -0.0000465  -0.0000818  -0.0006816
Order 1, Length 30
  -0.1021021   0.0992387  -0.0412997   0.0003288  -0.0030111  -0.0021535   0.0007027   0.0004604   0.0010538  -0.0001458  -0.0000449  -0.0001220  -0.0141109   0.0253329  -0.0106867   0.0077051  -0.0127105   0.0064996   0.1075928  -0.1093705   0.0466851  -0.0000278   0.0000561  -0.0001141   0.0000401   0.0000799   0.0000453   0.0000157  -0.0000307   0.0000876
Order 1, Length 30
   0.0992179  -0.2168479   0.0715224  -0.0029837   0.0037461   0.0037207   0.0004566   0.0001946  -0.0017845  -0.0000447  -0.0000977   0.0002238  -0.0000866   0.0004318  -0.0013087   0.0127105  -0.0213906   0.0085555  -0.1093705   0.2340511  -0.0808750  -0.0000100   0.0000030  -0.0000395   0.0000814  -0.0000499  -0.0000822   0.0000313  -0.0000410   0.0000755
Order 1, Length 30
  -0.0423870   0.0733198  -0.0748533  -0.0160807   0.0278945  -0.0205887   0.0003178  -0.0005399   0.0004030   0.0009391  -0.0016237  -0.0002447   0.0041793  -0.0098931   0.0041463   0.0064996  -0.0085541   0.0041373   0.0466851  -0.0808750   0.0875755  -0.0000196   0.0001151   0.0000502  -0.0000454   0.0000802  -0.0006816  -0.0000880   0.0000764   0.0000499
Order 1, Length 30
  -0.0000667  -0.0000004  -0.0002580  -0.0000622   0.0000004   0.0020682   0.0054989   0.0000006  -0.0043440  -0.2741099  -0.0000008  -0.0825315  -0.0000956  -0.0000012   0.0000965  -0.0000271   0.0000082  -0.0000221  -0.0000278  -0.0000100  -0.0000196   0.2971081   0.0000001   0.0933626  -0.0141108  -0.0000872  -0.0041814  -0.0141107   0.0000894  -0.0041801
Order 1, Length 30
   0.0000032  -0.0001730   0.0000034  -0.0000007   0.0009581   0.0000094   0.0000001  -0.0013603  -0.0000090  -0.0000013  -0.0448911  -0.0000015  -0.0000013   0.0000886  -0.0000001  -0.0000574   0.0000010  -0.0001170   0.0000561   0.0000030   0.0001151   0.0000001   0.0445086   0.0000002   0.0253331   0.0004318   0.0098930  -0.0253320   0.0004338  -0.0098936
Order 1, Length 30
   0.0018809  -0.0000001  -0.0002429   0.0006235   0.0000002   0.0003957  -0.0321877   0.0000003  -0.0204445  -0.0847318   0.0000000  -0.0749757  -0.0000962  -0.0000000  -0.0006799  -0.0001138   0.0000384   0.0000489  -0.0001141  -0.0000395   0.0000502   0.0933626   0.0000002   0.0875502   0.0106863   0.0013088   0.0041454   0.0106862  -0.0013085   0.0041463
Order 1, Length 30
  -0.0001465  -0.0000457   0.0001247   0.0007028   0.0004607  -0.0010514   0.0003287  -0.0030111   0.0021526  -0.1021019   0.0992386   0.0412982  -0.0000265   0.0000561   0.0001133   0.0000158  -0.0000315  -0.0000874   0.0000401   0.0000814  -0.0000454  -0.0141108   0.0253331   0.0106863   0.1075926  -0.1093706  -0.0466853   0.0077052  -0.0127105  -0.0065001
Order 1, Length 30
  -0.0000432  -0.0000977  -0.0002226   0.0004562   0.0001945   0.0017846  -0.0029836   0.0037462  -0.0037223   0.0992184  -0.2168479  -0.0715214  -0.0000102   0.0000030   0.0000393   0.0000302  -0.0000410  -0.0000774   0.0000799  -0.0000499   0.0000802  -0.0000872   0.0004318   0.0013088  -0.1093706   0.2340511   0.0808752   0.0127100  -0.0213906  -0.0085537
Order 1, Length 30
  -0.0009412   0.0016286  -0.0002406  -0.0003175   0.0005388   0.0004131   0.0160807  -0.0278942  -0.0205984   0.0423884  -0.0733218  -0.0748538   0.0000217  -0.0001152   0.0000489   0.0000861  -0.0000783   0.0000474   0.0000453  -0.0000822  -0.0006816  -0.0041814   0.0098930   0.0041454  -0.0466853   0.0808752   0.0875755  -0.0064992   0.0085559   0.0041374
Order 1, Length 30
  -0.0001479   0.0000465   0.0001253   0.0007032  -0.0004606  -0.0010520   0.0003286   0.0030109   0.0021523  -0.1021016  -0.0992386   0.0412989  -0.0000256  -0.0000574   0.0001129   0.0000400  -0.0000817  -0.0000465   0.0000157   0.0000313  -0.0000880  -0.0141107  -0.0253320   0.0106862   0.0077052   0.0127100  -0.0064992   0.1075924   0.1093706  -0.0466854
Order 1, Length 30
   0.0000450  -0.0000965   0.0002203  -0.0004567   0.0001948  -0.0017932   0.0029836   0.0037456   0.0037288  -0.0992193  -0.2168494   0.0715234   0.0000087   0.0000009  -0.0000386  -0.0000801  -0.0000504  -0.0000818  -0.0000307  -0.0000410   0.0000764   0.0000894   0.0004338  -0.0013085  -0.0127105  -0.0213906   0.0085559   0.1093706   0.2340510  -0.0808751
Order 1, Length 30
  -0.0009386  -0.0016236  -0.0002447  -0.0003180  -0.0005399   0.0004030   0.0160808   0.0278951  -0.0205888   0.0423874   0.0733198  -0.0748532   0.0000197   0.0001168   0.0000502   0.0000442   0.0000798  -0.0006816   0.0000876   0.0000755   0.0000499  -0.0041801  -0.0098936   0.0041463  -0.0065001  -0.0085537   0.0041374  -0.0466854  -0.0808751   0.0875755


 # Finishing finite difference calculation for IDERIV #
 ######################################################
 ######################################################
 Requested basis set is G3large
 There are 76 shells and 228 basis functions
 **********************************************************************
 **                                                                  **
 **                       VIBRATIONAL ANALYSIS                       **
 **                       --------------------                       **
 **                                                                  **
 **        VIBRATIONAL FREQUENCIES (CM**-1) AND NORMAL MODES         **
 **     FORCE CONSTANTS (mDYN/ANGSTROM) AND REDUCED MASSES (AMU)     **
 **                  INFRARED INTENSITIES (KM/MOL)                   **
 **                                                                  **
 **********************************************************************
 

 Mode:                 1                      2                      3
 Frequency:        74.46                 201.36                 201.39
 Force Cnst:      0.0033                 0.0667                 0.0668
 Red. Mass:       1.0078                 2.7925                 2.7952
 IR Active:          YES                    YES                    YES
 IR Intens:        0.000                 13.224                 13.262
 Raman Active:       YES                    YES                    YES
               X      Y      Z        X      Y      Z        X      Y      Z
 C          0.000  0.000  0.000   -0.152  0.054  0.000   -0.054 -0.152  0.000
 C          0.000  0.001  0.000    0.221 -0.079  0.000    0.079  0.221  0.000
 C          0.000 -0.001  0.000    0.221 -0.079  0.000    0.079  0.221  0.000
 C          0.000  0.000  0.000   -0.152  0.054  0.000   -0.054 -0.152  0.000
 H          0.000 -0.409  0.000   -0.274  0.097 -0.312   -0.098 -0.274 -0.111
 H         -0.354  0.204  0.001   -0.275  0.098  0.059   -0.097 -0.275  0.326
 H          0.354  0.204 -0.001   -0.274  0.098  0.252   -0.098 -0.275 -0.215
 H          0.000  0.409  0.000   -0.274  0.098  0.312   -0.098 -0.273  0.111
 H         -0.354 -0.204 -0.001   -0.274  0.098 -0.252   -0.098 -0.275  0.215
 H          0.354 -0.204  0.001   -0.274  0.098 -0.059   -0.097 -0.275 -0.326
 TransDip   0.000  0.000  0.000   -0.110  0.039  0.000   -0.039 -0.110  0.000

 Mode:                 4                      5                      6
 Frequency:       404.78                 405.02                 724.01
 Force Cnst:      0.3879                 0.3890                 1.1300
 Red. Mass:       4.0178                 4.0250                 3.6588
 IR Active:          YES                    YES                    YES
 IR Intens:        0.000                  0.000                  0.000
 Raman Active:       YES                    YES                    YES
               X      Y      Z        X      Y      Z        X      Y      Z
 C         -0.025  0.000  0.000    0.000  0.025  0.000    0.000  0.000  0.343
 C          0.369  0.002  0.000    0.002 -0.370  0.000    0.000  0.000  0.051
 C         -0.369 -0.002  0.000   -0.002  0.370  0.000    0.000  0.000 -0.051
 C          0.025  0.000  0.000    0.000 -0.025  0.000    0.000  0.000 -0.343
 H         -0.188 -0.001 -0.413   -0.001  0.186 -0.002    0.005  0.000  0.356
 H         -0.189  0.000  0.208   -0.005  0.190 -0.357   -0.003 -0.005  0.356
 H         -0.189 -0.002  0.205    0.003  0.190  0.359   -0.003  0.005  0.356
 H          0.188  0.001 -0.413    0.001 -0.186 -0.002    0.005  0.000 -0.356
 H          0.189  0.002  0.205   -0.003 -0.190  0.359   -0.003  0.005 -0.356
 H          0.189  0.000  0.208    0.005 -0.190 -0.357   -0.003 -0.005 -0.356
 TransDip   0.000  0.000  0.000    0.000  0.000  0.000    0.000  0.000  0.000

 Mode:                 7                      8                      9
 Frequency:      1049.17                1050.18                1066.75
 Force Cnst:      0.9236                 0.9247                 0.9200
 Red. Mass:       1.4242                 1.4230                 1.3722
 IR Active:          YES                    YES                    YES
 IR Intens:        0.000                  0.000                  0.748
 Raman Active:       YES                    YES                    YES
               X      Y      Z        X      Y      Z        X      Y      Z
 C         -0.108  0.000  0.000    0.000  0.108  0.000   -0.110  0.000  0.000
 C          0.085  0.000  0.000    0.000 -0.085  0.000    0.067  0.000  0.000
 C         -0.085  0.000  0.000    0.000  0.085  0.000    0.067  0.000  0.000
 C          0.108  0.000  0.000    0.000 -0.108  0.000   -0.110  0.000  0.000
 H          0.097 -0.001  0.499    0.000 -0.249 -0.001    0.096  0.000  0.503
 H          0.211 -0.066 -0.249    0.065 -0.135  0.433    0.207 -0.063 -0.253
 H          0.211  0.065 -0.250   -0.066 -0.135 -0.432    0.207  0.064 -0.252
 H         -0.097  0.001  0.499    0.000  0.249 -0.001    0.096  0.000 -0.503
 H         -0.211 -0.065 -0.251    0.066  0.135 -0.432    0.207  0.064  0.252
 H         -0.211  0.066 -0.249   -0.065  0.135  0.433    0.207 -0.063  0.253
 TransDip   0.000  0.000  0.000    0.000  0.000  0.000    0.028  0.000  0.000

 Mode:                10                     11                     12
 Frequency:      1067.78                1167.08                1421.23
 Force Cnst:      0.9212                 3.6366                 1.5286
 Red. Mass:       1.3713                 4.5315                 1.2845
 IR Active:          YES                    YES                    YES
 IR Intens:        0.778                  0.042                  3.408
 Raman Active:       YES                    YES                    YES
               X      Y      Z        X      Y      Z        X      Y      Z
 C          0.000  0.110  0.000    0.000  0.000 -0.238    0.000  0.000  0.111
 C          0.000 -0.067  0.000    0.000  0.000  0.322    0.000  0.000 -0.019
 C          0.000 -0.067  0.000    0.000  0.000  0.322    0.000  0.000 -0.019
 C          0.000  0.110  0.000    0.000  0.000 -0.238    0.000  0.000  0.111
 H          0.000 -0.243  0.001   -0.036  0.000 -0.333   -0.172  0.000 -0.365
 H          0.064 -0.133  0.436    0.020  0.031 -0.335    0.086  0.148 -0.365
 H         -0.063 -0.133 -0.437    0.020 -0.031 -0.335    0.086 -0.148 -0.365
 H          0.000 -0.243 -0.001    0.036  0.000 -0.333    0.172  0.000 -0.365
 H         -0.063 -0.133  0.437   -0.020  0.031 -0.335   -0.086  0.148 -0.364
 H          0.064 -0.133 -0.436   -0.020 -0.031 -0.335   -0.086 -0.148 -0.364
 TransDip   0.000 -0.028  0.000    0.000  0.000  0.007    0.000  0.000  0.059

 Mode:                13                     14                     15
 Frequency:      1424.61                1485.40                1485.43
 Force Cnst:      1.4483                 1.3498                 1.3531
 Red. Mass:       1.2112                 1.0384                 1.0408
 IR Active:          YES                    YES                    YES
 IR Intens:        0.000                 14.406                  0.007
 Raman Active:       YES                    YES                    YES
               X      Y      Z        X      Y      Z        X      Y      Z
 C          0.000  0.000  0.096   -0.034  0.000  0.000   -0.036  0.000  0.000
 C          0.000  0.000  0.004   -0.012  0.000  0.000   -0.016  0.000  0.000
 C          0.000  0.000 -0.004   -0.013  0.000  0.000    0.015  0.000  0.000
 C          0.000  0.000 -0.096   -0.036  0.000  0.000    0.035  0.000  0.000
 H         -0.168  0.000 -0.369   -0.118 -0.002 -0.259   -0.124 -0.006 -0.270
 H          0.084  0.145 -0.367    0.337 -0.262  0.130    0.353 -0.274  0.132
 H          0.084 -0.145 -0.367    0.335  0.262  0.131    0.346  0.273  0.138
 H         -0.168  0.000  0.369   -0.123  0.004  0.270    0.119 -0.001 -0.259
 H          0.084 -0.145  0.367    0.352  0.274 -0.134   -0.336 -0.262  0.130
 H          0.084  0.145  0.368    0.348 -0.273 -0.138   -0.335  0.262  0.130
 TransDip   0.000  0.000  0.000    0.122  0.000  0.000    0.003 -0.001  0.000

 Mode:                16                     17                     18
 Frequency:      1485.60                1485.62                2356.16
 Force Cnst:      1.3502                 1.3534                38.5219
 Red. Mass:       1.0384                 1.0408                11.7774
 IR Active:          YES                    YES                    YES
 IR Intens:       14.247                  0.009                  0.000
 Raman Active:       YES                    YES                    YES
               X      Y      Z        X      Y      Z        X      Y      Z
 C          0.000 -0.034  0.000    0.000 -0.036  0.000    0.000  0.000  0.089
 C          0.000 -0.012  0.000    0.000 -0.016  0.000    0.000  0.000 -0.694
 C          0.000 -0.013  0.000    0.000  0.015  0.000    0.000  0.000  0.694
 C          0.000 -0.036  0.000    0.000  0.035  0.000    0.000  0.000 -0.089
 H         -0.001  0.485 -0.001   -0.001  0.510 -0.003    0.018  0.000  0.055
 H         -0.259  0.032  0.224   -0.270  0.031  0.236   -0.009 -0.016  0.055
 H          0.263  0.035 -0.223    0.278  0.038 -0.233   -0.009  0.016  0.055
 H          0.001  0.510 -0.002    0.000 -0.485  0.000    0.018  0.000 -0.055
 H          0.271  0.032  0.236   -0.261 -0.033 -0.223   -0.009  0.016 -0.055
 H         -0.277  0.037 -0.234    0.261 -0.033  0.223   -0.009 -0.016 -0.055
 TransDip   0.000  0.121  0.000    0.001  0.003  0.000    0.000  0.000  0.000

 Mode:                19                     20                     21
 Frequency:      3026.14                3026.74                3078.95
 Force Cnst:      5.5780                 5.5823                 6.1488
 Red. Mass:       1.0338                 1.0342                 1.1009
 IR Active:          YES                    YES                    YES
 IR Intens:        0.000                 65.975                 21.370
 Raman Active:       YES                    YES                    YES
               X      Y      Z        X      Y      Z        X      Y      Z
 C          0.000  0.000  0.034    0.000  0.000  0.035   -0.065  0.000  0.000
 C          0.000  0.000  0.004    0.000  0.000  0.000    0.000  0.000  0.000
 C          0.000  0.000 -0.004    0.000  0.000  0.000    0.000  0.000  0.000
 C          0.000  0.000 -0.034    0.000  0.000  0.035   -0.065  0.000  0.000
 H          0.384  0.000 -0.139    0.385  0.000 -0.139    0.538  0.000 -0.208
 H         -0.191 -0.331 -0.139   -0.192 -0.332 -0.139    0.122  0.241  0.104
 H         -0.191  0.331 -0.139   -0.192  0.332 -0.139    0.123 -0.242  0.104
 H          0.385  0.000  0.140   -0.384  0.000 -0.139    0.532  0.000  0.205
 H         -0.192  0.332  0.139    0.191 -0.331 -0.138    0.121 -0.239 -0.103
 H         -0.192 -0.332  0.139    0.191  0.331 -0.138    0.121  0.239 -0.103
 TransDip   0.000  0.000  0.000    0.000  0.000  0.260   -0.148  0.000  0.000

 Mode:                22                     23                     24
 Frequency:      3079.09                3080.07                3080.23
 Force Cnst:      6.1496                 6.1530                 6.1543
 Red. Mass:       1.1009                 1.1008                 1.1009
 IR Active:          YES                    YES                    YES
 IR Intens:       21.377                  0.001                  0.000
 Raman Active:       YES                    YES                    YES
               X      Y      Z        X      Y      Z        X      Y      Z
 C          0.000 -0.065  0.000    0.065 -0.002  0.000   -0.002 -0.065  0.000
 C          0.000  0.000  0.000    0.000  0.000  0.000    0.000  0.000  0.000
 C          0.000  0.000  0.000    0.000  0.000  0.000    0.000  0.000  0.000
 C          0.000 -0.065  0.000   -0.065  0.003  0.000    0.002  0.065  0.000
 H          0.000 -0.017  0.000   -0.532 -0.001  0.205    0.020 -0.017 -0.008
 H          0.239  0.398  0.179   -0.112 -0.224 -0.096    0.244  0.407  0.183
 H         -0.240  0.398 -0.179   -0.130  0.253 -0.110   -0.234  0.389 -0.175
 H          0.001 -0.017  0.000    0.538  0.001  0.208   -0.020  0.017 -0.008
 H         -0.239  0.398  0.179    0.132 -0.256 -0.111    0.234 -0.389 -0.175
 H          0.240  0.398 -0.179    0.113  0.226 -0.097   -0.244 -0.407  0.183
 TransDip   0.000 -0.148  0.000   -0.001  0.000  0.001    0.000  0.000  0.000

 STANDARD THERMODYNAMIC QUANTITIES AT   298.18 K  AND     1.00 ATM

   This Molecule has  0 Imaginary Frequencies
   Zero point vibrational energy:       52.790 kcal/mol

   Atom    1 Element C  Has Mass   12.00000
   Atom    2 Element C  Has Mass   12.00000
   Atom    3 Element C  Has Mass   12.00000
   Atom    4 Element C  Has Mass   12.00000
   Atom    5 Element H  Has Mass    1.00783
   Atom    6 Element H  Has Mass    1.00783
   Atom    7 Element H  Has Mass    1.00783
   Atom    8 Element H  Has Mass    1.00783
   Atom    9 Element H  Has Mass    1.00783
   Atom   10 Element H  Has Mass    1.00783
   Molecular Mass:    54.046980 amu
   Principal axes and moments of inertia in atomic units:
                             1           2           3
    Eigenvalues --       22.35615   534.42876   534.43097
          X               0.00000     1.00000     0.00004
          Y               0.00000    -0.00004     1.00000
          Z               1.00000     0.00000     0.00000
   Rotational Symmetry Number is   1
   The Molecule is an Asymmetric Top
   Translational Enthalpy:        0.889 kcal/mol
   Rotational Enthalpy:           0.889 kcal/mol
   Vibrational Enthalpy:         54.538 kcal/mol
   gas constant (RT):             0.593 kcal/mol
   Translational Entropy:        37.884  cal/mol.K
   Rotational Entropy:           23.372  cal/mol.K
   Vibrational Entropy:          10.868  cal/mol.K

   Total Enthalpy:               56.909 kcal/mol
   Total Entropy:                72.125  cal/mol.K
 Total job time:  11374.49s(wall), 11344.94s(cpu) 
 Wed Jul 24 19:18:59 2013

        *************************************************************
        *                                                           *
        *  Thank you very much for using Q-Chem.  Have a nice day.  *
        *                                                           *
        *************************************************************


0 sent ACK to 0 
now end server 0 ... 
