Process 0 of 1 is on cl151.stfx.acenet.ca - thread support 1
initial socket setup ...start
initial socket setup ...done 
now start server 0 ... 

cmd = /usr/bin/ssh clhead /usr/local/qchem/bin/get_hostid 2107087696 > /scratch/tmp/6029106.1.medium.q/qchem4502/lic.dat
                  Welcome to Q-Chem
     A Quantum Leap Into The Future Of Chemistry

 Y. Shao, L. Fusti-Molnar, Y. Jung, J. Kussmann, C. Ochsenfeld,
 S. T. Brown, A. T. B. Gilbert, L. V. Slipchenko,S. V. Levchenko,
 D. P. O'Neill, R. A. DiStasio Jr., R. C. Lochan, T. Wang,
 G. J. O. Beran, N. A. Besley, J. M. Herbert, C. Y. Lin,
 T. Van Voorhis, S. H. Chien, A. Sodt, R. P. Steele, 
 V. A. Rassolov, P. E. Maslen, P. P. Korambath, R. D. Adamson,
 B. Austin, J. Baker, E. F. C. Byrd, H. Dachsel, R. J. Doerksen,
 A. Dreuw, B. D. Dunietz, A. D. Dutoi, T. R. Furlani,
 S. R. Gwaltney, A. Heyden, S. Hirata, C.-P. Hsu, G. Kedziora,
 R. Z. Khaliullin, P. Klunzinger, A. M. Lee, M. S. Lee, W. Liang,
 I. Lotan, N. Nair, B. Peters, E. I. Proynov, P. A. Pieniazek, 
 Y. M. Rhee, J. Ritchie, E. Rosta, C. D. Sherrill, 
 A. C. Simmonett, J. E. Subotnik, H. L. Woodcock III,
 W. Zhang, A. T. Bell, A. K. Chakraborty, D. M. Chipman,
 F. J. Keil, A. Warshel, W. J. Hehre, H. F. Schaefer III,
 J. Kong, A. I. Krylov, P. M. W. Gill, M. Head-Gordon,
 Q-Chem, Version 3.1, Q-Chem, Inc., Pittsburgh, PA (2007).

 Additional authors for Version 3.1: 
 Z. Gan, Y. Zhao, N. E. Schultz, D. Truhlar, E. Epifanovsky and M. Oana.

 Additional authors for Version 3.2: 
 R. Baer, B. R. Brooks, D. Casanova, J.-D. Chai, C.-L. Cheng, 
 C. Cramer, D. Crittenden, A. Ghysels, G. Hawkins, E. G. Hohenstein, 
 C. Kelley, W. Kurlancheek, D. Liotard, E. Livshits, P. Manohar, 
 A. Marenich, D. Neuhauser, R. Olson, M. A. Rohrdanz, K. S. Thanthiriwatte, 
 A. J. W. Thom, V. Vanovschi, C. F. Williams, Q. Wu and Z.-Q. You. 


 Intel X86 Linux Version

 Q-chem begins on Tue Jun  4 16:43:05 2013  

 Parallel job on  1  processors
Processing $rem in /usr/local/qchem/config/preferences.

theFileMan(): MAXOPENFILES=974 MAX_SUB_FILE_NUM=16
Maximum size of a physical file is 2.0 GB, maximum size of a tmp-file is 32.0 GB


--------------------------------------------------------------
User input:
--------------------------------------------------------------

$molecule
-1,2
C
C,1,cc
Cl,1,ccl,2,cccl
Cl,1,ccl,2,cccl,3,180.,0
Cl,2,ccl,1,cccl,3,180.,0
Cl,2,ccl,1,cccl,3,0.,0

 cc=1.34683514
 ccl=1.73153631
 cccl=122.46468603

6

C         -0.00000       -0.00000        0.00028
C         -0.00000       -0.00000        1.34655
Cl         1.50798        0.00000       -0.90989
Cl        -1.50798       -0.00000       -0.90989
Cl        -1.50798        0.00000        2.25672
Cl         1.50798       -0.00000        2.25672
$end

$comment
negative
$end

$xc_functional
C PBE   1.00
X wPBE  1.00
$end

$rem
SYMMETRY_DECOMPOSITION	0
exchange 		general
LRC_DFT                 true
BASIS                   g3large
omega			330
mem_static              760
max_scf_cycles          200
scf_final_print         1
sym_ignore              true
$end

--------------------------------------------------------------
 Writing REM_CC_EA            6
 ----------------------------------------------------
       Standard Nuclear Orientation (Angstroms)
    I     Atom         X            Y            Z
 ----------------------------------------------------
    1      C       0.000000     0.000000     0.000000
    2      C       0.000000     0.000000     1.346835
    3      Cl      1.460936     0.000000    -0.929454
    4      Cl     -1.460936     0.000000    -0.929454
    5      Cl     -1.460936     0.000000     2.276289
    6      Cl      1.460936     0.000000     2.276289
 ----------------------------------------------------
 Nuclear Repulsion Energy =   489.2655918630 hartrees
 There are       41 alpha and       40 beta electrons
 Requested basis set is G3large
 There are 96 shells and 348 basis functions

Total QAlloc Memory Limit   2000 MB
Mega-Array Size       743 MB
MEM_STATIC part       760 MB

                       Distance Matrix (Angstroms)
             C (  1)   C (  2)   Cl(  3)   Cl(  4)   Cl(  5)
   C (  2)  1.346835
   Cl(  3)  1.731536  2.704778
   Cl(  4)  1.731536  2.704778  2.921872
   Cl(  5)  2.704778  1.731536  4.337525  3.205742
   Cl(  6)  2.704778  1.731536  3.205742  4.337525  2.921872
 
 A cutoff of  1.0D-08 yielded   3442 shell pairs
 There are  47196 function pairs ( 65555 Cartesian)
Evaluating contribution to one-electron hamiltonian from nuclear
 Smallest overlap matrix eigenvalue = 1.03E-05

 Q-Chem warning in module mkSTV.C, line 194:

 Overlap eigenvalue is smaller than square root of threshold

 Multipole matrices computed through 2nd order

  Scale SEOQF with 1.000000e-01/1.000000e-01/1.000000e-01

 Standard Electronic Orientation quadrupole field applied
 Nucleus-field energy     =    -0.0000000180 hartrees
 Guess from superposition of atomic densities
 Warning:  Energy on first SCF cycle will be non-variational
 Long-range K will be added via erf
 Coulomb attenuation parameter = 0.33 bohr**(-1)
 An unrestricted Kohn-Sham SCF calculation will be
 performed using Pulay DIIS extrapolation
 Exchange:  wPBE + LR-HF      Correlation:  PBE
 Using SG-1 standard quadrature grid
 SCF converges when DIIS error is below 1.0E-05
 Requested basis set is G3large
 There are 96 shells and 348 basis functions
 A cutoff of  1.0D-08 yielded   3442 shell pairs
 There are  47196 function pairs ( 65555 Cartesian)
 Warning!  Inaccurate integrated density:
   Number of electrons =    81
   Numerical integral  =    80.000221088661
   Relative error      =    -1.2342949523 %
 ---------------------------------------
  Cycle       Energy         DIIS Error
 ---------------------------------------
    1   -1917.5934353970      1.94E-02
    2   -1916.2551066772      1.77E-03
    3   -1916.3044090916      1.24E-03
    4   -1916.3200866674      3.02E-04
    5   -1916.3222414542      1.71E-04
    6   -1916.3233394517      6.58E-05
    7   -1916.3238103224      3.03E-05
    8   -1916.3241714279      2.47E-05
    9   -1916.3244997168      1.78E-05
   10   -1916.3248834220      1.54E-05
   11   -1916.3250893653      1.38E-05
   12   -1916.3254414948      1.18E-05
   13   -1916.3257948958      1.24E-05
   14   -1916.3258660989      1.14E-05
   15   -1916.3258625224      6.59E-06 Convergence criterion met
 ---------------------------------------
 One-Electron    Energy = -3633.4082595642
 Total Coulomb   Energy =  1351.1871905414
 Alpha Exchange  Energy =    -7.0983424995
 Beta  Exchange  Energy =    -6.9748947882
 DFT   Exchange  Energy =  -106.1852371379
 DFT Correlation Energy =    -3.1119109189
 Nuclear Repu.   Energy =   489.2655918450
 Nuclear Attr.   Energy = -5547.3924389649
 Kinetic         Energy =  1913.9841794007
 <S^2> = 0.7543
 SCF time:  CPU 1170.30 s  wall 1176.29 s
 Final Alpha MO Eigenvalues
            1           2           3           4           5           6
    1-100.6932287-100.6931959-100.6883620-100.6883586 -10.0002644  -9.9996558
            7           8           9          10          11          12
    1  -9.2146722  -9.2146445  -9.2098659  -9.2098649  -7.0352313  -7.0352028
           13          14          15          16          17          18
    1  -7.0304208  -7.0304188  -7.0255504  -7.0255221  -7.0247157  -7.0246879
           19          20          21          22          23          24
    1  -7.0207647  -7.0207639  -7.0199570  -7.0199556  -0.8884048  -0.8405022
           25          26          27          28          29          30
    1  -0.8004845  -0.7777121  -0.6560962  -0.4992821  -0.4471940  -0.4371984
           31          32          33          34          35          36
    1  -0.3860813  -0.3627561  -0.3183048  -0.2953799  -0.2864274  -0.2856982
           37          38          39          40          41          42
    1  -0.2769331  -0.2714614  -0.2393059  -0.1704238   0.0304847   0.1709943
           43          44          45          46
    1   0.1821799   0.1930010   0.2095945   0.2100980
 Final Beta MO Eigenvalues
            1           2           3           4           5           6
    1-100.6926929-100.6926605-100.6876721-100.6876686  -9.9968190  -9.9962719
            7           8           9          10          11          12
    1  -9.2141011  -9.2140721  -9.2091338  -9.2091321  -7.0340966  -7.0340669
           13          14          15          16          17          18
    1  -7.0289535  -7.0289516  -7.0251149  -7.0250853  -7.0241837  -7.0241548
           19          20          21          22          23          24
    1  -7.0202000  -7.0201987  -7.0192900  -7.0192892  -0.8816543  -0.8366871
           25          26          27          28          29          30
    1  -0.7944785  -0.7726283  -0.6424261  -0.4945159  -0.4325684  -0.4227779
           31          32          33          34          35          36
    1  -0.3828327  -0.3505250  -0.3159350  -0.2871572  -0.2831999  -0.2830368
           37          38          39          40          41          42
    1  -0.2742605  -0.2688722  -0.2368929  -0.1666036   0.1800483   0.1892976
           43          44          45
    1   0.1919253   0.2029962   0.2117960
 Analysis of SCF Wavefunction
 
 --------------------------------------------------------------
                    Orbital Energies (a.u.)
 --------------------------------------------------------------
 
 Alpha MOs
 -- Occupied --
*******-100.693-100.688-100.688 -10.000 -10.000  -9.215  -9.215
 -9.210  -9.210  -7.035  -7.035  -7.030  -7.030  -7.026  -7.026
 -7.025  -7.025  -7.021  -7.021  -7.020  -7.020  -0.888  -0.841
 -0.800  -0.778  -0.656  -0.499  -0.447  -0.437  -0.386  -0.363
 -0.318  -0.295  -0.286  -0.286  -0.277  -0.271  -0.239  -0.170
  0.030
 -- Virtual --
  0.171   0.182   0.193   0.210   0.210   0.231   0.236   0.236
  0.247   0.260   0.263   0.283   0.287   0.288   0.291   0.310
  0.312   0.321   0.332   0.332   0.350   0.354   0.380   0.391
  0.402   0.403   0.404   0.433   0.438   0.458   0.487   0.506
  0.515   0.525   0.539   0.572   0.574   0.591   0.592   0.599
  0.599   0.635   0.641   0.659   0.673   0.678   0.684   0.692
  0.703   0.709   0.727   0.730   0.756   0.775   0.780   0.790
  0.808   0.825   0.839   0.845   0.881   0.895   0.961   0.983
  0.992   1.004   1.024   1.045   1.057   1.085   1.133   1.153
  1.173   1.215   1.216   1.240   1.251   1.254   1.267   1.281
  1.292   1.299   1.319   1.323   1.325   1.332   1.348   1.350
  1.353   1.364   1.369   1.374   1.379   1.380   1.389   1.411
  1.422   1.426   1.446   1.472   1.485   1.490   1.514   1.518
  1.546   1.612   1.621   1.631   1.648   1.654   1.690   1.713
  1.743   1.781   1.795   1.809   1.839   1.855   1.884   1.894
  1.903   1.910   1.920   1.984   1.999   1.999   2.055   2.068
  2.076   2.255   2.363   2.378   2.387   2.440   2.458   2.518
  2.540   2.548   2.611   2.679   2.733   2.830   2.834   2.959
  3.065   3.082   3.097   3.226   3.232   3.328   3.332   3.391
  3.506   3.511   3.513   3.580   3.653   3.657   3.702   3.716
  3.730   3.803   3.828   3.845   3.881   3.977   4.138   4.166
  4.233   4.507   4.515   4.547   4.554   4.557   4.567   4.573
  4.580   4.580   4.622   4.625   4.637   4.640   4.663   4.669
  4.682   4.692   4.693   4.698   4.715   4.754   4.775   4.784
  4.803   4.810   4.829   4.838   4.840   4.919   4.948   5.113
  5.216   5.242   5.257   5.274   5.281   5.299   5.303   5.349
  5.361   5.388   5.410   5.443   5.468   5.503   5.517   5.642
  5.709   5.874   6.001   6.266   6.289   9.953  10.070  10.115
 10.251  20.690  20.696  20.712  20.738  20.742  20.772  20.778
 20.820  20.933  21.013  21.065  21.094  23.721  24.567  27.225
 27.227  27.256  27.271  27.274  27.278  27.282  27.286  27.300
 27.308  27.313  27.323  27.325  27.344  27.352  27.354  27.358
 27.411  27.429  27.467  27.482  27.581  28.261  28.265  28.344
 28.493  36.929  36.929  36.931  36.931  36.932  36.932  36.933
 36.935  36.940  36.941  36.941  36.943  36.944  36.944  36.944
 36.945  36.946  36.949  36.951  36.952  36.954  36.960  36.961
 36.962  36.965  36.966  36.970  36.978  40.905  40.955  40.996
 41.190  41.192  41.237  41.269  41.283  41.305  41.356 215.836
215.962 216.004 216.174
 
 Beta MOs
 -- Occupied --
*******-100.693-100.688-100.688  -9.997  -9.996  -9.214  -9.214
 -9.209  -9.209  -7.034  -7.034  -7.029  -7.029  -7.025  -7.025
 -7.024  -7.024  -7.020  -7.020  -7.019  -7.019  -0.882  -0.837
 -0.794  -0.773  -0.642  -0.495  -0.433  -0.423  -0.383  -0.351
 -0.316  -0.287  -0.283  -0.283  -0.274  -0.269  -0.237  -0.167
 -- Virtual --
  0.180   0.189   0.192   0.203   0.212   0.237   0.237   0.243
  0.250   0.257   0.262   0.264   0.289   0.290   0.293   0.294
  0.311   0.315   0.324   0.338   0.344   0.351   0.355   0.381
  0.392   0.404   0.404   0.414   0.439   0.448   0.461   0.491
  0.509   0.516   0.534   0.540   0.574   0.578   0.594   0.594
  0.600   0.603   0.636   0.646   0.662   0.677   0.684   0.693
  0.700   0.706   0.711   0.729   0.732   0.757   0.782   0.782
  0.790   0.810   0.836   0.844   0.847   0.885   0.898   0.962
  0.990   0.998   1.010   1.025   1.047   1.069   1.092   1.136
  1.157   1.182   1.219   1.221   1.241   1.254   1.258   1.269
  1.282   1.294   1.302   1.321   1.327   1.328   1.334   1.351
  1.354   1.356   1.367   1.372   1.379   1.382   1.384   1.392
  1.414   1.427   1.428   1.451   1.477   1.490   1.492   1.517
  1.519   1.549   1.614   1.626   1.634   1.649   1.660   1.693
  1.718   1.748   1.788   1.797   1.818   1.843   1.858   1.891
  1.903   1.906   1.913   1.923   1.987   2.004   2.005   2.061
  2.071   2.081   2.260   2.368   2.380   2.390   2.442   2.461
  2.521   2.548   2.552   2.616   2.683   2.737   2.837   2.838
  2.962   3.067   3.084   3.099   3.237   3.241   3.337   3.342
  3.399   3.516   3.517   3.520   3.587   3.671   3.674   3.707
  3.729   3.737   3.806   3.852   3.852   3.883   3.997   4.154
  4.184   4.243   4.519   4.520   4.550   4.557   4.560   4.571
  4.576   4.583   4.584   4.626   4.628   4.640   4.644   4.668
  4.674   4.688   4.696   4.698   4.703   4.720   4.759   4.780
  4.790   4.808   4.815   4.832   4.844   4.845   4.925   4.953
  5.121   5.217   5.243   5.258   5.274   5.282   5.300   5.308
  5.350   5.363   5.390   5.413   5.445   5.470   5.505   5.520
  5.645   5.713   5.878   6.005   6.270   6.293   9.955  10.072
 10.117  10.252  20.690  20.697  20.713  20.738  20.742  20.773
 20.779  20.821  20.935  21.015  21.067  21.096  23.724  24.571
 27.226  27.228  27.257  27.271  27.275  27.279  27.285  27.287
 27.300  27.309  27.314  27.325  27.326  27.345  27.353  27.356
 27.360  27.413  27.430  27.468  27.486  27.583  28.266  28.271
 28.354  28.494  36.929  36.930  36.931  36.932  36.932  36.933
 36.933  36.936  36.941  36.942  36.942  36.944  36.944  36.944
 36.945  36.945  36.946  36.950  36.951  36.953  36.954  36.961
 36.962  36.963  36.966  36.967  36.971  36.979  40.906  40.966
 41.003  41.192  41.199  41.245  41.277  41.283  41.309  41.363
215.836 215.963 216.004 216.175
 --------------------------------------------------------------
 
          Ground-State Mulliken Net Atomic Charges

     Atom                 Charge (a.u.)    Spin (a.u.)
  --------------------------------------------------------
      1 C                     0.261472       0.481916
      2 C                     0.261402       0.482092
      3 Cl                   -0.371761       0.004764
      4 Cl                   -0.389641       0.013277
      5 Cl                   -0.371766       0.004287
      6 Cl                   -0.389707       0.013664
  --------------------------------------------------------
  Sum of atomic charges =    -1.000000
  Sum of spin   charges =     1.000000

 -----------------------------------------------------------------
                    Cartesian Multipole Moments
 -----------------------------------------------------------------
    Charge (ESU x 10^10)
                -4.8032
    Dipole Moment (Debye)
         X       0.0000      Y       0.0000      Z      -3.2351
       Tot       3.2351
    Quadrupole Moments (Debye-Ang)
        XX     -82.6781     XY       0.0007     YY     -66.2839
        XZ       1.7336     YZ       0.0002     ZZ     -88.8691
    Octapole Moments (Debye-Ang^2)
       XXX       0.0007    XXY       0.0000    XYY       0.0002
       YYY       0.0000    XXZ     -55.6764    XYZ       0.0006
       YYZ     -44.6368    XZZ       2.3353    YZZ       0.0003
       ZZZ    -176.6045
    Hexadecapole Moments (Debye-Ang^3)
      XXXX    -895.6409   XXXY       0.0041   XXYY    -159.9462
      XYYY      -0.0026   YYYY     -88.3238   XXXZ      17.6017
      XXYZ       0.0021   XYYZ       2.3580   YYYZ       0.0013
      XXZZ    -420.6218   XYZZ       0.0062   YYZZ    -216.7087
      XZZZ      20.1989   YZZZ       0.0028   ZZZZ   -1359.1753
 -----------------------------------------------------------------
 Total job time:  1177.04s(wall), 1171.02s(cpu) 
 Tue Jun  4 17:02:42 2013

        *************************************************************
        *                                                           *
        *  Thank you very much for using Q-Chem.  Have a nice day.  *
        *                                                           *
        *************************************************************


0 sent ACK to 0 
now end server 0 ... 
 
**********************************************************************
Job 2 of 3 
**********************************************************************
 
Process 0 of 1 is on cl151.stfx.acenet.ca - thread support 1
initial socket setup ...start
initial socket setup ...done 
now start server 0 ... 

cmd = /usr/bin/ssh clhead /usr/local/qchem/bin/get_hostid 786076223 > /scratch/tmp/6029106.1.medium.q/qchem4502/lic.dat
                  Welcome to Q-Chem
     A Quantum Leap Into The Future Of Chemistry

 Y. Shao, L. Fusti-Molnar, Y. Jung, J. Kussmann, C. Ochsenfeld,
 S. T. Brown, A. T. B. Gilbert, L. V. Slipchenko,S. V. Levchenko,
 D. P. O'Neill, R. A. DiStasio Jr., R. C. Lochan, T. Wang,
 G. J. O. Beran, N. A. Besley, J. M. Herbert, C. Y. Lin,
 T. Van Voorhis, S. H. Chien, A. Sodt, R. P. Steele, 
 V. A. Rassolov, P. E. Maslen, P. P. Korambath, R. D. Adamson,
 B. Austin, J. Baker, E. F. C. Byrd, H. Dachsel, R. J. Doerksen,
 A. Dreuw, B. D. Dunietz, A. D. Dutoi, T. R. Furlani,
 S. R. Gwaltney, A. Heyden, S. Hirata, C.-P. Hsu, G. Kedziora,
 R. Z. Khaliullin, P. Klunzinger, A. M. Lee, M. S. Lee, W. Liang,
 I. Lotan, N. Nair, B. Peters, E. I. Proynov, P. A. Pieniazek, 
 Y. M. Rhee, J. Ritchie, E. Rosta, C. D. Sherrill, 
 A. C. Simmonett, J. E. Subotnik, H. L. Woodcock III,
 W. Zhang, A. T. Bell, A. K. Chakraborty, D. M. Chipman,
 F. J. Keil, A. Warshel, W. J. Hehre, H. F. Schaefer III,
 J. Kong, A. I. Krylov, P. M. W. Gill, M. Head-Gordon,
 Q-Chem, Version 3.1, Q-Chem, Inc., Pittsburgh, PA (2007).

 Additional authors for Version 3.1: 
 Z. Gan, Y. Zhao, N. E. Schultz, D. Truhlar, E. Epifanovsky and M. Oana.

 Additional authors for Version 3.2: 
 R. Baer, B. R. Brooks, D. Casanova, J.-D. Chai, C.-L. Cheng, 
 C. Cramer, D. Crittenden, A. Ghysels, G. Hawkins, E. G. Hohenstein, 
 C. Kelley, W. Kurlancheek, D. Liotard, E. Livshits, P. Manohar, 
 A. Marenich, D. Neuhauser, R. Olson, M. A. Rohrdanz, K. S. Thanthiriwatte, 
 A. J. W. Thom, V. Vanovschi, C. F. Williams, Q. Wu and Z.-Q. You. 


 Intel X86 Linux Version

 Q-chem begins on Tue Jun  4 17:02:45 2013  

 Parallel job on  1  processors
Processing $rem in /usr/local/qchem/config/preferences.

theFileMan(): MAXOPENFILES=974 MAX_SUB_FILE_NUM=16
Maximum size of a physical file is 2.0 GB, maximum size of a tmp-file is 32.0 GB


--------------------------------------------------------------
User input:
--------------------------------------------------------------

$molecule
0,1
C
C,1,cc
Cl,1,ccl,2,cccl
Cl,1,ccl,2,cccl,3,180.,0
Cl,2,ccl,1,cccl,3,180.,0
Cl,2,ccl,1,cccl,3,0.,0

 cc=1.34683514
 ccl=1.73153631
 cccl=122.46468603

6

C         -0.00000       -0.00000        0.00028
C         -0.00000       -0.00000        1.34655
Cl         1.50798        0.00000       -0.90989
Cl        -1.50798       -0.00000       -0.90989
Cl        -1.50798        0.00000        2.25672
Cl         1.50798       -0.00000        2.25672
$end

$comment
neutral
$end

$xc_functional
C PBE   1.00
X wPBE  1.00
$end


$rem
SYMMETRY_DECOMPOSITION	0
LRC_DFT                 true
exchange 		general
BASIS                   g3large
omega			330
mem_static              760
max_scf_cycles          200
scf_final_print         1
sym_ignore              true
$end

--------------------------------------------------------------
 Writing REM_CC_EA            6
 ----------------------------------------------------
       Standard Nuclear Orientation (Angstroms)
    I     Atom         X            Y            Z
 ----------------------------------------------------
    1      C       0.000000     0.000000     0.000000
    2      C       0.000000     0.000000     1.346835
    3      Cl      1.460936     0.000000    -0.929454
    4      Cl     -1.460936     0.000000    -0.929454
    5      Cl     -1.460936     0.000000     2.276289
    6      Cl      1.460936     0.000000     2.276289
 ----------------------------------------------------
 Nuclear Repulsion Energy =   489.2655918630 hartrees
 There are       40 alpha and       40 beta electrons
 Requested basis set is G3large
 There are 96 shells and 348 basis functions

Total QAlloc Memory Limit   2000 MB
Mega-Array Size       743 MB
MEM_STATIC part       760 MB

                       Distance Matrix (Angstroms)
             C (  1)   C (  2)   Cl(  3)   Cl(  4)   Cl(  5)
   C (  2)  1.346835
   Cl(  3)  1.731536  2.704778
   Cl(  4)  1.731536  2.704778  2.921872
   Cl(  5)  2.704778  1.731536  4.337525  3.205742
   Cl(  6)  2.704778  1.731536  3.205742  4.337525  2.921872
 
 A cutoff of  1.0D-08 yielded   3442 shell pairs
 There are  47196 function pairs ( 65555 Cartesian)
Evaluating contribution to one-electron hamiltonian from nuclear
 Smallest overlap matrix eigenvalue = 1.03E-05

 Q-Chem warning in module mkSTV.C, line 194:

 Overlap eigenvalue is smaller than square root of threshold

 Multipole matrices computed through 2nd order

  Scale SEOQF with 1.000000e-01/1.000000e-01/1.000000e-01

 Standard Electronic Orientation quadrupole field applied
 Nucleus-field energy     =    -0.0000000180 hartrees
 Guess from superposition of atomic densities
 Warning:  Energy on first SCF cycle will be non-variational
 Long-range K will be added via erf
 Coulomb attenuation parameter = 0.33 bohr**(-1)
 A restricted Kohn-Sham SCF calculation will be
 performed using Pulay DIIS extrapolation
 Exchange:  wPBE + LR-HF      Correlation:  PBE
 Using SG-1 standard quadrature grid
 SCF converges when DIIS error is below 1.0E-05
 Requested basis set is G3large
 There are 96 shells and 348 basis functions
 A cutoff of  1.0D-08 yielded   3442 shell pairs
 There are  47196 function pairs ( 65555 Cartesian)
 ---------------------------------------
  Cycle       Energy         DIIS Error
 ---------------------------------------
    1   -1917.5934353970      1.94E-02
    2   -1916.2786127219      2.23E-03
    3   -1916.2759351885      2.63E-03
    4   -1916.3633807814      2.59E-04
    5   -1916.3650682921      1.05E-04
    6   -1916.3653997557      2.80E-05
    7   -1916.3654337096      7.65E-06 Convergence criterion met
 ---------------------------------------
 One-Electron    Energy = -3618.5199632526
 Total Coulomb   Energy =  1336.0072543539
 Alpha Exchange  Energy =    -6.9840099314
 Beta  Exchange  Energy =    -6.9840099314
 DFT   Exchange  Energy =  -106.0671895209
 DFT Correlation Energy =    -3.0831072724
 Nuclear Repu.   Energy =   489.2655918450
 Nuclear Attr.   Energy = -5532.0283940231
 Kinetic         Energy =  1913.5084307705
 SCF time:  CPU 431.51 s  wall 433.10 s
 Final Alpha MO Eigenvalues
            1           2           3           4           5           6
    1-100.8793700-100.8793697-100.8792037-100.8792034 -10.2165453 -10.2159907
            7           8           9          10          11          12
    1  -9.4001466  -9.4001357  -9.4000223  -9.4000157  -7.2217129  -7.2217112
           13          14          15          16          17          18
    1  -7.2215955  -7.2215936  -7.2104685  -7.2104672  -7.2103499  -7.2103488
           19          20          21          22          23          24
    1  -7.2096293  -7.2096288  -7.2095101  -7.2095097  -1.0797152  -1.0251781
           25          26          27          28          29          30
    1  -0.9840731  -0.9597151  -0.8515372  -0.6820072  -0.6240465  -0.6216348
           31          32          33          34          35          36
    1  -0.5734763  -0.5423187  -0.4969825  -0.4731406  -0.4642122  -0.4620761
           37          38          39          40          41          42
    1  -0.4548376  -0.4477454  -0.4174996  -0.3575027   0.0261543   0.0445219
           43          44          45
    1   0.0491287   0.0526349   0.0749719
 Analysis of SCF Wavefunction
 
 --------------------------------------------------------------
                    Orbital Energies (a.u.)
 --------------------------------------------------------------
 
 Alpha MOs
 -- Occupied --
*******-100.879-100.879-100.879 -10.217 -10.216  -9.400  -9.400
 -9.400  -9.400  -7.222  -7.222  -7.222  -7.222  -7.210  -7.210
 -7.210  -7.210  -7.210  -7.210  -7.210  -7.210  -1.080  -1.025
 -0.984  -0.960  -0.852  -0.682  -0.624  -0.622  -0.573  -0.542
 -0.497  -0.473  -0.464  -0.462  -0.455  -0.448  -0.417  -0.358
 -- Virtual --
  0.026   0.045   0.049   0.053   0.075   0.090   0.091   0.094
  0.109   0.123   0.137   0.137   0.146   0.163   0.164   0.169
  0.180   0.181   0.196   0.198   0.205   0.209   0.227   0.244
  0.250   0.265   0.270   0.272   0.272   0.287   0.299   0.324
  0.340   0.353   0.362   0.375   0.407   0.408   0.430   0.430
  0.433   0.434   0.471   0.479   0.508   0.509   0.519   0.533
  0.536   0.551   0.554   0.572   0.572   0.593   0.622   0.630
  0.634   0.651   0.662   0.675   0.677   0.706   0.718   0.798
  0.807   0.820   0.834   0.858   0.866   0.882   0.913   0.967
  0.981   0.999   1.044   1.045   1.067   1.076   1.083   1.093
  1.110   1.121   1.126   1.148   1.153   1.155   1.160   1.178
  1.180   1.183   1.191   1.199   1.204   1.208   1.209   1.220
  1.241   1.249   1.252   1.270   1.300   1.310   1.315   1.344
  1.346   1.371   1.439   1.454   1.458   1.475   1.486   1.520
  1.539   1.577   1.608   1.616   1.634   1.665   1.679   1.707
  1.715   1.731   1.740   1.749   1.799   1.822   1.827   1.881
  1.896   1.899   2.073   2.187   2.203   2.212   2.266   2.284
  2.342   2.358   2.372   2.431   2.502   2.549   2.654   2.657
  2.761   2.868   2.883   2.891   3.033   3.040   3.131   3.137
  3.199   3.307   3.314   3.324   3.385   3.457   3.465   3.510
  3.523   3.538   3.610   3.633   3.648   3.684   3.782   3.944
  3.971   4.043   4.316   4.324   4.367   4.373   4.375   4.385
  4.393   4.400   4.400   4.435   4.445   4.453   4.458   4.482
  4.487   4.499   4.510   4.511   4.516   4.530   4.571   4.592
  4.601   4.619   4.628   4.631   4.654   4.657   4.731   4.760
  4.924   5.033   5.058   5.074   5.090   5.097   5.108   5.116
  5.163   5.176   5.205   5.223   5.257   5.282   5.317   5.331
  5.453   5.520   5.687   5.813   6.079   6.100   9.769   9.886
  9.930  10.066  20.503  20.510  20.525  20.551  20.555  20.587
 20.591  20.634  20.745  20.825  20.877  20.906  23.507  24.352
 27.038  27.041  27.056  27.084  27.087  27.090  27.091  27.100
 27.113  27.120  27.127  27.134  27.137  27.156  27.163  27.167
 27.170  27.209  27.239  27.275  27.290  27.366  28.050  28.055
 28.136  28.281  36.741  36.743  36.743  36.744  36.745  36.745
 36.746  36.749  36.754  36.754  36.754  36.755  36.756  36.756
 36.757  36.757  36.758  36.760  36.762  36.764  36.766  36.773
 36.773  36.773  36.777  36.777  36.782  36.789  40.688  40.741
 40.781  40.975  40.976  41.023  41.054  41.066  41.089  41.140
215.647 215.774 215.815 215.986
 --------------------------------------------------------------
 
          Ground-State Mulliken Net Atomic Charges

     Atom                 Charge (a.u.)
  ----------------------------------------
      1 C                     0.634345
      2 C                     0.634941
      3 Cl                   -0.316838
      4 Cl                   -0.317716
      5 Cl                   -0.316924
      6 Cl                   -0.317807
  ----------------------------------------
  Sum of atomic charges =     0.000000

 -----------------------------------------------------------------
                    Cartesian Multipole Moments
 -----------------------------------------------------------------
    Charge (ESU x 10^10)
                 0.0000
    Dipole Moment (Debye)
         X       0.0000      Y       0.0000      Z       0.0000
       Tot       0.0000
    Quadrupole Moments (Debye-Ang)
        XX     -58.2902     XY       0.0023     YY     -61.3242
        XZ      -0.0018     YZ      -0.0008     ZZ     -60.2421
    Octapole Moments (Debye-Ang^2)
       XXX       0.0000    XXY       0.0000    XYY       0.0000
       YYY       0.0000    XXZ     -39.2536    XYZ       0.0016
       YYZ     -41.2968    XZZ      -0.0024    YZZ      -0.0011
       ZZZ    -121.7043
    Hexadecapole Moments (Debye-Ang^3)
      XXXX    -658.1898   XXXY       0.0066   XXYY    -131.0345
      XYYY       0.0035   YYYY     -68.6671   XXXZ      -0.0065
      XXYZ      -0.0070   XYYZ       0.0003   YYYZ      -0.0014
      XXZZ    -252.7136   XYZZ       0.0179   YYZZ    -185.8361
      XZZZ      -0.0054   YZZZ      -0.0082   ZZZZ   -1018.6324
 -----------------------------------------------------------------
 Total job time:  433.92s(wall), 432.19s(cpu) 
 Tue Jun  4 17:09:59 2013

        *************************************************************
        *                                                           *
        *  Thank you very much for using Q-Chem.  Have a nice day.  *
        *                                                           *
        *************************************************************


0 sent ACK to 0 
now end server 0 ... 
 
**********************************************************************
Job 3 of 3 
**********************************************************************
 
Process 0 of 1 is on cl151.stfx.acenet.ca - thread support 1
initial socket setup ...start
initial socket setup ...done 
now start server 0 ... 

cmd = /usr/bin/ssh clhead /usr/local/qchem/bin/get_hostid 1030564352 > /scratch/tmp/6029106.1.medium.q/qchem4502/lic.dat
                  Welcome to Q-Chem
     A Quantum Leap Into The Future Of Chemistry

 Y. Shao, L. Fusti-Molnar, Y. Jung, J. Kussmann, C. Ochsenfeld,
 S. T. Brown, A. T. B. Gilbert, L. V. Slipchenko,S. V. Levchenko,
 D. P. O'Neill, R. A. DiStasio Jr., R. C. Lochan, T. Wang,
 G. J. O. Beran, N. A. Besley, J. M. Herbert, C. Y. Lin,
 T. Van Voorhis, S. H. Chien, A. Sodt, R. P. Steele, 
 V. A. Rassolov, P. E. Maslen, P. P. Korambath, R. D. Adamson,
 B. Austin, J. Baker, E. F. C. Byrd, H. Dachsel, R. J. Doerksen,
 A. Dreuw, B. D. Dunietz, A. D. Dutoi, T. R. Furlani,
 S. R. Gwaltney, A. Heyden, S. Hirata, C.-P. Hsu, G. Kedziora,
 R. Z. Khaliullin, P. Klunzinger, A. M. Lee, M. S. Lee, W. Liang,
 I. Lotan, N. Nair, B. Peters, E. I. Proynov, P. A. Pieniazek, 
 Y. M. Rhee, J. Ritchie, E. Rosta, C. D. Sherrill, 
 A. C. Simmonett, J. E. Subotnik, H. L. Woodcock III,
 W. Zhang, A. T. Bell, A. K. Chakraborty, D. M. Chipman,
 F. J. Keil, A. Warshel, W. J. Hehre, H. F. Schaefer III,
 J. Kong, A. I. Krylov, P. M. W. Gill, M. Head-Gordon,
 Q-Chem, Version 3.1, Q-Chem, Inc., Pittsburgh, PA (2007).

 Additional authors for Version 3.1: 
 Z. Gan, Y. Zhao, N. E. Schultz, D. Truhlar, E. Epifanovsky and M. Oana.

 Additional authors for Version 3.2: 
 R. Baer, B. R. Brooks, D. Casanova, J.-D. Chai, C.-L. Cheng, 
 C. Cramer, D. Crittenden, A. Ghysels, G. Hawkins, E. G. Hohenstein, 
 C. Kelley, W. Kurlancheek, D. Liotard, E. Livshits, P. Manohar, 
 A. Marenich, D. Neuhauser, R. Olson, M. A. Rohrdanz, K. S. Thanthiriwatte, 
 A. J. W. Thom, V. Vanovschi, C. F. Williams, Q. Wu and Z.-Q. You. 


 Intel X86 Linux Version

 Q-chem begins on Tue Jun  4 17:10:02 2013  

 Parallel job on  1  processors
Processing $rem in /usr/local/qchem/config/preferences.

theFileMan(): MAXOPENFILES=974 MAX_SUB_FILE_NUM=16
Maximum size of a physical file is 2.0 GB, maximum size of a tmp-file is 32.0 GB


--------------------------------------------------------------
User input:
--------------------------------------------------------------

$molecule
1,2
C
C,1,cc
Cl,1,ccl,2,cccl
Cl,1,ccl,2,cccl,3,180.,0
Cl,2,ccl,1,cccl,3,180.,0
Cl,2,ccl,1,cccl,3,0.,0

 cc=1.34683514
 ccl=1.73153631
 cccl=122.46468603

6

C         -0.00000       -0.00000        0.00028
C         -0.00000       -0.00000        1.34655
Cl         1.50798        0.00000       -0.90989
Cl        -1.50798       -0.00000       -0.90989
Cl        -1.50798        0.00000        2.25672
Cl         1.50798       -0.00000        2.25672
$end

$comment
positive
$end

$xc_functional
C PBE   1.00
X wPBE  1.00
$end

$rem
SYMMETRY_DECOMPOSITION	0
LRC_DFT                 true
exchange 		general
BASIS                   g3large
omega			330
mem_static              760
max_scf_cycles          200
scf_final_print         1
sym_ignore              true
$end

--------------------------------------------------------------
 Writing REM_CC_EA            6
 ----------------------------------------------------
       Standard Nuclear Orientation (Angstroms)
    I     Atom         X            Y            Z
 ----------------------------------------------------
    1      C       0.000000     0.000000     0.000000
    2      C       0.000000     0.000000     1.346835
    3      Cl      1.460936     0.000000    -0.929454
    4      Cl     -1.460936     0.000000    -0.929454
    5      Cl     -1.460936     0.000000     2.276289
    6      Cl      1.460936     0.000000     2.276289
 ----------------------------------------------------
 Nuclear Repulsion Energy =   489.2655918630 hartrees
 There are       40 alpha and       39 beta electrons
 Requested basis set is G3large
 There are 96 shells and 348 basis functions

Total QAlloc Memory Limit   2000 MB
Mega-Array Size       743 MB
MEM_STATIC part       760 MB

                       Distance Matrix (Angstroms)
             C (  1)   C (  2)   Cl(  3)   Cl(  4)   Cl(  5)
   C (  2)  1.346835
   Cl(  3)  1.731536  2.704778
   Cl(  4)  1.731536  2.704778  2.921872
   Cl(  5)  2.704778  1.731536  4.337525  3.205742
   Cl(  6)  2.704778  1.731536  3.205742  4.337525  2.921872
 
 A cutoff of  1.0D-08 yielded   3442 shell pairs
 There are  47196 function pairs ( 65555 Cartesian)
Evaluating contribution to one-electron hamiltonian from nuclear
 Smallest overlap matrix eigenvalue = 1.03E-05

 Q-Chem warning in module mkSTV.C, line 194:

 Overlap eigenvalue is smaller than square root of threshold

 Multipole matrices computed through 2nd order

  Scale SEOQF with 1.000000e-01/1.000000e-01/1.000000e-01

 Standard Electronic Orientation quadrupole field applied
 Nucleus-field energy     =    -0.0000000180 hartrees
 Guess from superposition of atomic densities
 Warning:  Energy on first SCF cycle will be non-variational
 Long-range K will be added via erf
 Coulomb attenuation parameter = 0.33 bohr**(-1)
 An unrestricted Kohn-Sham SCF calculation will be
 performed using Pulay DIIS extrapolation
 Exchange:  wPBE + LR-HF      Correlation:  PBE
 Using SG-1 standard quadrature grid
 SCF converges when DIIS error is below 1.0E-05
 Requested basis set is G3large
 There are 96 shells and 348 basis functions
 A cutoff of  1.0D-08 yielded   3442 shell pairs
 There are  47196 function pairs ( 65555 Cartesian)
 Warning!  Inaccurate integrated density:
   Number of electrons =    79
   Numerical integral  =    80.000221088661
   Relative error      =     1.2661026439 %
 ---------------------------------------
  Cycle       Energy         DIIS Error
 ---------------------------------------
    1   -1917.5934353970      1.94E-02
    2   -1915.8069456096      3.31E-03
    3   -1915.6595421929      5.12E-03
    4   -1916.0104042393      3.93E-04
    5   -1916.0134244450      1.57E-04
    6   -1916.0142253624      4.39E-05
    7   -1916.0144394079      1.55E-05
    8   -1916.0145277412      7.47E-06 Convergence criterion met
 ---------------------------------------
 One-Electron    Energy = -3601.4622098913
 Total Coulomb   Energy =  1318.9349660129
 Alpha Exchange  Energy =    -6.9939122286
 Beta  Exchange  Energy =    -6.8117993924
 DFT   Exchange  Energy =  -105.9025965469
 DFT Correlation Energy =    -3.0445675398
 Nuclear Repu.   Energy =   489.2655918450
 Nuclear Attr.   Energy = -5514.5319857344
 Kinetic         Energy =  1913.0697758430
 <S^2> = 0.7548
 SCF time:  CPU 588.61 s  wall 590.31 s
 Final Alpha MO Eigenvalues
            1           2           3           4           5           6
    1-101.0953125-101.0953110-101.0949965-101.0949963 -10.4669331 -10.4663681
            7           8           9          10          11          12
    1  -9.6141437  -9.6141367  -9.6139002  -9.6138981  -7.4358109  -7.4358089
           13          14          15          16          17          18
    1  -7.4355672  -7.4355653  -7.4268070  -7.4268056  -7.4265565  -7.4265554
           19          20          21          22          23          24
    1  -7.4223517  -7.4223510  -7.4221105  -7.4221101  -1.3050192  -1.2368384
           25          26          27          28          29          30
    1  -1.1945674  -1.1686155  -1.0874408  -0.8939319  -0.8384208  -0.8367283
           31          32          33          34          35          36
    1  -0.8057574  -0.7506044  -0.7088002  -0.6776769  -0.6692650  -0.6648741
           37          38          39          40          41          42
    1  -0.6550280  -0.6547684  -0.6182044  -0.5858531  -0.2061728  -0.1600966
           43          44          45
    1  -0.1423749  -0.1367088  -0.0839147
 Final Beta MO Eigenvalues
            1           2           3           4           5           6
    1-101.0944636-101.0944619-101.0941507-101.0941504 -10.4624048 -10.4619121
            7           8           9          10          11          12
    1  -9.6134029  -9.6133963  -9.6131629  -9.6131579  -7.4355087  -7.4355068
           13          14          15          16          17          18
    1  -7.4352681  -7.4352662  -7.4243367  -7.4243354  -7.4240945  -7.4240931
           19          20          21          22          23          24
    1  -7.4219303  -7.4219295  -7.4216913  -7.4216910  -1.2954371  -1.2324858
           25          26          27          28          29          30
    1  -1.1900777  -1.1638161  -1.0695883  -0.8860515  -0.8342635  -0.8316018
           31          32          33          34          35          36
    1  -0.7689032  -0.7480681  -0.6885018  -0.6751067  -0.6628982  -0.6529715
           37          38          39          40          41          42
    1  -0.6417123  -0.6329226  -0.6160755  -0.3436433  -0.1628746  -0.1552154
           43          44
    1  -0.1344880  -0.1306865
 Analysis of SCF Wavefunction
 
 --------------------------------------------------------------
                    Orbital Energies (a.u.)
 --------------------------------------------------------------
 
 Alpha MOs
 -- Occupied --
*******-101.095-101.095-101.095 -10.467 -10.466  -9.614  -9.614
 -9.614  -9.614  -7.436  -7.436  -7.436  -7.436  -7.427  -7.427
 -7.427  -7.427  -7.422  -7.422  -7.422  -7.422  -1.305  -1.237
 -1.195  -1.169  -1.087  -0.894  -0.838  -0.837  -0.806  -0.751
 -0.709  -0.678  -0.669  -0.665  -0.655  -0.655  -0.618  -0.586
 -- Virtual --
 -0.206  -0.160  -0.142  -0.137  -0.084  -0.044  -0.041  -0.037
 -0.035  -0.018   0.001   0.001   0.002   0.019   0.028   0.030
  0.039   0.040   0.040   0.043   0.054   0.074   0.079   0.083
  0.088   0.091   0.094   0.112   0.115   0.134   0.164   0.165
  0.167   0.172   0.188   0.193   0.219   0.220   0.235   0.243
  0.252   0.259   0.289   0.302   0.317   0.335   0.339   0.356
  0.360   0.379   0.393   0.399   0.401   0.411   0.440   0.448
  0.460   0.472   0.488   0.501   0.501   0.501   0.521   0.604
  0.620   0.622   0.637   0.658   0.662   0.671   0.715   0.779
  0.783   0.804   0.848   0.853   0.871   0.877   0.891   0.892
  0.916   0.925   0.934   0.952   0.956   0.966   0.967   0.986
  0.988   0.989   0.997   1.007   1.011   1.015   1.018   1.028
  1.049   1.052   1.056   1.070   1.102   1.106   1.123   1.150
  1.156   1.172   1.243   1.262   1.265   1.277   1.296   1.332
  1.336   1.390   1.406   1.408   1.434   1.466   1.470   1.509
  1.512   1.539   1.551   1.552   1.591   1.623   1.626   1.687
  1.700   1.701   1.867   1.988   2.000   2.007   2.063   2.087
  2.138   2.152   2.173   2.228   2.302   2.339   2.454   2.457
  2.515   2.621   2.640   2.640   2.794   2.811   2.899   2.903
  2.966   3.080   3.085   3.100   3.151   3.208   3.245   3.278
  3.304   3.309   3.375   3.395   3.420   3.442   3.537   3.718
  3.733   3.821   4.097   4.104   4.155   4.162   4.162   4.174
  4.182   4.188   4.189   4.220   4.235   4.236   4.249   4.273
  4.276   4.289   4.299   4.302   4.305   4.312   4.364   4.378
  4.388   4.396   4.410   4.422   4.448   4.451   4.516   4.547
  4.710   4.822   4.847   4.864   4.879   4.882   4.887   4.906
  4.949   4.963   4.995   5.009   5.043   5.067   5.107   5.123
  5.240   5.308   5.473   5.599   5.866   5.886   9.558   9.675
  9.720   9.856  20.288  20.295  20.309  20.339  20.340  20.375
 20.379  20.422  20.532  20.611  20.664  20.693  23.259  24.102
 26.818  26.824  26.826  26.869  26.869  26.872  26.876  26.885
 26.898  26.907  26.912  26.920  26.922  26.943  26.946  26.951
 26.957  26.976  27.023  27.056  27.070  27.113  27.803  27.816
 27.896  28.040  36.528  36.528  36.530  36.531  36.531  36.531
 36.531  36.534  36.540  36.540  36.541  36.541  36.542  36.542
 36.543  36.543  36.545  36.545  36.549  36.550  36.552  36.559
 36.560  36.560  36.563  36.564  36.568  36.575  40.434  40.492
 40.526  40.721  40.722  40.769  40.807  40.812  40.840  40.893
215.432 215.558 215.600 215.770
 
 Beta MOs
 -- Occupied --
*******-101.094-101.094-101.094 -10.462 -10.462  -9.613  -9.613
 -9.613  -9.613  -7.436  -7.436  -7.435  -7.435  -7.424  -7.424
 -7.424  -7.424  -7.422  -7.422  -7.422  -7.422  -1.295  -1.232
 -1.190  -1.164  -1.070  -0.886  -0.834  -0.832  -0.769  -0.748
 -0.689  -0.675  -0.663  -0.653  -0.642  -0.633  -0.616
 -- Virtual --
 -0.344  -0.163  -0.155  -0.134  -0.131  -0.083  -0.044  -0.041
 -0.035  -0.034  -0.017   0.002   0.002   0.003   0.023   0.029
  0.031   0.041   0.041   0.043   0.044   0.055   0.077   0.079
  0.088   0.091   0.095   0.098   0.114   0.116   0.134   0.165
  0.166   0.171   0.173   0.191   0.198   0.224   0.226   0.249
  0.249   0.255   0.263   0.293   0.302   0.329   0.342   0.344
  0.358   0.365   0.380   0.394   0.403   0.404   0.416   0.444
  0.451   0.464   0.487   0.490   0.502   0.502   0.514   0.523
  0.612   0.621   0.626   0.641   0.667   0.669   0.684   0.719
  0.782   0.784   0.805   0.854   0.857   0.874   0.881   0.893
  0.898   0.920   0.931   0.936   0.957   0.960   0.969   0.969
  0.990   0.994   0.994   1.000   1.011   1.017   1.020   1.021
  1.033   1.053   1.056   1.058   1.074   1.108   1.111   1.126
  1.155   1.157   1.177   1.247   1.265   1.268   1.280   1.300
  1.333   1.345   1.391   1.415   1.415   1.438   1.473   1.480
  1.515   1.516   1.541   1.555   1.557   1.594   1.626   1.635
  1.689   1.703   1.704   1.874   1.989   2.008   2.015   2.071
  2.089   2.147   2.153   2.175   2.229   2.305   2.342   2.455
  2.458   2.541   2.649   2.660   2.661   2.813   2.822   2.911
  2.921   2.981   3.082   3.094   3.111   3.168   3.233   3.248
  3.294   3.307   3.321   3.392   3.410   3.431   3.465   3.559
  3.723   3.751   3.826   4.099   4.108   4.164   4.169   4.170
  4.181   4.189   4.196   4.197   4.226   4.242   4.246   4.254
  4.278   4.282   4.294   4.306   4.307   4.312   4.321   4.366
  4.386   4.396   4.412   4.414   4.423   4.448   4.452   4.519
  4.550   4.712   4.825   4.850   4.866   4.882   4.886   4.889
  4.908   4.952   4.965   4.997   5.011   5.046   5.070   5.108
  5.123   5.241   5.309   5.475   5.601   5.868   5.888   9.560
  9.677   9.722   9.858  20.292  20.299  20.313  20.340  20.343
 20.375  20.380  20.423  20.532  20.612  20.664  20.694  23.264
 24.107  26.826  26.827  26.828  26.870  26.871  26.875  26.878
 26.887  26.900  26.907  26.914  26.921  26.924  26.943  26.948
 26.953  26.957  26.982  27.024  27.057  27.071  27.126  27.806
 27.818  27.898  28.042  36.528  36.529  36.530  36.531  36.532
 36.532  36.532  36.535  36.541  36.541  36.541  36.541  36.542
 36.542  36.543  36.544  36.545  36.546  36.550  36.550  36.552
 36.559  36.560  36.560  36.563  36.564  36.568  36.575  40.444
 40.496  40.538  40.730  40.732  40.779  40.808  40.821  40.843
 40.895 215.433 215.559 215.601 215.771
 --------------------------------------------------------------
 
          Ground-State Mulliken Net Atomic Charges

     Atom                 Charge (a.u.)    Spin (a.u.)
  --------------------------------------------------------
      1 C                     0.702702       0.258029
      2 C                     0.702871       0.258027
      3 Cl                   -0.101384       0.121112
      4 Cl                   -0.101350       0.120872
      5 Cl                   -0.101444       0.121094
      6 Cl                   -0.101394       0.120867
  --------------------------------------------------------
  Sum of atomic charges =     1.000000
  Sum of spin   charges =     1.000000

 -----------------------------------------------------------------
                    Cartesian Multipole Moments
 -----------------------------------------------------------------
    Charge (ESU x 10^10)
                 4.8032
    Dipole Moment (Debye)
         X       0.0000      Y       0.0000      Z       3.2346
       Tot       3.2346
    Quadrupole Moments (Debye-Ang)
        XX     -43.4342     XY      -0.0091     YY     -56.5567
        XZ       0.0014     YZ      -0.0037     ZZ     -40.9936
    Octapole Moments (Debye-Ang^2)
       XXX       0.0000    XXY       0.0000    XYY       0.0000
       YYY       0.0000    XXZ     -29.2494    XYZ      -0.0061
       YYZ     -38.0863    XZZ       0.0018    YZZ      -0.0049
       ZZZ     -85.7512
    Hexadecapole Moments (Debye-Ang^3)
      XXXX    -575.5700   XXXY      -0.0767   XXYY    -117.2558
      XYYY      -0.0091   YYYY     -58.3323   XXXZ       0.0017
      XXYZ      -0.0017   XYYZ      -0.0035   YYYZ      -0.0035
      XXZZ    -189.4024   XYZZ       0.0064   YYZZ    -167.9224
      XZZZ       0.0013   YZZZ      -0.0391   ZZZZ    -863.6863
 -----------------------------------------------------------------
 Total job time:  591.01s(wall), 589.30s(cpu) 
 Tue Jun  4 17:19:53 2013

        *************************************************************
        *                                                           *
        *  Thank you very much for using Q-Chem.  Have a nice day.  *
        *                                                           *
        *************************************************************


0 sent ACK to 0 
now end server 0 ... 
