Process 0 of 1 is on cl071.stfx.acenet.ca - thread support 1
initial socket setup ...start
initial socket setup ...done 
now start server 0 ... 

cmd = /usr/bin/ssh clhead /usr/local/qchem/bin/get_hostid 875766888 > /scratch/tmp/6027765.1.short.q/qchem9828/lic.dat
                  Welcome to Q-Chem
     A Quantum Leap Into The Future Of Chemistry

 Y. Shao, L. Fusti-Molnar, Y. Jung, J. Kussmann, C. Ochsenfeld,
 S. T. Brown, A. T. B. Gilbert, L. V. Slipchenko,S. V. Levchenko,
 D. P. O'Neill, R. A. DiStasio Jr., R. C. Lochan, T. Wang,
 G. J. O. Beran, N. A. Besley, J. M. Herbert, C. Y. Lin,
 T. Van Voorhis, S. H. Chien, A. Sodt, R. P. Steele, 
 V. A. Rassolov, P. E. Maslen, P. P. Korambath, R. D. Adamson,
 B. Austin, J. Baker, E. F. C. Byrd, H. Dachsel, R. J. Doerksen,
 A. Dreuw, B. D. Dunietz, A. D. Dutoi, T. R. Furlani,
 S. R. Gwaltney, A. Heyden, S. Hirata, C.-P. Hsu, G. Kedziora,
 R. Z. Khaliullin, P. Klunzinger, A. M. Lee, M. S. Lee, W. Liang,
 I. Lotan, N. Nair, B. Peters, E. I. Proynov, P. A. Pieniazek, 
 Y. M. Rhee, J. Ritchie, E. Rosta, C. D. Sherrill, 
 A. C. Simmonett, J. E. Subotnik, H. L. Woodcock III,
 W. Zhang, A. T. Bell, A. K. Chakraborty, D. M. Chipman,
 F. J. Keil, A. Warshel, W. J. Hehre, H. F. Schaefer III,
 J. Kong, A. I. Krylov, P. M. W. Gill, M. Head-Gordon,
 Q-Chem, Version 3.1, Q-Chem, Inc., Pittsburgh, PA (2007).

 Additional authors for Version 3.1: 
 Z. Gan, Y. Zhao, N. E. Schultz, D. Truhlar, E. Epifanovsky and M. Oana.

 Additional authors for Version 3.2: 
 R. Baer, B. R. Brooks, D. Casanova, J.-D. Chai, C.-L. Cheng, 
 C. Cramer, D. Crittenden, A. Ghysels, G. Hawkins, E. G. Hohenstein, 
 C. Kelley, W. Kurlancheek, D. Liotard, E. Livshits, P. Manohar, 
 A. Marenich, D. Neuhauser, R. Olson, M. A. Rohrdanz, K. S. Thanthiriwatte, 
 A. J. W. Thom, V. Vanovschi, C. F. Williams, Q. Wu and Z.-Q. You. 


 Intel X86 Linux Version

 Q-chem begins on Mon Jun  3 17:04:20 2013  

 Parallel job on  1  processors
Processing $rem in /usr/local/qchem/config/preferences.

theFileMan(): MAXOPENFILES=974 MAX_SUB_FILE_NUM=16
Maximum size of a physical file is 2.0 GB, maximum size of a tmp-file is 32.0 GB


--------------------------------------------------------------
User input:
--------------------------------------------------------------

$molecule
-1,1
c1
c2 c1 rc2
x1 c2 1.0 c1 90.0
h1 c2 rh1 x1 90.0 c1 th1

 rc2=1.22704003
 rh1=1.07018202
 th1=-162.45731362

$end

$comment
negative
$end

$xc_functional
C PBE   1.00
X wPBE  1.00
$end

$rem
SYMMETRY_DECOMPOSITION	0
exchange 		general
LRC_DFT                 true
BASIS                   g3large
omega			400
mem_static              760
max_scf_cycles          200
scf_final_print         1
sym_ignore              true
$end

--------------------------------------------------------------
 Writing REM_CC_EA            3
 ----------------------------------------------------
       Standard Nuclear Orientation (Angstroms)
    I     Atom         X            Y            Z
 ----------------------------------------------------
    1      C       0.000000     0.000000     0.000000
    2      C       0.000000     0.000000     1.227040
    3      H       0.000000     0.322570     2.247451
 ----------------------------------------------------
 Nuclear Repulsion Energy =    19.8907290256 hartrees
 There are        7 alpha and        7 beta electrons
 Requested basis set is G3large
 There are 26 shells and 94 basis functions

Total QAlloc Memory Limit   2000 MB
Mega-Array Size       743 MB
MEM_STATIC part       760 MB

                       Distance Matrix (Angstroms)
             C (  1)   C (  2)
   C (  2)  1.227040
   H (  3)  2.270482  1.070182
 
 A cutoff of  1.0D-08 yielded    345 shell pairs
 There are   4539 function pairs (  5803 Cartesian)
Evaluating contribution to one-electron hamiltonian from nuclear
 Smallest overlap matrix eigenvalue = 7.31E-05

 Q-Chem warning in module mkSTV.C, line 194:

 Overlap eigenvalue is smaller than square root of threshold

 Multipole matrices computed through 2nd order

  Scale SEOQF with 1.000000e-01/1.000000e-01/1.000000e-01

 Standard Electronic Orientation quadrupole field applied
 Nucleus-field energy     =    -0.0000000015 hartrees
 Guess from superposition of atomic densities
 Warning:  Energy on first SCF cycle will be non-variational
 Long-range K will be added via erf
 Coulomb attenuation parameter = 0.4 bohr**(-1)
 A restricted Kohn-Sham SCF calculation will be
 performed using Pulay DIIS extrapolation
 Exchange:  wPBE + LR-HF      Correlation:  PBE
 Using SG-1 standard quadrature grid
 SCF converges when DIIS error is below 1.0E-05
 Requested basis set is G3large
 There are 26 shells and 94 basis functions
 A cutoff of  1.0D-08 yielded    345 shell pairs
 There are   4539 function pairs (  5803 Cartesian)
 Warning!  Inaccurate integrated density:
   Number of electrons =    14
   Numerical integral  =    12.999993748460
   Relative error      =    -7.1429017967 %
 ---------------------------------------
  Cycle       Energy         DIIS Error
 ---------------------------------------
    1     -76.7753616815      3.91E-02
    2     -76.5605584512      8.50E-03
    3     -76.6263722341      5.83E-03
    4     -76.6639022661      1.10E-03
    5     -76.6651092411      4.88E-04
    6     -76.6654020569      4.99E-05
    7     -76.6654005390      1.45E-05
    8     -76.6653977686      3.47E-06 Convergence criterion met
 ---------------------------------------
 One-Electron    Energy =  -145.4341498331
 Total Coulomb   Energy =    60.1107948996
 Alpha Exchange  Energy =    -1.3526645440
 Beta  Exchange  Energy =    -1.3526645440
 DFT   Exchange  Energy =    -8.1046096907
 DFT Correlation Energy =    -0.4228330805
 Nuclear Repu.   Energy =    19.8907290241
 Nuclear Attr.   Energy =  -221.8429696927
 Kinetic         Energy =    76.4088198596
 SCF time:  CPU 11.91 s  wall 12.35 s
 Final Alpha MO Eigenvalues
            1           2           3           4           5           6
    1  -9.8297987  -9.8262119  -0.6169330  -0.4129869  -0.1450821  -0.1398860
            7           8           9          10          11          12
    1  -0.1336257   0.1647135   0.2539662   0.2719312   0.2745899   0.2908856
 Analysis of SCF Wavefunction
 
 --------------------------------------------------------------
                    Orbital Energies (a.u.)
 --------------------------------------------------------------
 
 Alpha MOs
 -- Occupied --
 -9.830  -9.826  -0.617  -0.413  -0.145  -0.140  -0.134
 -- Virtual --
  0.165   0.254   0.272   0.275   0.291   0.292   0.318   0.339
  0.397   0.418   0.435   0.486   0.675   0.780   0.848   0.854
  0.874   0.931   0.942   0.943   0.955   0.984   1.035   1.072
  1.202   1.213   1.247   1.250   1.427   1.430   1.709   1.725
  1.763   1.823   2.081   2.823   2.951   2.987   2.997   3.026
  3.050   3.050   3.066   3.147   3.168   3.268   3.307   3.433
  3.434   3.472   3.490   3.583   3.651   3.658   3.705   3.707
  3.750   3.896   3.942   4.119   4.128   4.189   4.530   4.682
  4.931   5.517   5.572   5.766   6.912  23.698  25.304  27.515
 27.552  27.753  27.767  28.097  29.135  41.129  41.153  41.158
 41.392  41.395  41.424  41.431  41.635  41.637  41.727
 --------------------------------------------------------------
 
          Ground-State Mulliken Net Atomic Charges

     Atom                 Charge (a.u.)
  ----------------------------------------
      1 C                    -0.557114
      2 C                    -0.487956
      3 H                     0.045069
  ----------------------------------------
  Sum of atomic charges =    -1.000000

 -----------------------------------------------------------------
                    Cartesian Multipole Moments
 -----------------------------------------------------------------
    Charge (ESU x 10^10)
                -4.8032
    Dipole Moment (Debye)
         X      -0.0001      Y       0.5059      Z      -0.0881
       Tot       0.5135
    Quadrupole Moments (Debye-Ang)
        XX     -17.4629     XY       0.0002     YY     -17.2952
        XZ      -0.0005     YZ       0.8906     ZZ     -17.3159
    Octapole Moments (Debye-Ang^2)
       XXX      -0.0003    XXY       0.0658    XYY      -0.0001
       YYY       0.2249    XXZ     -10.7390    XYZ       0.0012
       YYZ     -10.4893    XZZ      -0.0006    YZZ       2.1311
       ZZZ     -24.0657
    Hexadecapole Moments (Debye-Ang^3)
      XXXX     -32.0078   XXXY       0.0006   XXYY     -10.7003
      XYYY       0.0006   YYYY     -32.1787   XXXZ      -0.0013
      XXYZ      -0.2224   XYYZ      -0.0004   YYYZ      -0.5803
      XXZZ     -26.3476   XYZZ       0.0019   YYZZ     -25.7944
      XZZZ      -0.0021   YZZZ       3.9406   ZZZZ    -103.7185
 -----------------------------------------------------------------
 Total job time:  12.45s(wall), 12.00s(cpu) 
 Mon Jun  3 17:04:32 2013

        *************************************************************
        *                                                           *
        *  Thank you very much for using Q-Chem.  Have a nice day.  *
        *                                                           *
        *************************************************************


0 sent ACK to 0 
now end server 0 ... 
 
**********************************************************************
Job 2 of 3 
**********************************************************************
 
Process 0 of 1 is on cl071.stfx.acenet.ca - thread support 1
initial socket setup ...start
initial socket setup ...done 
now start server 0 ... 

cmd = /usr/bin/ssh clhead /usr/local/qchem/bin/get_hostid 1678052346 > /scratch/tmp/6027765.1.short.q/qchem9828/lic.dat
                  Welcome to Q-Chem
     A Quantum Leap Into The Future Of Chemistry

 Y. Shao, L. Fusti-Molnar, Y. Jung, J. Kussmann, C. Ochsenfeld,
 S. T. Brown, A. T. B. Gilbert, L. V. Slipchenko,S. V. Levchenko,
 D. P. O'Neill, R. A. DiStasio Jr., R. C. Lochan, T. Wang,
 G. J. O. Beran, N. A. Besley, J. M. Herbert, C. Y. Lin,
 T. Van Voorhis, S. H. Chien, A. Sodt, R. P. Steele, 
 V. A. Rassolov, P. E. Maslen, P. P. Korambath, R. D. Adamson,
 B. Austin, J. Baker, E. F. C. Byrd, H. Dachsel, R. J. Doerksen,
 A. Dreuw, B. D. Dunietz, A. D. Dutoi, T. R. Furlani,
 S. R. Gwaltney, A. Heyden, S. Hirata, C.-P. Hsu, G. Kedziora,
 R. Z. Khaliullin, P. Klunzinger, A. M. Lee, M. S. Lee, W. Liang,
 I. Lotan, N. Nair, B. Peters, E. I. Proynov, P. A. Pieniazek, 
 Y. M. Rhee, J. Ritchie, E. Rosta, C. D. Sherrill, 
 A. C. Simmonett, J. E. Subotnik, H. L. Woodcock III,
 W. Zhang, A. T. Bell, A. K. Chakraborty, D. M. Chipman,
 F. J. Keil, A. Warshel, W. J. Hehre, H. F. Schaefer III,
 J. Kong, A. I. Krylov, P. M. W. Gill, M. Head-Gordon,
 Q-Chem, Version 3.1, Q-Chem, Inc., Pittsburgh, PA (2007).

 Additional authors for Version 3.1: 
 Z. Gan, Y. Zhao, N. E. Schultz, D. Truhlar, E. Epifanovsky and M. Oana.

 Additional authors for Version 3.2: 
 R. Baer, B. R. Brooks, D. Casanova, J.-D. Chai, C.-L. Cheng, 
 C. Cramer, D. Crittenden, A. Ghysels, G. Hawkins, E. G. Hohenstein, 
 C. Kelley, W. Kurlancheek, D. Liotard, E. Livshits, P. Manohar, 
 A. Marenich, D. Neuhauser, R. Olson, M. A. Rohrdanz, K. S. Thanthiriwatte, 
 A. J. W. Thom, V. Vanovschi, C. F. Williams, Q. Wu and Z.-Q. You. 


 Intel X86 Linux Version

 Q-chem begins on Mon Jun  3 17:04:36 2013  

 Parallel job on  1  processors
Processing $rem in /usr/local/qchem/config/preferences.

theFileMan(): MAXOPENFILES=974 MAX_SUB_FILE_NUM=16
Maximum size of a physical file is 2.0 GB, maximum size of a tmp-file is 32.0 GB


--------------------------------------------------------------
User input:
--------------------------------------------------------------

$molecule
0,2
c1
c2 c1 rc2
x1 c2 1.0 c1 90.0
h1 c2 rh1 x1 90.0 c1 th1

 rc2=1.22704003
 rh1=1.07018202
 th1=-162.45731362

$end

$comment
neutral
$end

$xc_functional
C PBE   1.00
X wPBE  1.00
$end


$rem
SYMMETRY_DECOMPOSITION	0
LRC_DFT                 true
exchange 		general
BASIS                   g3large
omega			400
mem_static              760
max_scf_cycles          200
scf_final_print         1
sym_ignore              true
$end

--------------------------------------------------------------
 Writing REM_CC_EA            3
 ----------------------------------------------------
       Standard Nuclear Orientation (Angstroms)
    I     Atom         X            Y            Z
 ----------------------------------------------------
    1      C       0.000000     0.000000     0.000000
    2      C       0.000000     0.000000     1.227040
    3      H       0.000000     0.322570     2.247451
 ----------------------------------------------------
 Nuclear Repulsion Energy =    19.8907290256 hartrees
 There are        7 alpha and        6 beta electrons
 Requested basis set is G3large
 There are 26 shells and 94 basis functions

Total QAlloc Memory Limit   2000 MB
Mega-Array Size       743 MB
MEM_STATIC part       760 MB

                       Distance Matrix (Angstroms)
             C (  1)   C (  2)
   C (  2)  1.227040
   H (  3)  2.270482  1.070182
 
 A cutoff of  1.0D-08 yielded    345 shell pairs
 There are   4539 function pairs (  5803 Cartesian)
Evaluating contribution to one-electron hamiltonian from nuclear
 Smallest overlap matrix eigenvalue = 7.31E-05

 Q-Chem warning in module mkSTV.C, line 194:

 Overlap eigenvalue is smaller than square root of threshold

 Multipole matrices computed through 2nd order

  Scale SEOQF with 1.000000e-01/1.000000e-01/1.000000e-01

 Standard Electronic Orientation quadrupole field applied
 Nucleus-field energy     =    -0.0000000015 hartrees
 Guess from superposition of atomic densities
 Warning:  Energy on first SCF cycle will be non-variational
 Long-range K will be added via erf
 Coulomb attenuation parameter = 0.4 bohr**(-1)
 An unrestricted Kohn-Sham SCF calculation will be
 performed using Pulay DIIS extrapolation
 Exchange:  wPBE + LR-HF      Correlation:  PBE
 Using SG-1 standard quadrature grid
 SCF converges when DIIS error is below 1.0E-05
 Requested basis set is G3large
 There are 26 shells and 94 basis functions
 A cutoff of  1.0D-08 yielded    345 shell pairs
 There are   4539 function pairs (  5803 Cartesian)
 ---------------------------------------
  Cycle       Energy         DIIS Error
 ---------------------------------------
    1     -76.7753616815      3.91E-02
    2     -76.5189947924      3.72E-03
    3     -76.5315842305      2.84E-03
    4     -76.5405474772      4.53E-04
    5     -76.5411300612      1.71E-04
    6     -76.5414003585      8.25E-05
    7     -76.5416413862      8.37E-05
    8     -76.5416309334      8.36E-05
    9     -76.5418492405      8.42E-05
   10     -76.5419556942      8.56E-05
   11     -76.5401637865      1.33E-04
   12     -76.5400499283      1.35E-04
   13     -76.5395862892      1.19E-04
   14     -76.5391207063      5.19E-05
   15     -76.5390136549      4.66E-05
   16     -76.5389883223      5.20E-05
   17     -76.5389859036      5.87E-05
   18     -76.5390111482      2.37E-05
   19     -76.5390114087      2.18E-05
   20     -76.5390170793      2.09E-05
   21     -76.5389849447      2.61E-05
   22     -76.5389509825      2.85E-05
   23     -76.5389243366      2.79E-05
   24     -76.5391679492      2.97E-05
   25     -76.5393443088      5.46E-05
   26     -76.5392659838      3.06E-05
   27     -76.5393135107      3.96E-05
   28     -76.5393333262      2.02E-05
   29     -76.5395828972      3.60E-04
   30     -76.5397163768      3.03E-04
   31     -76.5397986555      2.67E-04
   32     -76.5397769932      2.87E-04
   33     -76.5398511328      2.59E-04
   34     -76.5397667435      3.21E-04
   35     -76.5396271998      3.69E-04
   36     -76.5399240006      2.45E-04
   37     -76.5400794270      1.52E-04
   38     -76.5402038298      3.58E-05
   39     -76.5402385372      4.37E-05
   40     -76.5402256498      7.32E-05
   41     -76.5402156123      9.05E-05
   42     -76.5402157629      9.42E-05
   43     -76.5402348859      6.26E-05
   44     -76.5402457001      7.08E-06 Convergence criterion met
 ---------------------------------------
 One-Electron    Energy =  -141.2272336246
 Total Coulomb   Energy =    55.8104478071
 Alpha Exchange  Energy =    -1.3780592228
 Beta  Exchange  Energy =    -1.1920971377
 DFT   Exchange  Energy =    -8.0576420754
 DFT Correlation Energy =    -0.3863904708
 Nuclear Repu.   Energy =    19.8907290241
 Nuclear Attr.   Energy =  -217.7033361371
 Kinetic         Energy =    76.4761025126
 <S^2> = 0.7530
 SCF time:  CPU 79.45 s  wall 80.71 s
 Final Alpha MO Eigenvalues
            1           2           3           4           5           6
    1 -10.1698764 -10.1551840  -0.9673223  -0.7184799  -0.4987494  -0.4580138
            7           8           9          10          11          12
    1  -0.4291768   0.0338037   0.0690713   0.0770545   0.0999156   0.1076015
 Final Beta MO Eigenvalues
            1           2           3           4           5           6
    1 -10.1607171 -10.1501947  -0.9194842  -0.7059866  -0.4459140  -0.4184643
            7           8           9          10          11
    1  -0.1118370   0.0344191   0.0810290   0.1018278   0.1022561
 Analysis of SCF Wavefunction
 
 --------------------------------------------------------------
                    Orbital Energies (a.u.)
 --------------------------------------------------------------
 
 Alpha MOs
 -- Occupied --
-10.170 -10.155  -0.967  -0.718  -0.499  -0.458  -0.429
 -- Virtual --
  0.034   0.069   0.077   0.100   0.108   0.116   0.145   0.168
  0.175   0.185   0.228   0.272   0.446   0.542   0.574   0.591
  0.632   0.636   0.649   0.667   0.706   0.722   0.757   0.811
  0.923   0.953   0.959   0.971   1.151   1.165   1.443   1.448
  1.501   1.555   1.783   2.533   2.626   2.647   2.674   2.676
  2.709   2.712   2.756   2.797   2.850   2.927   2.999   3.104
  3.106   3.166   3.171   3.255   3.309   3.339   3.384   3.386
  3.459   3.597   3.629   3.782   3.792   3.889   4.233   4.364
  4.631   5.206   5.232   5.444   6.605  23.364  24.969  27.169
 27.220  27.411  27.438  27.773  28.798  40.788  40.817  40.819
 41.050  41.055  41.084  41.101  41.294  41.308  41.394
 
 Beta MOs
 -- Occupied --
-10.161 -10.150  -0.919  -0.706  -0.446  -0.418
 -- Virtual --
 -0.112   0.034   0.081   0.102   0.102   0.118   0.123   0.147
  0.170   0.189   0.211   0.229   0.279   0.453   0.551   0.597
  0.610   0.642   0.672   0.684   0.695   0.711   0.737   0.779
  0.816   0.943   0.960   0.981   0.985   1.169   1.172   1.453
  1.468   1.509   1.561   1.805   2.550   2.648   2.679   2.693
  2.729   2.752   2.753   2.761   2.847   2.860   2.967   3.006
  3.139   3.142   3.177   3.200   3.298   3.354   3.365   3.415
  3.416   3.465   3.607   3.655   3.821   3.826   3.899   4.237
  4.391   4.636   5.211   5.272   5.458   6.612  23.373  24.978
 27.192  27.224  27.432  27.441  27.776  28.804  40.804  40.827
 40.833  41.065  41.070  41.098  41.103  41.309  41.310  41.400
 --------------------------------------------------------------
 
          Ground-State Mulliken Net Atomic Charges

     Atom                 Charge (a.u.)    Spin (a.u.)
  --------------------------------------------------------
      1 C                    -0.175639       0.365614
      2 C                     0.034388       0.654311
      3 H                     0.141251      -0.019926
  --------------------------------------------------------
  Sum of atomic charges =     0.000000
  Sum of spin   charges =     1.000000

 -----------------------------------------------------------------
                    Cartesian Multipole Moments
 -----------------------------------------------------------------
    Charge (ESU x 10^10)
                 0.0000
    Dipole Moment (Debye)
         X       0.0049      Y       0.5019      Z       3.1322
       Tot       3.1721
    Quadrupole Moments (Debye-Ang)
        XX     -11.2731     XY      -0.0344     YY     -13.0249
        XZ       0.0075     YZ       1.0268     ZZ      -7.7692
    Octapole Moments (Debye-Ang^2)
       XXX       0.0070    XXY      -0.0680    XYY       0.0019
       YYY      -0.1813    XXZ      -6.9788    XYZ      -0.0260
       YYZ      -8.0742    XZZ       0.0158    YZZ       2.4350
       ZZZ      -9.7354
    Hexadecapole Moments (Debye-Ang^3)
      XXXX     -12.3213   XXXY      -0.0362   XXYY      -4.8313
      XYYY      -0.0363   YYYY     -16.6554   XXXZ       0.0092
      XXYZ      -0.3121   XYYZ       0.0024   YYYZ      -0.8395
      XXZZ     -15.2895   XYZZ      -0.0389   YYZZ     -16.6116
      XZZZ       0.0302   YZZZ       5.0087   ZZZZ     -51.9142
 -----------------------------------------------------------------
 Total job time:  80.81s(wall), 79.54s(cpu) 
 Mon Jun  3 17:05:57 2013

        *************************************************************
        *                                                           *
        *  Thank you very much for using Q-Chem.  Have a nice day.  *
        *                                                           *
        *************************************************************


0 sent ACK to 0 
now end server 0 ... 
 
**********************************************************************
Job 3 of 3 
**********************************************************************
 
Process 0 of 1 is on cl071.stfx.acenet.ca - thread support 1
initial socket setup ...start
initial socket setup ...done 
now start server 0 ... 

cmd = /usr/bin/ssh clhead /usr/local/qchem/bin/get_hostid 525898224 > /scratch/tmp/6027765.1.short.q/qchem9828/lic.dat
                  Welcome to Q-Chem
     A Quantum Leap Into The Future Of Chemistry

 Y. Shao, L. Fusti-Molnar, Y. Jung, J. Kussmann, C. Ochsenfeld,
 S. T. Brown, A. T. B. Gilbert, L. V. Slipchenko,S. V. Levchenko,
 D. P. O'Neill, R. A. DiStasio Jr., R. C. Lochan, T. Wang,
 G. J. O. Beran, N. A. Besley, J. M. Herbert, C. Y. Lin,
 T. Van Voorhis, S. H. Chien, A. Sodt, R. P. Steele, 
 V. A. Rassolov, P. E. Maslen, P. P. Korambath, R. D. Adamson,
 B. Austin, J. Baker, E. F. C. Byrd, H. Dachsel, R. J. Doerksen,
 A. Dreuw, B. D. Dunietz, A. D. Dutoi, T. R. Furlani,
 S. R. Gwaltney, A. Heyden, S. Hirata, C.-P. Hsu, G. Kedziora,
 R. Z. Khaliullin, P. Klunzinger, A. M. Lee, M. S. Lee, W. Liang,
 I. Lotan, N. Nair, B. Peters, E. I. Proynov, P. A. Pieniazek, 
 Y. M. Rhee, J. Ritchie, E. Rosta, C. D. Sherrill, 
 A. C. Simmonett, J. E. Subotnik, H. L. Woodcock III,
 W. Zhang, A. T. Bell, A. K. Chakraborty, D. M. Chipman,
 F. J. Keil, A. Warshel, W. J. Hehre, H. F. Schaefer III,
 J. Kong, A. I. Krylov, P. M. W. Gill, M. Head-Gordon,
 Q-Chem, Version 3.1, Q-Chem, Inc., Pittsburgh, PA (2007).

 Additional authors for Version 3.1: 
 Z. Gan, Y. Zhao, N. E. Schultz, D. Truhlar, E. Epifanovsky and M. Oana.

 Additional authors for Version 3.2: 
 R. Baer, B. R. Brooks, D. Casanova, J.-D. Chai, C.-L. Cheng, 
 C. Cramer, D. Crittenden, A. Ghysels, G. Hawkins, E. G. Hohenstein, 
 C. Kelley, W. Kurlancheek, D. Liotard, E. Livshits, P. Manohar, 
 A. Marenich, D. Neuhauser, R. Olson, M. A. Rohrdanz, K. S. Thanthiriwatte, 
 A. J. W. Thom, V. Vanovschi, C. F. Williams, Q. Wu and Z.-Q. You. 


 Intel X86 Linux Version

 Q-chem begins on Mon Jun  3 17:05:59 2013  

 Parallel job on  1  processors
Processing $rem in /usr/local/qchem/config/preferences.

theFileMan(): MAXOPENFILES=974 MAX_SUB_FILE_NUM=16
Maximum size of a physical file is 2.0 GB, maximum size of a tmp-file is 32.0 GB


--------------------------------------------------------------
User input:
--------------------------------------------------------------

$molecule
1,3
c1
c2 c1 rc2
x1 c2 1.0 c1 90.0
h1 c2 rh1 x1 90.0 c1 th1

 rc2=1.22704003
 rh1=1.07018202
 th1=-162.45731362

$end

$comment
positive
$end

$xc_functional
C PBE   1.00
X wPBE  1.00
$end

$rem
SYMMETRY_DECOMPOSITION	0
LRC_DFT                 true
exchange 		general
BASIS                   g3large
omega			400
mem_static              760
max_scf_cycles          200
scf_final_print         1
sym_ignore              true
$end

--------------------------------------------------------------
 Writing REM_CC_EA            3
 ----------------------------------------------------
       Standard Nuclear Orientation (Angstroms)
    I     Atom         X            Y            Z
 ----------------------------------------------------
    1      C       0.000000     0.000000     0.000000
    2      C       0.000000     0.000000     1.227040
    3      H       0.000000     0.322570     2.247451
 ----------------------------------------------------
 Nuclear Repulsion Energy =    19.8907290256 hartrees
 There are        7 alpha and        5 beta electrons
 Requested basis set is G3large
 There are 26 shells and 94 basis functions

Total QAlloc Memory Limit   2000 MB
Mega-Array Size       743 MB
MEM_STATIC part       760 MB

                       Distance Matrix (Angstroms)
             C (  1)   C (  2)
   C (  2)  1.227040
   H (  3)  2.270482  1.070182
 
 A cutoff of  1.0D-08 yielded    345 shell pairs
 There are   4539 function pairs (  5803 Cartesian)
Evaluating contribution to one-electron hamiltonian from nuclear
 Smallest overlap matrix eigenvalue = 7.31E-05

 Q-Chem warning in module mkSTV.C, line 194:

 Overlap eigenvalue is smaller than square root of threshold

 Multipole matrices computed through 2nd order

  Scale SEOQF with 1.000000e-01/1.000000e-01/1.000000e-01

 Standard Electronic Orientation quadrupole field applied
 Nucleus-field energy     =    -0.0000000015 hartrees
 Guess from superposition of atomic densities
 Warning:  Energy on first SCF cycle will be non-variational
 Long-range K will be added via erf
 Coulomb attenuation parameter = 0.4 bohr**(-1)
 An unrestricted Kohn-Sham SCF calculation will be
 performed using Pulay DIIS extrapolation
 Exchange:  wPBE + LR-HF      Correlation:  PBE
 Using SG-1 standard quadrature grid
 SCF converges when DIIS error is below 1.0E-05
 Requested basis set is G3large
 There are 26 shells and 94 basis functions
 A cutoff of  1.0D-08 yielded    345 shell pairs
 There are   4539 function pairs (  5803 Cartesian)
 Warning!  Inaccurate integrated density:
   Number of electrons =    12
   Numerical integral  =    12.999993748460
   Relative error      =     8.3332812372 %
 ---------------------------------------
  Cycle       Energy         DIIS Error
 ---------------------------------------
    1     -76.7753616815      3.91E-02
    2     -76.0738384515      4.33E-03
    3     -76.1225314035      1.90E-03
    4     -76.1281198830      7.29E-04
    5     -76.1298289079      4.48E-04
    6     -76.1305183832      1.20E-04
    7     -76.1308710715      4.86E-05
    8     -76.1310122956      2.46E-05
    9     -76.1310854541      1.55E-05
   10     -76.1311267565      1.24E-05
   11     -76.1311388535      9.93E-06 Convergence criterion met
 ---------------------------------------
 One-Electron    Energy =  -136.5788767471
 Total Coulomb   Energy =    51.2749084750
 Alpha Exchange  Energy =    -1.3961167573
 Beta  Exchange  Energy =    -1.0122370408
 DFT   Exchange  Energy =    -7.9655442778
 DFT Correlation Energy =    -0.3440015295
 Nuclear Repu.   Energy =    19.8907290241
 Nuclear Attr.   Energy =  -212.5871134912
 Kinetic         Energy =    76.0082367441
 <S^2> = 2.0258
 SCF time:  CPU 19.81 s  wall 20.30 s
 Final Alpha MO Eigenvalues
            1           2           3           4           5           6
    1 -10.5829062 -10.5372211  -1.3175530  -1.0247324  -0.8857333  -0.8411511
            7           8           9          10          11          12
    1  -0.7988039  -0.2591419  -0.2261195  -0.1127698  -0.0912262  -0.0702334
 Final Beta MO Eigenvalues
            1           2           3           4           5           6
    1 -10.5534217 -10.5298073  -1.2492788  -1.0009899  -0.7697592  -0.4249546
            7           8           9          10
    1  -0.3880955  -0.1878229  -0.1477877  -0.1087954
 Analysis of SCF Wavefunction
 
 --------------------------------------------------------------
                    Orbital Energies (a.u.)
 --------------------------------------------------------------
 
 Alpha MOs
 -- Occupied --
-10.583 -10.537  -1.318  -1.025  -0.886  -0.841  -0.799
 -- Virtual --
 -0.259  -0.226  -0.113  -0.091  -0.070  -0.063  -0.045  -0.010
 -0.005   0.008   0.045   0.072   0.204   0.279   0.317   0.334
  0.345   0.348   0.380   0.399   0.423   0.451   0.480   0.515
  0.629   0.659   0.661   0.680   0.857   0.871   1.139   1.163
  1.184   1.278   1.499   2.229   2.292   2.312   2.322   2.345
  2.371   2.376   2.397   2.464   2.508   2.562   2.619   2.763
  2.764   2.811   2.863   2.907   2.950   2.961   2.998   3.003
  3.067   3.202   3.241   3.432   3.438   3.534   3.885   4.055
  4.289   4.836   4.894   5.076   6.277  22.970  24.575  26.785
 26.825  27.018  27.040  27.347  28.422  40.385  40.416  40.437
 40.652  40.656  40.699  40.703  40.899  40.912  40.995
 
 Beta MOs
 -- Occupied --
-10.553 -10.530  -1.249  -1.001  -0.770
 -- Virtual --
 -0.425  -0.388  -0.188  -0.148  -0.109  -0.081  -0.062  -0.062
 -0.037  -0.001   0.003   0.015   0.053   0.081   0.226   0.305
  0.344   0.351   0.388   0.388   0.409   0.428   0.458   0.485
  0.512   0.548   0.662   0.696   0.700   0.710   0.900   0.903
  1.179   1.193   1.232   1.293   1.521   2.265   2.337   2.361
  2.369   2.395   2.431   2.432   2.441   2.514   2.538   2.636
  2.682   2.823   2.824   2.865   2.894   2.972   3.030   3.039
  3.086   3.094   3.150   3.293   3.344   3.493   3.506   3.594
  3.931   4.089   4.328   4.891   4.947   5.132   6.305  22.993
 24.600  26.809  26.845  27.044  27.059  27.385  28.436  40.416
 40.444  40.452  40.681  40.683  40.718  40.722  40.926  40.929
 41.020
 --------------------------------------------------------------
 
          Ground-State Mulliken Net Atomic Charges

     Atom                 Charge (a.u.)    Spin (a.u.)
  --------------------------------------------------------
      1 C                     0.571212       1.507065
      2 C                     0.192483       0.490032
      3 H                     0.236305       0.002903
  --------------------------------------------------------
  Sum of atomic charges =     1.000000
  Sum of spin   charges =     2.000000

 -----------------------------------------------------------------
                    Cartesian Multipole Moments
 -----------------------------------------------------------------
    Charge (ESU x 10^10)
                 4.8032
    Dipole Moment (Debye)
         X       0.0363      Y       0.3161      Z       4.1486
       Tot       4.1608
    Quadrupole Moments (Debye-Ang)
        XX      -9.4208     XY      -0.8066     YY      -9.3444
        XZ       0.2201     YZ       1.0178     ZZ       0.3757
    Octapole Moments (Debye-Ang^2)
       XXX       0.0314    XXY      -0.1826    XYY       0.0031
       YYY      -0.4713    XXZ      -6.7574    XYZ      -0.5668
       YYZ      -6.3806    XZZ       0.3173    YZZ       2.4885
       ZZZ       0.6429
    Hexadecapole Moments (Debye-Ang^3)
      XXXX      -8.6857   XXXY      -0.6688   XXYY      -2.9752
      XYYY      -0.6704   YYYY      -9.1296   XXXZ       0.1891
      XXYZ      -0.3655   XYYZ       0.0517   YYYZ      -0.9077
      XXZZ     -11.8477   XYZZ      -0.7898   YYZZ     -10.8470
      XZZZ       0.5936   YZZZ       5.7530   ZZZZ     -16.7554
 -----------------------------------------------------------------
 Total job time:  20.40s(wall), 19.90s(cpu) 
 Mon Jun  3 17:06:20 2013

        *************************************************************
        *                                                           *
        *  Thank you very much for using Q-Chem.  Have a nice day.  *
        *                                                           *
        *************************************************************


0 sent ACK to 0 
now end server 0 ... 
