Process 0 of 1 is on cl147.stfx.acenet.ca - thread support 1
initial socket setup ...start
initial socket setup ...done 
now start server 0 ... 

cmd = /usr/bin/ssh clhead /usr/local/qchem/bin/get_hostid 1051586861 > /globalscratch/itamblyn/bnl/g297_b3lyp_neut_g03Large_worked/g2g71131/omega330/qchem8876/lic.dat
                  Welcome to Q-Chem
     A Quantum Leap Into The Future Of Chemistry

 Y. Shao, L. Fusti-Molnar, Y. Jung, J. Kussmann, C. Ochsenfeld,
 S. T. Brown, A. T. B. Gilbert, L. V. Slipchenko,S. V. Levchenko,
 D. P. O'Neill, R. A. DiStasio Jr., R. C. Lochan, T. Wang,
 G. J. O. Beran, N. A. Besley, J. M. Herbert, C. Y. Lin,
 T. Van Voorhis, S. H. Chien, A. Sodt, R. P. Steele, 
 V. A. Rassolov, P. E. Maslen, P. P. Korambath, R. D. Adamson,
 B. Austin, J. Baker, E. F. C. Byrd, H. Dachsel, R. J. Doerksen,
 A. Dreuw, B. D. Dunietz, A. D. Dutoi, T. R. Furlani,
 S. R. Gwaltney, A. Heyden, S. Hirata, C.-P. Hsu, G. Kedziora,
 R. Z. Khaliullin, P. Klunzinger, A. M. Lee, M. S. Lee, W. Liang,
 I. Lotan, N. Nair, B. Peters, E. I. Proynov, P. A. Pieniazek, 
 Y. M. Rhee, J. Ritchie, E. Rosta, C. D. Sherrill, 
 A. C. Simmonett, J. E. Subotnik, H. L. Woodcock III,
 W. Zhang, A. T. Bell, A. K. Chakraborty, D. M. Chipman,
 F. J. Keil, A. Warshel, W. J. Hehre, H. F. Schaefer III,
 J. Kong, A. I. Krylov, P. M. W. Gill, M. Head-Gordon,
 Q-Chem, Version 3.1, Q-Chem, Inc., Pittsburgh, PA (2007).

 Additional authors for Version 3.1: 
 Z. Gan, Y. Zhao, N. E. Schultz, D. Truhlar, E. Epifanovsky and M. Oana.

 Additional authors for Version 3.2: 
 R. Baer, B. R. Brooks, D. Casanova, J.-D. Chai, C.-L. Cheng, 
 C. Cramer, D. Crittenden, A. Ghysels, G. Hawkins, E. G. Hohenstein, 
 C. Kelley, W. Kurlancheek, D. Liotard, E. Livshits, P. Manohar, 
 A. Marenich, D. Neuhauser, R. Olson, M. A. Rohrdanz, K. S. Thanthiriwatte, 
 A. J. W. Thom, V. Vanovschi, C. F. Williams, Q. Wu and Z.-Q. You. 


 Intel X86 Linux Version

 Q-chem begins on Fri Apr 15 16:34:00 2011  

 Parallel job on  1  processors
Processing $rem in /usr/local/qchem/config/preferences.

theFileMan(): MAXOPENFILES=974 MAX_SUB_FILE_NUM=16
Maximum size of a physical file is 2.0 GB, maximum size of a tmp-file is 32.0 GB


--------------------------------------------------------------
User input:
--------------------------------------------------------------

$molecule
-1,2
S
C,1,rcs
C,1,rcs,2,a1
C,2,rcdc,1,a2,3,0.,0
C,3,rcdc,1,a2,2,0.,0
H,2,r2h,1,a2h,3,180.,0
H,3,r2h,1,a2h,2,180.,0
H,4,r4h,2,a4h,1,180.,0
H,5,r4h,3,a4h,1,180.,0

rcs=1.7360563
rcdc=1.36739579
r2h=1.08161314
r4h=1.08474673
a1=91.51094962
a2=111.49586594
a2h=120.09583864
a4h=123.32881129

$end

$comment
negative
$end

$xc_functional
   X HF 1.0
   X BNL 1.0
   C LYP 1.0
$end

$rem
SYMMETRY_DECOMPOSITION	0
exchange 		general
BASIS                   g3large
omega			330
separate_jk		true
mem_static              760
max_scf_cycles          200
scf_final_print         1
sym_ignore              true
$end

--------------------------------------------------------------
 Writing REM_CC_EA            9
 ----------------------------------------------------
       Standard Nuclear Orientation (Angstroms)
    I     Atom         X            Y            Z
 ----------------------------------------------------
    1      S       0.000000     0.000000     0.000000
    2      C       0.000000     0.000000     1.736056
    3      C       1.735453     0.000000    -0.045776
    4      C       1.272285     0.000000     2.237117
    5      C       2.269887     0.000000     1.212855
    6      H      -0.935799     0.000000     2.278429
    7      H       2.252962     0.000000    -0.995551
    8      H       1.494722     0.000000     3.298812
    9      H       3.337078     0.000000     1.407219
 ----------------------------------------------------
 Nuclear Repulsion Energy =   201.6744840342 hartrees
 There are       23 alpha and       22 beta electrons
 Requested basis set is G3large
 There are 83 shells and 274 basis functions

Total QAlloc Memory Limit   2000 MB
Mega-Array Size       743 MB
MEM_STATIC part       760 MB

                       Distance Matrix (Angstroms)
             S (  1)   C (  2)   C (  3)   C (  4)   C (  5)   H (  6)
   C (  2)  1.736056
   C (  3)  1.736056  2.487312
   C (  4)  2.573597  1.367396  2.329404
   C (  5)  2.573597  2.329404  1.367396  1.429798
   H (  6)  2.463119  1.081613  3.540835  2.208470  3.378145
   H (  7)  2.463119  3.540835  1.081613  3.378145  2.208470  4.570244
   H (  8)  3.621651  2.162499  3.353241  1.084747  2.225331  2.636022
   H (  9)  3.621651  3.353241  2.162499  2.225331  1.084747  4.360789
             H (  7)   H (  8)
   H (  8)  4.360789
   H (  9)  2.636022  2.640530
 
 A cutoff of  1.0D-08 yielded   3139 shell pairs
 There are  34972 function pairs ( 45281 Cartesian)
Evaluating contribution to one-electron hamiltonian from nuclear
 Smallest overlap matrix eigenvalue = 5.83E-06

 Q-Chem warning in module mkSTV.C, line 194:

 Overlap eigenvalue is smaller than square root of threshold

 Multipole matrices computed through 2nd order

  Scale SEOQF with 1.000000e-01/1.000000e-01/1.000000e-01

 Standard Electronic Orientation quadrupole field applied
 Nucleus-field energy     =    -0.0000000054 hartrees
 Guess from superposition of atomic densities
 Warning:  Energy on first SCF cycle will be non-variational
 An unrestricted hybrid HF-DFT SCF calculation will be
 performed using Pulay DIIS extrapolation
 Exchange:     1.0000 Hartree-Fock + 1.0000 BNL
 Correlation:  1.0000 LYP
 Using SG-1 standard quadrature grid
 SCF converges when DIIS error is below 1.0E-05
 Warning!  Inaccurate integrated density:
   Number of electrons =    45
   Numerical integral  =    44.000436424003
   Relative error      =    -2.2212523911 %
 ---------------------------------------
  Cycle       Energy         DIIS Error
 ---------------------------------------
    1    -550.8861228559      2.88E-02
    2    -549.1559690915      3.47E-03
    3    -549.1895540909      3.43E-03
    4    -549.3017008665      3.67E-04
    5    -549.3037323600      1.24E-04
    6    -549.3041606731      4.65E-05
    7    -549.3042794160      2.44E-05
    8    -549.3043368423      1.34E-05
    9    -549.3043690349      9.32E-06 Convergence criterion met
 ---------------------------------------
 One-Electron    Energy = -1166.3947583959
 Total Coulomb   Energy =   460.6647578478
 Alpha Exchange  Energy =    -3.8946228973
 Beta  Exchange  Energy =    -3.7385100202
 DFT   Exchange  Energy =   -36.0001375414
 DFT Correlation Energy =    -1.6155820567
 Nuclear Repu.   Energy =   201.6744840289
 Nuclear Attr.   Energy = -1714.4761903346
 Kinetic         Energy =   548.0814319387
 <S^2> = 0.7634
 SCF time:  CPU 373.68 s  wall 399.03 s
 Final Alpha MO Eigenvalues
            1           2           3           4           5           6
    1 -87.6683901  -9.7353750  -9.7351003  -9.7342333  -9.7337786  -7.6125435
            7           8           9          10          11          12
    1  -5.6642876  -5.6598306  -5.6566509  -0.7728608  -0.6311844  -0.6186902
           13          14          15          16          17          18
    1  -0.4635091  -0.4494865  -0.4200757  -0.3045178  -0.2926790  -0.2851220
           19          20          21          22          23          24
    1  -0.2735124  -0.2346387  -0.1578834  -0.1466895   0.0404530   0.1471219
           25          26          27          28
    1   0.1488951   0.1571973   0.1655325   0.2106159
 Final Beta MO Eigenvalues
            1           2           3           4           5           6
    1 -87.6676112  -9.7340426  -9.7335290  -9.7294683  -9.7291330  -7.6116518
            7           8           9          10          11          12
    1  -5.6638247  -5.6593165  -5.6543761  -0.7677501  -0.6265932  -0.6106082
           13          14          15          16          17          18
    1  -0.4516642  -0.4451810  -0.4166296  -0.3009351  -0.2816284  -0.2778043
           19          20          21          22          23          24
    1  -0.2694845  -0.2280609  -0.1349100  -0.1144137   0.1434910   0.1456096
           25          26          27
    1   0.1533200   0.1622892   0.2073521
 Analysis of SCF Wavefunction
 
 --------------------------------------------------------------
                    Orbital Energies (a.u.)
 --------------------------------------------------------------
 
 Alpha MOs
 -- Occupied --
-87.668  -9.735  -9.735  -9.734  -9.734  -7.613  -5.664  -5.660
 -5.657  -0.773  -0.631  -0.619  -0.464  -0.449  -0.420  -0.305
 -0.293  -0.285  -0.274  -0.235  -0.158  -0.147   0.040
 -- Virtual --
  0.147   0.149   0.157   0.166   0.211   0.237   0.241   0.245
  0.267   0.268   0.274   0.277   0.285   0.296   0.302   0.308
  0.308   0.316   0.320   0.344   0.345   0.357   0.368   0.374
  0.397   0.400   0.413   0.452   0.507   0.518   0.522   0.522
  0.546   0.577   0.591   0.601   0.628   0.662   0.664   0.675
  0.701   0.737   0.776   0.783   0.791   0.799   0.829   0.848
  0.861   0.871   0.885   0.896   0.908   0.937   0.945   0.961
  0.982   0.986   0.991   0.997   1.007   1.025   1.048   1.082
  1.125   1.129   1.141   1.178   1.197   1.223   1.240   1.267
  1.278   1.305   1.335   1.338   1.371   1.380   1.392   1.417
  1.454   1.471   1.507   1.517   1.522   1.552   1.592   1.594
  1.601   1.615   1.637   1.678   1.685   1.707   1.711   1.745
  1.750   1.789   1.793   1.877   1.943   1.978   2.052   2.082
  2.110   2.147   2.178   2.203   2.433   2.573   2.792   2.873
  2.875   2.925   2.951   2.959   2.989   3.000   3.039   3.044
  3.110   3.113   3.139   3.143   3.166   3.190   3.199   3.226
  3.233   3.263   3.313   3.382   3.432   3.447   3.461   3.486
  3.488   3.541   3.544   3.545   3.547   3.629   3.643   3.673
  3.685   3.696   3.702   3.779   3.785   3.844   3.853   3.882
  3.888   3.889   3.909   3.910   3.957   3.965   3.990   4.001
  4.011   4.073   4.084   4.100   4.134   4.161   4.280   4.330
  4.380   4.387   4.419   4.431   4.497   4.513   4.602   4.694
  4.695   4.736   4.788   4.832   4.867   4.908   4.939   5.022
  5.035   5.052   5.180   5.273   5.275   5.333   5.561   5.594
  5.704   5.852   5.924   6.076   6.092   6.520   8.877  17.269
 17.670  17.730  23.768  23.803  23.809  23.955  23.981  24.130
 24.439  24.840  25.099  27.488  27.563  27.677  27.825  28.192
 28.325  28.375  28.453  28.552  28.678  28.806  28.871  31.125
 31.131  31.137  31.138  31.145  31.170  31.172  41.033  41.077
 41.103  41.126  41.171  41.222  41.243  41.315  41.378  41.387
 41.399  41.410  41.421  41.441  41.463  41.471  41.479  41.572
 41.633  41.746 189.976
 
 Beta MOs
 -- Occupied --
-87.668  -9.734  -9.734  -9.729  -9.729  -7.612  -5.664  -5.659
 -5.654  -0.768  -0.627  -0.611  -0.452  -0.445  -0.417  -0.301
 -0.282  -0.278  -0.269  -0.228  -0.135  -0.114
 -- Virtual --
  0.143   0.146   0.153   0.162   0.207   0.233   0.235   0.242
  0.250   0.265   0.268   0.274   0.274   0.284   0.293   0.300
  0.306   0.306   0.319   0.336   0.343   0.344   0.357   0.373
  0.378   0.396   0.397   0.418   0.451   0.508   0.518   0.522
  0.524   0.556   0.577   0.604   0.605   0.630   0.662   0.668
  0.677   0.704   0.742   0.780   0.786   0.791   0.807   0.832
  0.860   0.865   0.876   0.896   0.899   0.910   0.939   0.948
  0.967   0.983   0.987   0.998   1.003   1.011   1.028   1.050
  1.085   1.132   1.135   1.145   1.184   1.198   1.228   1.243
  1.272   1.280   1.311   1.340   1.340   1.373   1.381   1.394
  1.420   1.456   1.476   1.513   1.520   1.528   1.558   1.597
  1.600   1.603   1.619   1.640   1.681   1.694   1.709   1.717
  1.749   1.752   1.793   1.799   1.879   1.947   1.982   2.056
  2.085   2.117   2.150   2.182   2.207   2.435   2.575   2.795
  2.875   2.882   2.935   2.956   2.969   2.994   3.003   3.050
  3.052   3.117   3.124   3.145   3.147   3.176   3.201   3.204
  3.237   3.243   3.268   3.325   3.391   3.438   3.452   3.468
  3.492   3.495   3.545   3.551   3.551   3.552   3.639   3.647
  3.685   3.693   3.700   3.706   3.782   3.799   3.852   3.868
  3.887   3.893   3.896   3.915   3.921   3.966   3.968   3.998
  4.006   4.016   4.078   4.092   4.108   4.138   4.165   4.284
  4.334   4.382   4.393   4.425   4.438   4.503   4.516   4.607
  4.696   4.699   4.739   4.797   4.835   4.869   4.911   4.948
  5.024   5.039   5.057   5.183   5.277   5.277   5.335   5.565
  5.598   5.706   5.854   5.927   6.078   6.095   6.522   8.879
 17.272  17.670  17.731  23.770  23.804  23.811  23.955  23.982
 24.134  24.445  24.844  25.101  27.493  27.571  27.683  27.829
 28.193  28.329  28.378  28.455  28.554  28.680  28.809  28.871
 31.125  31.132  31.138  31.139  31.146  31.170  31.172  41.039
 41.084  41.109  41.130  41.173  41.223  41.246  41.319  41.383
 41.390  41.405  41.419  41.429  41.443  41.469  41.476  41.481
 41.575  41.636  41.747 189.977
 --------------------------------------------------------------
 
          Ground-State Mulliken Net Atomic Charges

     Atom                 Charge (a.u.)    Spin (a.u.)
  --------------------------------------------------------
      1 S                    -0.277872       0.236502
      2 C                    -0.267669       0.308145
      3 C                    -0.266984       0.310404
      4 C                    -0.282319       0.085706
      5 C                    -0.261449       0.068288
      6 H                     0.082354      -0.014009
      7 H                     0.070623      -0.002570
      8 H                     0.101697       0.003928
      9 H                     0.101620       0.003605
  --------------------------------------------------------
  Sum of atomic charges =    -1.000000
  Sum of spin   charges =     1.000000

 -----------------------------------------------------------------
                    Cartesian Multipole Moments
 -----------------------------------------------------------------
    Charge (ESU x 10^10)
                -4.8032
    Dipole Moment (Debye)
         X      -4.0928      Y       0.0753      Z      -3.9110
       Tot       5.6615
    Quadrupole Moments (Debye-Ang)
        XX     -51.5673     XY       0.1366     YY     -49.4375
        XZ      -6.1542     YZ       0.5355     ZZ     -51.0508
    Octapole Moments (Debye-Ang^2)
       XXX    -131.8236    XXY       0.5831    XYY     -44.8377
       YYY       0.6919    XXZ     -46.4286    XYZ       1.4226
       YYZ     -43.4084    XZZ     -47.8186    YZZ       1.3884
       ZZZ    -126.8589
    Hexadecapole Moments (Debye-Ang^3)
      XXXX    -570.7245   XXXY       2.5826   XXYY    -127.2128
      XYYY       1.1860   YYYY     -93.4647   XXXZ    -140.4136
      XXYZ       6.0781   XYYZ     -49.6921   YYYZ       3.6536
      XXZZ    -198.5321   XYZZ       2.2243   YYZZ    -123.9178
      XZZZ    -140.1946   YZZZ       6.5551   ZZZZ    -551.2133
 -----------------------------------------------------------------
 Total job time:  402.14s(wall), 374.13s(cpu) 
 Fri Apr 15 16:40:42 2011

        *************************************************************
        *                                                           *
        *  Thank you very much for using Q-Chem.  Have a nice day.  *
        *                                                           *
        *************************************************************


0 sent ACK to 0 
now end server 0 ... 
 
**********************************************************************
Job 2 of 3 
**********************************************************************
 
Process 0 of 1 is on cl147.stfx.acenet.ca - thread support 1
initial socket setup ...start
initial socket setup ...done 
now start server 0 ... 

cmd = /usr/bin/ssh clhead /usr/local/qchem/bin/get_hostid 291849193 > /globalscratch/itamblyn/bnl/g297_b3lyp_neut_g03Large_worked/g2g71131/omega330/qchem8876/lic.dat
                  Welcome to Q-Chem
     A Quantum Leap Into The Future Of Chemistry

 Y. Shao, L. Fusti-Molnar, Y. Jung, J. Kussmann, C. Ochsenfeld,
 S. T. Brown, A. T. B. Gilbert, L. V. Slipchenko,S. V. Levchenko,
 D. P. O'Neill, R. A. DiStasio Jr., R. C. Lochan, T. Wang,
 G. J. O. Beran, N. A. Besley, J. M. Herbert, C. Y. Lin,
 T. Van Voorhis, S. H. Chien, A. Sodt, R. P. Steele, 
 V. A. Rassolov, P. E. Maslen, P. P. Korambath, R. D. Adamson,
 B. Austin, J. Baker, E. F. C. Byrd, H. Dachsel, R. J. Doerksen,
 A. Dreuw, B. D. Dunietz, A. D. Dutoi, T. R. Furlani,
 S. R. Gwaltney, A. Heyden, S. Hirata, C.-P. Hsu, G. Kedziora,
 R. Z. Khaliullin, P. Klunzinger, A. M. Lee, M. S. Lee, W. Liang,
 I. Lotan, N. Nair, B. Peters, E. I. Proynov, P. A. Pieniazek, 
 Y. M. Rhee, J. Ritchie, E. Rosta, C. D. Sherrill, 
 A. C. Simmonett, J. E. Subotnik, H. L. Woodcock III,
 W. Zhang, A. T. Bell, A. K. Chakraborty, D. M. Chipman,
 F. J. Keil, A. Warshel, W. J. Hehre, H. F. Schaefer III,
 J. Kong, A. I. Krylov, P. M. W. Gill, M. Head-Gordon,
 Q-Chem, Version 3.1, Q-Chem, Inc., Pittsburgh, PA (2007).

 Additional authors for Version 3.1: 
 Z. Gan, Y. Zhao, N. E. Schultz, D. Truhlar, E. Epifanovsky and M. Oana.

 Additional authors for Version 3.2: 
 R. Baer, B. R. Brooks, D. Casanova, J.-D. Chai, C.-L. Cheng, 
 C. Cramer, D. Crittenden, A. Ghysels, G. Hawkins, E. G. Hohenstein, 
 C. Kelley, W. Kurlancheek, D. Liotard, E. Livshits, P. Manohar, 
 A. Marenich, D. Neuhauser, R. Olson, M. A. Rohrdanz, K. S. Thanthiriwatte, 
 A. J. W. Thom, V. Vanovschi, C. F. Williams, Q. Wu and Z.-Q. You. 


 Intel X86 Linux Version

 Q-chem begins on Fri Apr 15 16:40:47 2011  

 Parallel job on  1  processors
Processing $rem in /usr/local/qchem/config/preferences.

theFileMan(): MAXOPENFILES=974 MAX_SUB_FILE_NUM=16
Maximum size of a physical file is 2.0 GB, maximum size of a tmp-file is 32.0 GB


--------------------------------------------------------------
User input:
--------------------------------------------------------------

$molecule
0,1
S
C,1,rcs
C,1,rcs,2,a1
C,2,rcdc,1,a2,3,0.,0
C,3,rcdc,1,a2,2,0.,0
H,2,r2h,1,a2h,3,180.,0
H,3,r2h,1,a2h,2,180.,0
H,4,r4h,2,a4h,1,180.,0
H,5,r4h,3,a4h,1,180.,0

rcs=1.7360563
rcdc=1.36739579
r2h=1.08161314
r4h=1.08474673
a1=91.51094962
a2=111.49586594
a2h=120.09583864
a4h=123.32881129

$end

$comment
neutral
$end

$xc_functional
   X HF 1.0
   X BNL 1.0
   C LYP 1.0
$end

$rem
SYMMETRY_DECOMPOSITION	0
exchange 		general
BASIS                   g3large
omega			330
separate_jk		true
mem_static              760
max_scf_cycles          200
scf_final_print         1
sym_ignore              true
$end

--------------------------------------------------------------
 Writing REM_CC_EA            9
 ----------------------------------------------------
       Standard Nuclear Orientation (Angstroms)
    I     Atom         X            Y            Z
 ----------------------------------------------------
    1      S       0.000000     0.000000     0.000000
    2      C       0.000000     0.000000     1.736056
    3      C       1.735453     0.000000    -0.045776
    4      C       1.272285     0.000000     2.237117
    5      C       2.269887     0.000000     1.212855
    6      H      -0.935799     0.000000     2.278429
    7      H       2.252962     0.000000    -0.995551
    8      H       1.494722     0.000000     3.298812
    9      H       3.337078     0.000000     1.407219
 ----------------------------------------------------
 Nuclear Repulsion Energy =   201.6744840342 hartrees
 There are       22 alpha and       22 beta electrons
 Requested basis set is G3large
 There are 83 shells and 274 basis functions

Total QAlloc Memory Limit   2000 MB
Mega-Array Size       743 MB
MEM_STATIC part       760 MB

                       Distance Matrix (Angstroms)
             S (  1)   C (  2)   C (  3)   C (  4)   C (  5)   H (  6)
   C (  2)  1.736056
   C (  3)  1.736056  2.487312
   C (  4)  2.573597  1.367396  2.329404
   C (  5)  2.573597  2.329404  1.367396  1.429798
   H (  6)  2.463119  1.081613  3.540835  2.208470  3.378145
   H (  7)  2.463119  3.540835  1.081613  3.378145  2.208470  4.570244
   H (  8)  3.621651  2.162499  3.353241  1.084747  2.225331  2.636022
   H (  9)  3.621651  3.353241  2.162499  2.225331  1.084747  4.360789
             H (  7)   H (  8)
   H (  8)  4.360789
   H (  9)  2.636022  2.640530
 
 A cutoff of  1.0D-08 yielded   3139 shell pairs
 There are  34972 function pairs ( 45281 Cartesian)
Evaluating contribution to one-electron hamiltonian from nuclear
 Smallest overlap matrix eigenvalue = 5.83E-06

 Q-Chem warning in module mkSTV.C, line 194:

 Overlap eigenvalue is smaller than square root of threshold

 Multipole matrices computed through 2nd order

  Scale SEOQF with 1.000000e-01/1.000000e-01/1.000000e-01

 Standard Electronic Orientation quadrupole field applied
 Nucleus-field energy     =    -0.0000000054 hartrees
 Guess from superposition of atomic densities
 Warning:  Energy on first SCF cycle will be non-variational
 A restricted hybrid HF-DFT SCF calculation will be
 performed using Pulay DIIS extrapolation
 Exchange:     1.0000 Hartree-Fock + 1.0000 BNL
 Correlation:  1.0000 LYP
 Using SG-1 standard quadrature grid
 SCF converges when DIIS error is below 1.0E-05
 ---------------------------------------
  Cycle       Energy         DIIS Error
 ---------------------------------------
    1    -550.8861228559      2.88E-02
    2    -549.2778779498      2.54E-03
    3    -549.3059581336      2.14E-03
    4    -549.3469524055      4.29E-04
    5    -549.3491487789      1.43E-04
    6    -549.3494349597      5.38E-05
    7    -549.3494703295      1.98E-05
    8    -549.3494773088      6.14E-06 Convergence criterion met
 ---------------------------------------
 One-Electron    Energy = -1157.1036971172
 Total Coulomb   Energy =   451.0668851798
 Alpha Exchange  Energy =    -3.7513169949
 Beta  Exchange  Energy =    -3.7513169949
 DFT   Exchange  Energy =   -35.8938127500
 DFT Correlation Energy =    -1.5907026606
 Nuclear Repu.   Energy =   201.6744840289
 Nuclear Attr.   Energy = -1704.8932382626
 Kinetic         Energy =   547.7895411454
 SCF time:  CPU 265.16 s  wall 303.09 s
 Final Alpha MO Eigenvalues
            1           2           3           4           5           6
    1 -87.8876989  -9.9666905  -9.9666074  -9.9438266  -9.9436187  -7.8313413
            7           8           9          10          11          12
    1  -5.8829385  -5.8781851  -5.8759949  -0.9857499  -0.8403109  -0.8281994
           13          14          15          16          17          18
    1  -0.6681136  -0.6541365  -0.6230349  -0.5105463  -0.4971685  -0.4919887
           19          20          21          22          23          24
    1  -0.4800134  -0.4399367  -0.3474300  -0.3395490   0.0323621   0.0399979
           25          26          27
    1   0.0483254   0.0497058   0.0605919
 Analysis of SCF Wavefunction
 
 --------------------------------------------------------------
                    Orbital Energies (a.u.)
 --------------------------------------------------------------
 
 Alpha MOs
 -- Occupied --
-87.888  -9.967  -9.967  -9.944  -9.944  -7.831  -5.883  -5.878
 -5.876  -0.986  -0.840  -0.828  -0.668  -0.654  -0.623  -0.511
 -0.497  -0.492  -0.480  -0.440  -0.347  -0.340
 -- Virtual --
  0.032   0.040   0.048   0.050   0.061   0.082   0.097   0.099
  0.102   0.107   0.129   0.133   0.142   0.143   0.162   0.166
  0.167   0.175   0.181   0.182   0.196   0.199   0.205   0.209
  0.227   0.248   0.252   0.261   0.289   0.342   0.345   0.356
  0.364   0.372   0.402   0.409   0.427   0.451   0.483   0.486
  0.496   0.517   0.553   0.589   0.601   0.608   0.612   0.650
  0.662   0.676   0.688   0.694   0.714   0.725   0.751   0.762
  0.764   0.799   0.799   0.807   0.817   0.821   0.838   0.857
  0.890   0.929   0.936   0.950   0.984   1.011   1.029   1.044
  1.069   1.087   1.111   1.139   1.144   1.172   1.195   1.208
  1.225   1.260   1.275   1.313   1.326   1.327   1.354   1.392
  1.399   1.407   1.421   1.449   1.484   1.488   1.515   1.520
  1.547   1.568   1.599   1.599   1.685   1.748   1.785   1.859
  1.887   1.905   1.950   1.980   2.006   2.227   2.370   2.595
  2.665   2.674   2.715   2.744   2.751   2.785   2.799   2.828
  2.837   2.899   2.906   2.930   2.941   2.955   2.982   2.991
  3.018   3.023   3.052   3.103   3.174   3.223   3.239   3.255
  3.277   3.280   3.337   3.338   3.339   3.341   3.421   3.438
  3.462   3.480   3.496   3.497   3.571   3.576   3.634   3.641
  3.675   3.679   3.682   3.701   3.702   3.746   3.761   3.779
  3.797   3.804   3.869   3.875   3.890   3.926   3.956   4.071
  4.122   4.183   4.183   4.214   4.228   4.296   4.306   4.399
  4.486   4.489   4.528   4.577   4.624   4.660   4.706   4.728
  4.817   4.819   4.839   4.971   5.062   5.068   5.129   5.354
  5.384   5.497   5.645   5.718   5.865   5.887   6.316   8.662
 17.051  17.452  17.512  23.549  23.584  23.590  23.737  23.762
 23.910  24.217  24.621  24.884  27.269  27.337  27.455  27.610
 27.980  28.097  28.150  28.230  28.333  28.459  28.586  28.660
 30.905  30.912  30.918  30.919  30.926  30.951  30.954  40.814
 40.853  40.875  40.899  40.958  41.012  41.023  41.095  41.157
 41.169  41.176  41.182  41.199  41.230  41.243  41.252  41.260
 41.345  41.413  41.533 189.757
 --------------------------------------------------------------
 
          Ground-State Mulliken Net Atomic Charges

     Atom                 Charge (a.u.)
  ----------------------------------------
      1 S                    -0.004751
      2 C                    -0.149108
      3 C                    -0.148460
      4 C                    -0.179038
      5 C                    -0.180004
      6 H                     0.159695
      7 H                     0.159783
      8 H                     0.171005
      9 H                     0.170879
  ----------------------------------------
  Sum of atomic charges =     0.000000

 -----------------------------------------------------------------
                    Cartesian Multipole Moments
 -----------------------------------------------------------------
    Charge (ESU x 10^10)
                 0.0000
    Dipole Moment (Debye)
         X       0.3943      Y       0.0003      Z       0.3835
       Tot       0.5501
    Quadrupole Moments (Debye-Ang)
        XX     -33.0027     XY       0.0011     YY     -41.1470
        XZ      -1.0859     YZ      -0.0004     ZZ     -32.9458
    Octapole Moments (Debye-Ang^2)
       XXX     -86.3951    XXY       0.0002    XYY     -37.0440
       YYY       0.0000    XXZ     -27.6736    XYZ       0.0006
       YYZ     -36.0797    XZZ     -28.4439    YZZ       0.0012
       ZZZ     -84.1762
    Hexadecapole Moments (Debye-Ang^3)
      XXXX    -395.1830   XXXY       0.0045   XXYY     -92.9330
      XYYY       0.0019   YYYY     -54.2651   XXXZ     -90.2535
      XXYZ       0.0016   XYYZ     -37.7412   YYYZ      -0.0010
      XXZZ    -126.4398   XYZZ       0.0003   YYZZ     -90.9417
      XZZZ     -90.5483   YZZZ      -0.0017   ZZZZ    -385.6467
 -----------------------------------------------------------------
 Total job time:  310.39s(wall), 265.59s(cpu) 
 Fri Apr 15 16:45:57 2011

        *************************************************************
        *                                                           *
        *  Thank you very much for using Q-Chem.  Have a nice day.  *
        *                                                           *
        *************************************************************


0 sent ACK to 0 
now end server 0 ... 
 
**********************************************************************
Job 3 of 3 
**********************************************************************
 
Process 0 of 1 is on cl147.stfx.acenet.ca - thread support 1
initial socket setup ...start
initial socket setup ...done 
now start server 0 ... 

cmd = /usr/bin/ssh clhead /usr/local/qchem/bin/get_hostid 1882668363 > /globalscratch/itamblyn/bnl/g297_b3lyp_neut_g03Large_worked/g2g71131/omega330/qchem8876/lic.dat
                  Welcome to Q-Chem
     A Quantum Leap Into The Future Of Chemistry

 Y. Shao, L. Fusti-Molnar, Y. Jung, J. Kussmann, C. Ochsenfeld,
 S. T. Brown, A. T. B. Gilbert, L. V. Slipchenko,S. V. Levchenko,
 D. P. O'Neill, R. A. DiStasio Jr., R. C. Lochan, T. Wang,
 G. J. O. Beran, N. A. Besley, J. M. Herbert, C. Y. Lin,
 T. Van Voorhis, S. H. Chien, A. Sodt, R. P. Steele, 
 V. A. Rassolov, P. E. Maslen, P. P. Korambath, R. D. Adamson,
 B. Austin, J. Baker, E. F. C. Byrd, H. Dachsel, R. J. Doerksen,
 A. Dreuw, B. D. Dunietz, A. D. Dutoi, T. R. Furlani,
 S. R. Gwaltney, A. Heyden, S. Hirata, C.-P. Hsu, G. Kedziora,
 R. Z. Khaliullin, P. Klunzinger, A. M. Lee, M. S. Lee, W. Liang,
 I. Lotan, N. Nair, B. Peters, E. I. Proynov, P. A. Pieniazek, 
 Y. M. Rhee, J. Ritchie, E. Rosta, C. D. Sherrill, 
 A. C. Simmonett, J. E. Subotnik, H. L. Woodcock III,
 W. Zhang, A. T. Bell, A. K. Chakraborty, D. M. Chipman,
 F. J. Keil, A. Warshel, W. J. Hehre, H. F. Schaefer III,
 J. Kong, A. I. Krylov, P. M. W. Gill, M. Head-Gordon,
 Q-Chem, Version 3.1, Q-Chem, Inc., Pittsburgh, PA (2007).

 Additional authors for Version 3.1: 
 Z. Gan, Y. Zhao, N. E. Schultz, D. Truhlar, E. Epifanovsky and M. Oana.

 Additional authors for Version 3.2: 
 R. Baer, B. R. Brooks, D. Casanova, J.-D. Chai, C.-L. Cheng, 
 C. Cramer, D. Crittenden, A. Ghysels, G. Hawkins, E. G. Hohenstein, 
 C. Kelley, W. Kurlancheek, D. Liotard, E. Livshits, P. Manohar, 
 A. Marenich, D. Neuhauser, R. Olson, M. A. Rohrdanz, K. S. Thanthiriwatte, 
 A. J. W. Thom, V. Vanovschi, C. F. Williams, Q. Wu and Z.-Q. You. 


 Intel X86 Linux Version

 Q-chem begins on Fri Apr 15 16:46:01 2011  

 Parallel job on  1  processors
Processing $rem in /usr/local/qchem/config/preferences.

theFileMan(): MAXOPENFILES=974 MAX_SUB_FILE_NUM=16
Maximum size of a physical file is 2.0 GB, maximum size of a tmp-file is 32.0 GB


--------------------------------------------------------------
User input:
--------------------------------------------------------------

$molecule
1,2
S
C,1,rcs
C,1,rcs,2,a1
C,2,rcdc,1,a2,3,0.,0
C,3,rcdc,1,a2,2,0.,0
H,2,r2h,1,a2h,3,180.,0
H,3,r2h,1,a2h,2,180.,0
H,4,r4h,2,a4h,1,180.,0
H,5,r4h,3,a4h,1,180.,0

rcs=1.7360563
rcdc=1.36739579
r2h=1.08161314
r4h=1.08474673
a1=91.51094962
a2=111.49586594
a2h=120.09583864
a4h=123.32881129

$end

$comment
positive
$end

$xc_functional
   X HF 1.0
   X BNL 1.0
   C LYP 1.0
$end

$rem
SYMMETRY_DECOMPOSITION	0
exchange 		general
BASIS                   g3large
omega			330
separate_jk		true
mem_static              760
max_scf_cycles          200
scf_final_print         1
sym_ignore              true
$end

--------------------------------------------------------------
 Writing REM_CC_EA            9
 ----------------------------------------------------
       Standard Nuclear Orientation (Angstroms)
    I     Atom         X            Y            Z
 ----------------------------------------------------
    1      S       0.000000     0.000000     0.000000
    2      C       0.000000     0.000000     1.736056
    3      C       1.735453     0.000000    -0.045776
    4      C       1.272285     0.000000     2.237117
    5      C       2.269887     0.000000     1.212855
    6      H      -0.935799     0.000000     2.278429
    7      H       2.252962     0.000000    -0.995551
    8      H       1.494722     0.000000     3.298812
    9      H       3.337078     0.000000     1.407219
 ----------------------------------------------------
 Nuclear Repulsion Energy =   201.6744840342 hartrees
 There are       22 alpha and       21 beta electrons
 Requested basis set is G3large
 There are 83 shells and 274 basis functions

Total QAlloc Memory Limit   2000 MB
Mega-Array Size       743 MB
MEM_STATIC part       760 MB

                       Distance Matrix (Angstroms)
             S (  1)   C (  2)   C (  3)   C (  4)   C (  5)   H (  6)
   C (  2)  1.736056
   C (  3)  1.736056  2.487312
   C (  4)  2.573597  1.367396  2.329404
   C (  5)  2.573597  2.329404  1.367396  1.429798
   H (  6)  2.463119  1.081613  3.540835  2.208470  3.378145
   H (  7)  2.463119  3.540835  1.081613  3.378145  2.208470  4.570244
   H (  8)  3.621651  2.162499  3.353241  1.084747  2.225331  2.636022
   H (  9)  3.621651  3.353241  2.162499  2.225331  1.084747  4.360789
             H (  7)   H (  8)
   H (  8)  4.360789
   H (  9)  2.636022  2.640530
 
 A cutoff of  1.0D-08 yielded   3139 shell pairs
 There are  34972 function pairs ( 45281 Cartesian)
Evaluating contribution to one-electron hamiltonian from nuclear
 Smallest overlap matrix eigenvalue = 5.83E-06

 Q-Chem warning in module mkSTV.C, line 194:

 Overlap eigenvalue is smaller than square root of threshold

 Multipole matrices computed through 2nd order

  Scale SEOQF with 1.000000e-01/1.000000e-01/1.000000e-01

 Standard Electronic Orientation quadrupole field applied
 Nucleus-field energy     =    -0.0000000054 hartrees
 Guess from superposition of atomic densities
 Warning:  Energy on first SCF cycle will be non-variational
 An unrestricted hybrid HF-DFT SCF calculation will be
 performed using Pulay DIIS extrapolation
 Exchange:     1.0000 Hartree-Fock + 1.0000 BNL
 Correlation:  1.0000 LYP
 Using SG-1 standard quadrature grid
 SCF converges when DIIS error is below 1.0E-05
 Warning!  Inaccurate integrated density:
   Number of electrons =    43
   Numerical integral  =    44.000436424003
   Relative error      =     2.3265963349 %
 ---------------------------------------
  Cycle       Energy         DIIS Error
 ---------------------------------------
    1    -550.8861228559      2.88E-02
    2    -548.9483177137      2.09E-03
    3    -548.9916146897      1.47E-03
    4    -549.0103717454      3.32E-04
    5    -549.0128055259      1.34E-04
    6    -549.0131867495      4.63E-05
    7    -549.0133156165      2.57E-05
    8    -549.0133538739      1.21E-05
    9    -549.0133689945      5.82E-06 Convergence criterion met
 ---------------------------------------
 One-Electron    Energy = -1146.6159240939
 Total Coulomb   Energy =   440.6282584891
 Alpha Exchange  Energy =    -3.7628702448
 Beta  Exchange  Energy =    -3.5981380813
 DFT   Exchange  Energy =   -35.7827438888
 DFT Correlation Energy =    -1.5564352036
 Nuclear Repu.   Energy =   201.6744840289
 Nuclear Attr.   Energy = -1694.2743437188
 Kinetic         Energy =   547.6584196249
 <S^2> = 0.7656
 SCF time:  CPU 367.21 s  wall 399.36 s
 Final Alpha MO Eigenvalues
            1           2           3           4           5           6
    1 -88.1180450 -10.2397052 -10.2377555 -10.1897503 -10.1842704  -8.0613596
            7           8           9          10          11          12
    1  -6.1135044  -6.1079689  -6.1055863  -1.2367661  -1.0858692  -1.0753035
           13          14          15          16          17          18
    1  -0.9094690  -0.8916953  -0.8529402  -0.7515345  -0.7486336  -0.7287111
           19          20          21          22          23          24
    1  -0.7131979  -0.6646573  -0.6083931  -0.5726620  -0.1916396  -0.1177791
           25          26          27
    1  -0.1102035  -0.1023525  -0.0783588
 Final Beta MO Eigenvalues
            1           2           3           4           5           6
    1 -88.1185394 -10.2321546 -10.2300105 -10.1881498 -10.1836708  -8.0618226
            7           8           9          10          11          12
    1  -6.1140006  -6.1084573  -6.1063711  -1.2264541  -1.0728921  -1.0633699
           13          14          15          16          17          18
    1  -0.9001846  -0.8841047  -0.8497486  -0.7446072  -0.7247552  -0.7085474
           19          20          21          22          23          24
    1  -0.7052622  -0.6628506  -0.5728802  -0.3336242  -0.1548767  -0.1139646
           25          26
    1  -0.1023168  -0.0876313
 Analysis of SCF Wavefunction
 
 --------------------------------------------------------------
                    Orbital Energies (a.u.)
 --------------------------------------------------------------
 
 Alpha MOs
 -- Occupied --
-88.118 -10.240 -10.238 -10.190 -10.184  -8.061  -6.114  -6.108
 -6.106  -1.237  -1.086  -1.075  -0.909  -0.892  -0.853  -0.752
 -0.749  -0.729  -0.713  -0.665  -0.608  -0.573
 -- Virtual --
 -0.192  -0.118  -0.110  -0.102  -0.078  -0.072  -0.069  -0.060
 -0.054  -0.047  -0.017  -0.013  -0.004   0.000   0.007   0.019
  0.029   0.030   0.032   0.039   0.042   0.048   0.049   0.067
  0.074   0.096   0.113   0.119   0.123   0.143   0.147   0.165
  0.188   0.201   0.213   0.234   0.249   0.265   0.294   0.294
  0.308   0.320   0.353   0.380   0.395   0.401   0.406   0.449
  0.454   0.470   0.471   0.484   0.518   0.527   0.540   0.543
  0.562   0.576   0.590   0.606   0.614   0.623   0.641   0.654
  0.679   0.705   0.723   0.742   0.769   0.807   0.817   0.832
  0.854   0.883   0.897   0.923   0.941   0.956   0.994   1.008
  1.014   1.048   1.049   1.104   1.114   1.123   1.134   1.166
  1.184   1.190   1.205   1.236   1.262   1.271   1.295   1.315
  1.330   1.367   1.378   1.388   1.478   1.533   1.570   1.641
  1.672   1.686   1.726   1.756   1.784   2.001   2.153   2.370
  2.410   2.448   2.465   2.498   2.502   2.549   2.567   2.573
  2.585   2.636   2.664   2.684   2.699   2.707   2.727   2.748
  2.768   2.776   2.812   2.854   2.925   2.981   3.002   3.015
  3.033   3.040   3.089   3.099   3.103   3.107   3.173   3.200
  3.212   3.240   3.262   3.265   3.325   3.338   3.381   3.403
  3.438   3.444   3.448   3.449   3.460   3.505   3.527   3.540
  3.566   3.570   3.630   3.634   3.648   3.690   3.723   3.837
  3.887   3.940   3.962   3.977   3.998   4.065   4.075   4.168
  4.246   4.256   4.288   4.321   4.385   4.428   4.464   4.486
  4.582   4.588   4.604   4.735   4.831   4.832   4.899   5.115
  5.145   5.267   5.411   5.483   5.629   5.654   6.085   8.434
 16.822  17.223  17.283  23.317  23.354  23.361  23.506  23.530
 23.655  23.955  24.365  24.633  27.006  27.066  27.195  27.358
 27.733  27.832  27.886  27.972  28.077  28.206  28.330  28.417
 30.675  30.682  30.688  30.689  30.697  30.721  30.723  40.548
 40.581  40.610  40.636  40.708  40.767  40.768  40.838  40.891
 40.900  40.905  40.910  40.947  40.985  40.987  41.000  41.003
 41.080  41.157  41.287 189.527
 
 Beta MOs
 -- Occupied --
-88.119 -10.232 -10.230 -10.188 -10.184  -8.062  -6.114  -6.108
 -6.106  -1.226  -1.073  -1.063  -0.900  -0.884  -0.850  -0.745
 -0.725  -0.709  -0.705  -0.663  -0.573
 -- Virtual --
 -0.334  -0.155  -0.114  -0.102  -0.088  -0.078  -0.072  -0.068
 -0.059  -0.054  -0.047  -0.014  -0.013  -0.003   0.000   0.007
  0.020   0.030   0.030   0.034   0.041   0.043   0.049   0.052
  0.067   0.075   0.097   0.114   0.119   0.122   0.150   0.152
  0.167   0.194   0.201   0.215   0.237   0.251   0.267   0.295
  0.296   0.309   0.325   0.358   0.385   0.403   0.409   0.412
  0.455   0.460   0.475   0.481   0.489   0.520   0.530   0.547
  0.547   0.565   0.585   0.593   0.612   0.618   0.627   0.645
  0.656   0.682   0.715   0.728   0.743   0.773   0.810   0.819
  0.832   0.856   0.884   0.899   0.927   0.942   0.957   0.995
  1.008   1.018   1.051   1.058   1.106   1.115   1.125   1.139
  1.173   1.186   1.193   1.209   1.241   1.272   1.275   1.301
  1.318   1.334   1.370   1.386   1.392   1.479   1.538   1.575
  1.646   1.675   1.687   1.731   1.761   1.790   2.004   2.154
  2.376   2.425   2.451   2.478   2.510   2.516   2.555   2.577
  2.587   2.601   2.660   2.673   2.694   2.715   2.716   2.745
  2.757   2.783   2.790   2.818   2.869   2.939   2.990   3.008
  3.025   3.042   3.050   3.102   3.108   3.111   3.111   3.188
  3.206   3.228   3.250   3.269   3.272   3.341   3.343   3.401
  3.407   3.448   3.448   3.453   3.465   3.469   3.513   3.532
  3.548   3.571   3.575   3.639   3.640   3.656   3.694   3.728
  3.841   3.890   3.951   3.965   3.985   4.003   4.072   4.078
  4.175   4.251   4.259   4.294   4.337   4.390   4.431   4.478
  4.493   4.586   4.590   4.608   4.739   4.833   4.835   4.902
  5.121   5.150   5.269   5.413   5.487   5.632   5.658   6.088
  8.434  16.821  17.222  17.282  23.317  23.353  23.360  23.505
 23.530  23.661  23.963  24.371  24.638  27.015  27.078  27.203
 27.363  27.735  27.837  27.891  27.976  28.080  28.209  28.333
 28.418  30.675  30.682  30.687  30.689  30.696  30.721  30.723
 40.559  40.594  40.616  40.640  40.712  40.770  40.772  40.842
 40.901  40.912  40.917  40.921  40.951  40.987  40.992  41.004
 41.006  41.085  41.160  41.289 189.527
 --------------------------------------------------------------
 
          Ground-State Mulliken Net Atomic Charges

     Atom                 Charge (a.u.)    Spin (a.u.)
  --------------------------------------------------------
      1 S                     0.108772      -0.046763
      2 C                     0.072795       0.455514
      3 C                     0.076702       0.468937
      4 C                    -0.096194       0.104813
      5 C                    -0.114139       0.042438
      6 H                     0.237820      -0.009950
      7 H                     0.237419      -0.010185
      8 H                     0.239632      -0.003077
      9 H                     0.237193      -0.001728
  --------------------------------------------------------
  Sum of atomic charges =     1.000000
  Sum of spin   charges =     1.000000

 -----------------------------------------------------------------
                    Cartesian Multipole Moments
 -----------------------------------------------------------------
    Charge (ESU x 10^10)
                 4.8032
    Dipole Moment (Debye)
         X       5.1369      Y       0.0002      Z       5.0737
       Tot       7.2201
    Quadrupole Moments (Debye-Ang)
        XX     -17.5527     XY       0.0004     YY     -35.9427
        XZ       2.3531     YZ       0.0006     ZZ     -17.2714
    Octapole Moments (Debye-Ang^2)
       XXX     -49.3401    XXY       0.0007    XYY     -32.1559
       YYY       0.0000    XXZ     -15.3943    XYZ       0.0022
       YYZ     -31.2670    XZZ     -15.5554    YZZ       0.0005
       ZZZ     -46.8830
    Hexadecapole Moments (Debye-Ang^3)
      XXXX    -270.5975   XXXY       0.0021   XXYY     -78.1466
      XYYY      -0.0003   YYYY     -40.6325   XXXZ     -60.3371
      XXYZ       0.0041   XYYZ     -34.2388   YYYZ       0.0008
      XXZZ     -86.3803   XYZZ       0.0046   YYZZ     -75.9197
      XZZZ     -59.3301   YZZZ       0.0025   ZZZZ    -260.5203
 -----------------------------------------------------------------
 Total job time:  403.79s(wall), 367.66s(cpu) 
 Fri Apr 15 16:52:45 2011

        *************************************************************
        *                                                           *
        *  Thank you very much for using Q-Chem.  Have a nice day.  *
        *                                                           *
        *************************************************************


0 sent ACK to 0 
now end server 0 ... 
