Process 0 of 1 is on cl185.stfx.acenet.ca - thread support 1
initial socket setup ...start
initial socket setup ...done 
now start server 0 ... 

cmd = /usr/bin/ssh clhead /usr/local/qchem/bin/get_hostid 63560480 > /scratch/tmp/6065306.1.medium.q/qchem796/lic.dat
                  Welcome to Q-Chem
     A Quantum Leap Into The Future Of Chemistry

 Y. Shao, L. Fusti-Molnar, Y. Jung, J. Kussmann, C. Ochsenfeld,
 S. T. Brown, A. T. B. Gilbert, L. V. Slipchenko,S. V. Levchenko,
 D. P. O'Neill, R. A. DiStasio Jr., R. C. Lochan, T. Wang,
 G. J. O. Beran, N. A. Besley, J. M. Herbert, C. Y. Lin,
 T. Van Voorhis, S. H. Chien, A. Sodt, R. P. Steele, 
 V. A. Rassolov, P. E. Maslen, P. P. Korambath, R. D. Adamson,
 B. Austin, J. Baker, E. F. C. Byrd, H. Dachsel, R. J. Doerksen,
 A. Dreuw, B. D. Dunietz, A. D. Dutoi, T. R. Furlani,
 S. R. Gwaltney, A. Heyden, S. Hirata, C.-P. Hsu, G. Kedziora,
 R. Z. Khaliullin, P. Klunzinger, A. M. Lee, M. S. Lee, W. Liang,
 I. Lotan, N. Nair, B. Peters, E. I. Proynov, P. A. Pieniazek, 
 Y. M. Rhee, J. Ritchie, E. Rosta, C. D. Sherrill, 
 A. C. Simmonett, J. E. Subotnik, H. L. Woodcock III,
 W. Zhang, A. T. Bell, A. K. Chakraborty, D. M. Chipman,
 F. J. Keil, A. Warshel, W. J. Hehre, H. F. Schaefer III,
 J. Kong, A. I. Krylov, P. M. W. Gill, M. Head-Gordon,
 Q-Chem, Version 3.1, Q-Chem, Inc., Pittsburgh, PA (2007).

 Additional authors for Version 3.1: 
 Z. Gan, Y. Zhao, N. E. Schultz, D. Truhlar, E. Epifanovsky and M. Oana.

 Additional authors for Version 3.2: 
 R. Baer, B. R. Brooks, D. Casanova, J.-D. Chai, C.-L. Cheng, 
 C. Cramer, D. Crittenden, A. Ghysels, G. Hawkins, E. G. Hohenstein, 
 C. Kelley, W. Kurlancheek, D. Liotard, E. Livshits, P. Manohar, 
 A. Marenich, D. Neuhauser, R. Olson, M. A. Rohrdanz, K. S. Thanthiriwatte, 
 A. J. W. Thom, V. Vanovschi, C. F. Williams, Q. Wu and Z.-Q. You. 


 Intel X86 Linux Version

 Q-chem begins on Mon Jul  8 16:58:49 2013  

 Parallel job on  1  processors
Processing $rem in /usr/local/qchem/config/preferences.

theFileMan(): MAXOPENFILES=974 MAX_SUB_FILE_NUM=16
Maximum size of a physical file is 2.0 GB, maximum size of a tmp-file is 32.0 GB


--------------------------------------------------------------
User input:
--------------------------------------------------------------

$molecule
-1,2
C          0.74096        0.79405        0.00000
S          0.00000       -0.83481        0.00000
C         -0.74096        0.79405        0.00000
H          1.24877        1.08067       -0.91461
H          1.24877        1.08067        0.91461
H         -1.24877        1.08067        0.91461
H         -1.24877        1.08067       -0.91461
$end

$comment
negative
$end

$xc_functional
C PBE   1.00
X wPBE  1.00
$end

$rem
SYMMETRY_DECOMPOSITION	0
exchange 		general
LRC_DFT                 true
BASIS                   g3large
omega			280
mem_static              760
max_scf_cycles          200
scf_final_print         1
sym_ignore              true
$end

--------------------------------------------------------------
 Writing REM_CC_EA            7
 ----------------------------------------------------
       Standard Nuclear Orientation (Angstroms)
    I     Atom         X            Y            Z
 ----------------------------------------------------
    1      C       0.740960     0.794050     0.000000
    2      S       0.000000    -0.834810     0.000000
    3      C      -0.740960     0.794050     0.000000
    4      H       1.248770     1.080670    -0.914610
    5      H       1.248770     1.080670     0.914610
    6      H      -1.248770     1.080670     0.914610
    7      H      -1.248770     1.080670    -0.914610
 ----------------------------------------------------
 Nuclear Repulsion Energy =   102.1883315095 hartrees
 There are       17 alpha and       16 beta electrons
 Requested basis set is G3large
 There are 63 shells and 190 basis functions

Total QAlloc Memory Limit   2000 MB
Mega-Array Size       743 MB
MEM_STATIC part       760 MB

                       Distance Matrix (Angstroms)
             C (  1)   S (  2)   C (  3)   H (  4)   H (  5)   H (  6)
   S (  2)  1.789471
   C (  3)  1.481920  1.789471
   H (  4)  1.084681  2.462722  2.208549
   H (  5)  1.084681  2.462722  2.208549  1.829220
   H (  6)  2.208549  2.462722  1.084681  3.095764  2.497540
   H (  7)  2.208549  2.462722  1.084681  2.497540  3.095764  1.829220

 
 A cutoff of  1.0D-08 yielded   1930 shell pairs
 There are  17755 function pairs ( 22821 Cartesian)
Evaluating contribution to one-electron hamiltonian from nuclear
 Smallest overlap matrix eigenvalue = 7.57E-05

 Q-Chem warning in module mkSTV.C, line 194:

 Overlap eigenvalue is smaller than square root of threshold

 Multipole matrices computed through 2nd order

  Scale SEOQF with 1.000000e-01/1.000000e-01/1.000000e-01

 Standard Electronic Orientation quadrupole field applied
 Nucleus-field energy     =     0.0000000018 hartrees
 Guess from superposition of atomic densities
 Warning:  Energy on first SCF cycle will be non-variational
 Long-range K will be added via erf
 Coulomb attenuation parameter = 0.28 bohr**(-1)
 An unrestricted Kohn-Sham SCF calculation will be
 performed using Pulay DIIS extrapolation
 Exchange:  wPBE + LR-HF      Correlation:  PBE
 Using SG-1 standard quadrature grid
 SCF converges when DIIS error is below 1.0E-05
 Requested basis set is G3large
 There are 63 shells and 190 basis functions
 A cutoff of  1.0D-08 yielded   1930 shell pairs
 There are  17755 function pairs ( 22821 Cartesian)
 Warning!  Inaccurate integrated density:
   Number of electrons =    33
   Numerical integral  =    32.000168574254
   Relative error      =    -3.0297921992 %
 ---------------------------------------
  Cycle       Energy         DIIS Error
 ---------------------------------------
    1    -477.3302478511      3.20E-02
    2    -476.4296886827      3.91E-03
    3    -476.4634553242      4.40E-03
    4    -476.5526298907      5.47E-04
    5    -476.5567815154      3.54E-04
    6    -476.5597262091      2.28E-04
    7    -476.5616546034      1.52E-04
    8    -476.5637085552      8.17E-05
    9    -476.5647117481      3.76E-05
   10    -476.5650863264      3.79E-05
   11    -476.5651857158      3.81E-05
   12    -476.5649161619      3.55E-05
   13    -476.5644938590      1.68E-05
   14    -476.5644653299      1.28E-05
   15    -476.5644551679      2.65E-06 Convergence criterion met
 ---------------------------------------
 One-Electron    Energy =  -862.1819798167
 Total Coulomb   Energy =   321.3492387795
 Alpha Exchange  Energy =    -2.4313774877
 Beta  Exchange  Energy =    -2.3687420690
 DFT   Exchange  Energy =   -31.9722822857
 DFT Correlation Energy =    -1.1476437994
 Nuclear Repu.   Energy =   102.1883315112
 Nuclear Attr.   Energy = -1338.0060424611
 Kinetic         Energy =   475.8240626444
 <S^2> = 0.7505
 SCF time:  CPU 221.73 s  wall 223.52 s
 Final Alpha MO Eigenvalues
            1           2           3           4           5           6
    1 -88.0479237  -9.9330044  -9.9328583  -7.6823502  -5.7018750  -5.6993806
            7           8           9          10          11          12
    1  -5.6914470  -0.8223955  -0.5734920  -0.5712289  -0.4496160  -0.4034766
           13          14          15          16          17          18
    1  -0.3316820  -0.2745443  -0.2727578  -0.1807402   0.0400128   0.1266387
           19          20          21          22
    1   0.1518891   0.1682944   0.1780814   0.1917937
 Final Beta MO Eigenvalues
            1           2           3           4           5           6
    1 -88.0478873  -9.9321889  -9.9320412  -7.6822882  -5.7018977  -5.6991061
            7           8           9          10          11          12
    1  -5.6914587  -0.8209837  -0.5711982  -0.5702773  -0.4487456  -0.4015501
           13          14          15          16          17          18
    1  -0.3305585  -0.2721763  -0.2691028  -0.1802720   0.1453316   0.1504667
           19          20          21
    1   0.1568907   0.1803415   0.1810559
 Analysis of SCF Wavefunction
 
 --------------------------------------------------------------
                    Orbital Energies (a.u.)
 --------------------------------------------------------------
 
 Alpha MOs
 -- Occupied --
-88.048  -9.933  -9.933  -7.682  -5.702  -5.699  -5.691  -0.822
 -0.573  -0.571  -0.450  -0.403  -0.332  -0.275  -0.273  -0.181
  0.040
 -- Virtual --
  0.127   0.152   0.168   0.178   0.192   0.229   0.231   0.236
  0.237   0.268   0.280   0.291   0.302   0.305   0.306   0.312
  0.334   0.363   0.401   0.416   0.443   0.465   0.506   0.516
  0.542   0.542   0.562   0.607   0.612   0.645   0.664   0.688
  0.751   0.758   0.771   0.774   0.792   0.795   0.816   0.847
  0.890   0.948   0.998   1.008   1.073   1.079   1.097   1.100
  1.140   1.189   1.195   1.202   1.221   1.231   1.271   1.282
  1.347   1.384   1.409   1.422   1.455   1.463   1.494   1.518
  1.524   1.560   1.562   1.589   1.627   1.644   1.667   1.683
  1.717   1.723   1.755   1.798   1.828   2.119   2.323   2.385
  2.692   2.698   2.867   2.869   2.978   3.013   3.021   3.072
  3.107   3.170   3.240   3.242   3.288   3.317   3.323   3.336
  3.352   3.462   3.521   3.560   3.574   3.591   3.610   3.709
  3.721   3.747   3.766   3.842   3.857   3.859   3.864   3.952
  3.998   4.029   4.173   4.180   4.195   4.285   4.377   4.407
  4.411   4.429   4.503   4.506   4.621   4.714   4.719   4.835
  4.877   4.997   5.167   5.284   5.317   5.521   5.581   5.749
  5.806   5.846   8.605  17.252  17.457  17.620  23.555  23.670
 23.715  23.749  23.820  24.165  24.348  27.548  27.861  28.090
 28.159  28.218  28.529  30.996  30.997  31.003  31.009  31.014
 31.024  31.048  40.949  41.015  41.035  41.135  41.222  41.237
 41.244  41.246  41.324  41.343 189.149
 
 Beta MOs
 -- Occupied --
-88.048  -9.932  -9.932  -7.682  -5.702  -5.699  -5.691  -0.821
 -0.571  -0.570  -0.449  -0.402  -0.331  -0.272  -0.269  -0.180
 -- Virtual --
  0.145   0.150   0.157   0.180   0.181   0.207   0.234   0.236
  0.236   0.238   0.267   0.281   0.294   0.304   0.306   0.306
  0.316   0.334   0.364   0.402   0.418   0.443   0.463   0.506
  0.517   0.542   0.542   0.563   0.609   0.613   0.645   0.664
  0.688   0.750   0.759   0.774   0.774   0.792   0.793   0.816
  0.849   0.891   0.949   1.000   1.009   1.075   1.080   1.098
  1.101   1.140   1.191   1.196   1.203   1.222   1.232   1.273
  1.283   1.347   1.386   1.410   1.422   1.457   1.464   1.495
  1.519   1.526   1.562   1.564   1.591   1.628   1.645   1.668
  1.685   1.719   1.725   1.756   1.799   1.829   2.119   2.324
  2.386   2.693   2.699   2.868   2.869   2.979   3.014   3.022
  3.075   3.107   3.171   3.242   3.243   3.290   3.318   3.324
  3.337   3.353   3.463   3.524   3.561   3.576   3.593   3.612
  3.711   3.722   3.748   3.768   3.842   3.859   3.861   3.865
  3.954   3.999   4.030   4.173   4.182   4.196   4.286   4.377
  4.408   4.412   4.429   4.504   4.508   4.622   4.714   4.719
  4.835   4.878   4.998   5.167   5.285   5.318   5.523   5.582
  5.750   5.807   5.847   8.606  17.252  17.457  17.620  23.555
 23.670  23.715  23.749  23.820  24.166  24.349  27.549  27.862
 28.091  28.160  28.219  28.530  30.996  30.997  31.003  31.009
 31.014  31.024  31.048  40.950  41.015  41.035  41.136  41.223
 41.237  41.245  41.247  41.324  41.344 189.149
 --------------------------------------------------------------
 
          Ground-State Mulliken Net Atomic Charges

     Atom                 Charge (a.u.)    Spin (a.u.)
  --------------------------------------------------------
      1 C                     1.044651      -1.025387
      2 S                    -0.799761       0.438585
      3 C                     1.038884      -1.019361
      4 H                    -0.572201       0.652801
      5 H                    -0.571329       0.651926
      6 H                    -0.570923       0.651537
      7 H                    -0.569321       0.649899
  --------------------------------------------------------
  Sum of atomic charges =    -1.000000
  Sum of spin   charges =     1.000000

 -----------------------------------------------------------------
                    Cartesian Multipole Moments
 -----------------------------------------------------------------
    Charge (ESU x 10^10)
                -4.8032
    Dipole Moment (Debye)
         X      -0.0081      Y      -2.2559      Z      -0.0015
       Tot       2.2559
    Quadrupole Moments (Debye-Ang)
        XX     -72.1135     XY       0.0075     YY     -47.8459
        XZ       0.0196     YZ      -0.0026     ZZ     -45.7273
    Octapole Moments (Debye-Ang^2)
       XXX      -0.0820    XXY     -50.6169    XYY      -0.0314
       YYY     -46.4758    XXZ      -0.0179    XYZ       0.0237
       YYZ      -0.0078    XZZ      -0.0495    YZZ     -17.1186
       ZZZ      -0.0179
    Hexadecapole Moments (Debye-Ang^3)
      XXXX    -852.8290   XXXY       0.0343   XXYY    -237.5928
      XYYY       0.0549   YYYY    -376.0135   XXXZ       0.2113
      XXYZ      -0.0236   XYYZ       0.0821   YYYZ      -0.0234
      XXZZ    -199.7614   XYZZ      -0.0126   YYZZ    -112.3233
      XZZZ       0.1851   YZZZ      -0.0242   ZZZZ    -249.2218
 -----------------------------------------------------------------
 Total job time:  223.77s(wall), 221.97s(cpu) 
 Mon Jul  8 17:02:32 2013

        *************************************************************
        *                                                           *
        *  Thank you very much for using Q-Chem.  Have a nice day.  *
        *                                                           *
        *************************************************************


0 sent ACK to 0 
now end server 0 ... 
 
**********************************************************************
Job 2 of 3 
**********************************************************************
 
Process 0 of 1 is on cl185.stfx.acenet.ca - thread support 1
initial socket setup ...start
initial socket setup ...done 
now start server 0 ... 

cmd = /usr/bin/ssh clhead /usr/local/qchem/bin/get_hostid 819153778 > /scratch/tmp/6065306.1.medium.q/qchem796/lic.dat
                  Welcome to Q-Chem
     A Quantum Leap Into The Future Of Chemistry

 Y. Shao, L. Fusti-Molnar, Y. Jung, J. Kussmann, C. Ochsenfeld,
 S. T. Brown, A. T. B. Gilbert, L. V. Slipchenko,S. V. Levchenko,
 D. P. O'Neill, R. A. DiStasio Jr., R. C. Lochan, T. Wang,
 G. J. O. Beran, N. A. Besley, J. M. Herbert, C. Y. Lin,
 T. Van Voorhis, S. H. Chien, A. Sodt, R. P. Steele, 
 V. A. Rassolov, P. E. Maslen, P. P. Korambath, R. D. Adamson,
 B. Austin, J. Baker, E. F. C. Byrd, H. Dachsel, R. J. Doerksen,
 A. Dreuw, B. D. Dunietz, A. D. Dutoi, T. R. Furlani,
 S. R. Gwaltney, A. Heyden, S. Hirata, C.-P. Hsu, G. Kedziora,
 R. Z. Khaliullin, P. Klunzinger, A. M. Lee, M. S. Lee, W. Liang,
 I. Lotan, N. Nair, B. Peters, E. I. Proynov, P. A. Pieniazek, 
 Y. M. Rhee, J. Ritchie, E. Rosta, C. D. Sherrill, 
 A. C. Simmonett, J. E. Subotnik, H. L. Woodcock III,
 W. Zhang, A. T. Bell, A. K. Chakraborty, D. M. Chipman,
 F. J. Keil, A. Warshel, W. J. Hehre, H. F. Schaefer III,
 J. Kong, A. I. Krylov, P. M. W. Gill, M. Head-Gordon,
 Q-Chem, Version 3.1, Q-Chem, Inc., Pittsburgh, PA (2007).

 Additional authors for Version 3.1: 
 Z. Gan, Y. Zhao, N. E. Schultz, D. Truhlar, E. Epifanovsky and M. Oana.

 Additional authors for Version 3.2: 
 R. Baer, B. R. Brooks, D. Casanova, J.-D. Chai, C.-L. Cheng, 
 C. Cramer, D. Crittenden, A. Ghysels, G. Hawkins, E. G. Hohenstein, 
 C. Kelley, W. Kurlancheek, D. Liotard, E. Livshits, P. Manohar, 
 A. Marenich, D. Neuhauser, R. Olson, M. A. Rohrdanz, K. S. Thanthiriwatte, 
 A. J. W. Thom, V. Vanovschi, C. F. Williams, Q. Wu and Z.-Q. You. 


 Intel X86 Linux Version

 Q-chem begins on Mon Jul  8 17:02:35 2013  

 Parallel job on  1  processors
Processing $rem in /usr/local/qchem/config/preferences.

theFileMan(): MAXOPENFILES=974 MAX_SUB_FILE_NUM=16
Maximum size of a physical file is 2.0 GB, maximum size of a tmp-file is 32.0 GB


--------------------------------------------------------------
User input:
--------------------------------------------------------------

$molecule
0,1
C          0.74096        0.79405        0.00000
S          0.00000       -0.83481        0.00000
C         -0.74096        0.79405        0.00000
H          1.24877        1.08067       -0.91461
H          1.24877        1.08067        0.91461
H         -1.24877        1.08067        0.91461
H         -1.24877        1.08067       -0.91461
$end

$comment
neutral
$end

$xc_functional
C PBE   1.00
X wPBE  1.00
$end


$rem
SYMMETRY_DECOMPOSITION	0
LRC_DFT                 true
exchange 		general
BASIS                   g3large
omega			280
mem_static              760
max_scf_cycles          200
scf_final_print         1
sym_ignore              true
$end

--------------------------------------------------------------
 Writing REM_CC_EA            7
 ----------------------------------------------------
       Standard Nuclear Orientation (Angstroms)
    I     Atom         X            Y            Z
 ----------------------------------------------------
    1      C       0.740960     0.794050     0.000000
    2      S       0.000000    -0.834810     0.000000
    3      C      -0.740960     0.794050     0.000000
    4      H       1.248770     1.080670    -0.914610
    5      H       1.248770     1.080670     0.914610
    6      H      -1.248770     1.080670     0.914610
    7      H      -1.248770     1.080670    -0.914610
 ----------------------------------------------------
 Nuclear Repulsion Energy =   102.1883315095 hartrees
 There are       16 alpha and       16 beta electrons
 Requested basis set is G3large
 There are 63 shells and 190 basis functions

Total QAlloc Memory Limit   2000 MB
Mega-Array Size       743 MB
MEM_STATIC part       760 MB

                       Distance Matrix (Angstroms)
             C (  1)   S (  2)   C (  3)   H (  4)   H (  5)   H (  6)
   S (  2)  1.789471
   C (  3)  1.481920  1.789471
   H (  4)  1.084681  2.462722  2.208549
   H (  5)  1.084681  2.462722  2.208549  1.829220
   H (  6)  2.208549  2.462722  1.084681  3.095764  2.497540
   H (  7)  2.208549  2.462722  1.084681  2.497540  3.095764  1.829220

 
 A cutoff of  1.0D-08 yielded   1930 shell pairs
 There are  17755 function pairs ( 22821 Cartesian)
Evaluating contribution to one-electron hamiltonian from nuclear
 Smallest overlap matrix eigenvalue = 7.57E-05

 Q-Chem warning in module mkSTV.C, line 194:

 Overlap eigenvalue is smaller than square root of threshold

 Multipole matrices computed through 2nd order

  Scale SEOQF with 1.000000e-01/1.000000e-01/1.000000e-01

 Standard Electronic Orientation quadrupole field applied
 Nucleus-field energy     =     0.0000000018 hartrees
 Guess from superposition of atomic densities
 Warning:  Energy on first SCF cycle will be non-variational
 Long-range K will be added via erf
 Coulomb attenuation parameter = 0.28 bohr**(-1)
 A restricted Kohn-Sham SCF calculation will be
 performed using Pulay DIIS extrapolation
 Exchange:  wPBE + LR-HF      Correlation:  PBE
 Using SG-1 standard quadrature grid
 SCF converges when DIIS error is below 1.0E-05
 Requested basis set is G3large
 There are 63 shells and 190 basis functions
 A cutoff of  1.0D-08 yielded   1930 shell pairs
 There are  17755 function pairs ( 22821 Cartesian)
 ---------------------------------------
  Cycle       Energy         DIIS Error
 ---------------------------------------
    1    -477.3302478511      3.20E-02
    2    -476.5751966703      2.34E-03
    3    -476.5987056149      1.40E-03
    4    -476.6060611119      4.07E-04
    5    -476.6068835482      1.25E-04
    6    -476.6069888056      4.14E-05
    7    -476.6070011453      1.39E-05
    8    -476.6070025560      5.78E-06 Convergence criterion met
 ---------------------------------------
 One-Electron    Energy =  -857.7064951589
 Total Coulomb   Energy =   316.7448078226
 Alpha Exchange  Energy =    -2.3701251896
 Beta  Exchange  Energy =    -2.3701251896
 DFT   Exchange  Energy =   -31.9544533655
 DFT Correlation Energy =    -1.1389429863
 Nuclear Repu.   Energy =   102.1883315112
 Nuclear Attr.   Energy = -1333.4371628843
 Kinetic         Energy =   475.7306677254
 SCF time:  CPU 90.91 s  wall 91.68 s
 Final Alpha MO Eigenvalues
            1           2           3           4           5           6
    1 -88.1873526 -10.0783924 -10.0782238  -7.8224915  -5.8420303  -5.8397820
            7           8           9          10          11          12
    1  -5.8311036  -0.9640965  -0.7153825  -0.7117148  -0.5908655  -0.5444992
           13          14          15          16          17          18
    1  -0.4734024  -0.4145073  -0.4125798  -0.3187491   0.0402161   0.0465938
           19          20          21
    1   0.0552444   0.0730218   0.0839795
 Analysis of SCF Wavefunction
 
 --------------------------------------------------------------
                    Orbital Energies (a.u.)
 --------------------------------------------------------------
 
 Alpha MOs
 -- Occupied --
-88.187 -10.078 -10.078  -7.822  -5.842  -5.840  -5.831  -0.964
 -0.715  -0.712  -0.591  -0.544  -0.473  -0.415  -0.413  -0.319
 -- Virtual --
  0.040   0.047   0.055   0.073   0.084   0.085   0.122   0.124
  0.129   0.132   0.164   0.164   0.185   0.185   0.191   0.196
  0.197   0.206   0.233   0.272   0.286   0.312   0.337   0.373
  0.387   0.414   0.415   0.438   0.477   0.483   0.510   0.533
  0.559   0.620   0.624   0.638   0.641   0.659   0.660   0.682
  0.710   0.754   0.811   0.861   0.870   0.935   0.943   0.959
  0.963   1.003   1.054   1.058   1.065   1.087   1.094   1.133
  1.145   1.209   1.246   1.274   1.283   1.318   1.325   1.356
  1.383   1.384   1.423   1.425   1.452   1.489   1.504   1.531
  1.545   1.580   1.586   1.618   1.661   1.688   1.982   2.184
  2.247   2.551   2.558   2.725   2.729   2.836   2.873   2.881
  2.931   2.966   3.028   3.099   3.101   3.148   3.176   3.181
  3.195   3.210   3.321   3.380   3.419   3.433   3.449   3.470
  3.569   3.581   3.605   3.626   3.702   3.716   3.718   3.723
  3.812   3.857   3.887   4.031   4.039   4.054   4.143   4.235
  4.265   4.269   4.287   4.361   4.364   4.479   4.572   4.577
  4.694   4.737   4.854   5.026   5.141   5.176   5.380   5.440
  5.607   5.664   5.704   8.466  17.112  17.317  17.481  23.415
 23.530  23.575  23.609  23.679  24.020  24.203  27.403  27.716
 27.945  28.014  28.073  28.384  30.856  30.857  30.862  30.869
 30.874  30.884  30.907  40.804  40.870  40.890  40.990  41.077
 41.092  41.099  41.101  41.178  41.198 189.010
 --------------------------------------------------------------
 
          Ground-State Mulliken Net Atomic Charges

     Atom                 Charge (a.u.)
  ----------------------------------------
      1 C                    -0.007224
      2 S                    -0.327141
      3 C                    -0.006553
      4 H                     0.085255
      5 H                     0.085260
      6 H                     0.085199
      7 H                     0.085205
  ----------------------------------------
  Sum of atomic charges =     0.000000

 -----------------------------------------------------------------
                    Cartesian Multipole Moments
 -----------------------------------------------------------------
    Charge (ESU x 10^10)
                 0.0000
    Dipole Moment (Debye)
         X      -0.0005      Y       1.8591      Z       0.0000
       Tot       1.8591
    Quadrupole Moments (Debye-Ang)
        XX     -24.4394     XY       0.0000     YY     -26.2714
        XZ       0.0001     YZ       0.0000     ZZ     -26.1607
    Octapole Moments (Debye-Ang^2)
       XXX      -0.0004    XXY       1.3493    XYY      -0.0011
       YYY      -3.0895    XXZ       0.0001    XYZ      -0.0006
       YYZ       0.0004    XZZ       0.0001    YZZ       3.5748
       ZZZ       0.0001
    Hexadecapole Moments (Debye-Ang^3)
      XXXX     -90.5256   XXXY       0.0008   XXYY     -36.7771
      XYYY      -0.0002   YYYY    -146.5189   XXXZ       0.0001
      XXYZ       0.0000   XYYZ       0.0003   YYYZ      -0.0004
      XXZZ     -19.9128   XYZZ       0.0002   YYZZ     -32.6709
      XZZZ       0.0002   YZZZ      -0.0001   ZZZZ     -47.2826
 -----------------------------------------------------------------
 Total job time:  91.90s(wall), 91.12s(cpu) 
 Mon Jul  8 17:04:07 2013

        *************************************************************
        *                                                           *
        *  Thank you very much for using Q-Chem.  Have a nice day.  *
        *                                                           *
        *************************************************************


0 sent ACK to 0 
now end server 0 ... 
 
**********************************************************************
Job 3 of 3 
**********************************************************************
 
Process 0 of 1 is on cl185.stfx.acenet.ca - thread support 1
initial socket setup ...start
initial socket setup ...done 
now start server 0 ... 

cmd = /usr/bin/ssh clhead /usr/local/qchem/bin/get_hostid 1993411965 > /scratch/tmp/6065306.1.medium.q/qchem796/lic.dat
                  Welcome to Q-Chem
     A Quantum Leap Into The Future Of Chemistry

 Y. Shao, L. Fusti-Molnar, Y. Jung, J. Kussmann, C. Ochsenfeld,
 S. T. Brown, A. T. B. Gilbert, L. V. Slipchenko,S. V. Levchenko,
 D. P. O'Neill, R. A. DiStasio Jr., R. C. Lochan, T. Wang,
 G. J. O. Beran, N. A. Besley, J. M. Herbert, C. Y. Lin,
 T. Van Voorhis, S. H. Chien, A. Sodt, R. P. Steele, 
 V. A. Rassolov, P. E. Maslen, P. P. Korambath, R. D. Adamson,
 B. Austin, J. Baker, E. F. C. Byrd, H. Dachsel, R. J. Doerksen,
 A. Dreuw, B. D. Dunietz, A. D. Dutoi, T. R. Furlani,
 S. R. Gwaltney, A. Heyden, S. Hirata, C.-P. Hsu, G. Kedziora,
 R. Z. Khaliullin, P. Klunzinger, A. M. Lee, M. S. Lee, W. Liang,
 I. Lotan, N. Nair, B. Peters, E. I. Proynov, P. A. Pieniazek, 
 Y. M. Rhee, J. Ritchie, E. Rosta, C. D. Sherrill, 
 A. C. Simmonett, J. E. Subotnik, H. L. Woodcock III,
 W. Zhang, A. T. Bell, A. K. Chakraborty, D. M. Chipman,
 F. J. Keil, A. Warshel, W. J. Hehre, H. F. Schaefer III,
 J. Kong, A. I. Krylov, P. M. W. Gill, M. Head-Gordon,
 Q-Chem, Version 3.1, Q-Chem, Inc., Pittsburgh, PA (2007).

 Additional authors for Version 3.1: 
 Z. Gan, Y. Zhao, N. E. Schultz, D. Truhlar, E. Epifanovsky and M. Oana.

 Additional authors for Version 3.2: 
 R. Baer, B. R. Brooks, D. Casanova, J.-D. Chai, C.-L. Cheng, 
 C. Cramer, D. Crittenden, A. Ghysels, G. Hawkins, E. G. Hohenstein, 
 C. Kelley, W. Kurlancheek, D. Liotard, E. Livshits, P. Manohar, 
 A. Marenich, D. Neuhauser, R. Olson, M. A. Rohrdanz, K. S. Thanthiriwatte, 
 A. J. W. Thom, V. Vanovschi, C. F. Williams, Q. Wu and Z.-Q. You. 


 Intel X86 Linux Version

 Q-chem begins on Mon Jul  8 17:04:10 2013  

 Parallel job on  1  processors
Processing $rem in /usr/local/qchem/config/preferences.

theFileMan(): MAXOPENFILES=974 MAX_SUB_FILE_NUM=16
Maximum size of a physical file is 2.0 GB, maximum size of a tmp-file is 32.0 GB


--------------------------------------------------------------
User input:
--------------------------------------------------------------

$molecule
1,2
C          0.74096        0.79405        0.00000
S          0.00000       -0.83481        0.00000
C         -0.74096        0.79405        0.00000
H          1.24877        1.08067       -0.91461
H          1.24877        1.08067        0.91461
H         -1.24877        1.08067        0.91461
H         -1.24877        1.08067       -0.91461
$end

$comment
positive
$end

$xc_functional
C PBE   1.00
X wPBE  1.00
$end

$rem
SYMMETRY_DECOMPOSITION	0
LRC_DFT                 true
exchange 		general
BASIS                   g3large
omega			280
mem_static              760
max_scf_cycles          200
scf_final_print         1
sym_ignore              true
$end

--------------------------------------------------------------
 Writing REM_CC_EA            7
 ----------------------------------------------------
       Standard Nuclear Orientation (Angstroms)
    I     Atom         X            Y            Z
 ----------------------------------------------------
    1      C       0.740960     0.794050     0.000000
    2      S       0.000000    -0.834810     0.000000
    3      C      -0.740960     0.794050     0.000000
    4      H       1.248770     1.080670    -0.914610
    5      H       1.248770     1.080670     0.914610
    6      H      -1.248770     1.080670     0.914610
    7      H      -1.248770     1.080670    -0.914610
 ----------------------------------------------------
 Nuclear Repulsion Energy =   102.1883315095 hartrees
 There are       16 alpha and       15 beta electrons
 Requested basis set is G3large
 There are 63 shells and 190 basis functions

Total QAlloc Memory Limit   2000 MB
Mega-Array Size       743 MB
MEM_STATIC part       760 MB

                       Distance Matrix (Angstroms)
             C (  1)   S (  2)   C (  3)   H (  4)   H (  5)   H (  6)
   S (  2)  1.789471
   C (  3)  1.481920  1.789471
   H (  4)  1.084681  2.462722  2.208549
   H (  5)  1.084681  2.462722  2.208549  1.829220
   H (  6)  2.208549  2.462722  1.084681  3.095764  2.497540
   H (  7)  2.208549  2.462722  1.084681  2.497540  3.095764  1.829220

 
 A cutoff of  1.0D-08 yielded   1930 shell pairs
 There are  17755 function pairs ( 22821 Cartesian)
Evaluating contribution to one-electron hamiltonian from nuclear
 Smallest overlap matrix eigenvalue = 7.57E-05

 Q-Chem warning in module mkSTV.C, line 194:

 Overlap eigenvalue is smaller than square root of threshold

 Multipole matrices computed through 2nd order

  Scale SEOQF with 1.000000e-01/1.000000e-01/1.000000e-01

 Standard Electronic Orientation quadrupole field applied
 Nucleus-field energy     =     0.0000000018 hartrees
 Guess from superposition of atomic densities
 Warning:  Energy on first SCF cycle will be non-variational
 Long-range K will be added via erf
 Coulomb attenuation parameter = 0.28 bohr**(-1)
 An unrestricted Kohn-Sham SCF calculation will be
 performed using Pulay DIIS extrapolation
 Exchange:  wPBE + LR-HF      Correlation:  PBE
 Using SG-1 standard quadrature grid
 SCF converges when DIIS error is below 1.0E-05
 Requested basis set is G3large
 There are 63 shells and 190 basis functions
 A cutoff of  1.0D-08 yielded   1930 shell pairs
 There are  17755 function pairs ( 22821 Cartesian)
 Warning!  Inaccurate integrated density:
   Number of electrons =    31
   Numerical integral  =    32.000168574254
   Relative error      =     3.2263502395 %
 ---------------------------------------
  Cycle       Energy         DIIS Error
 ---------------------------------------
    1    -477.3302478511      3.20E-02
    2    -476.2167914952      3.03E-03
    3    -476.2533146016      2.25E-03
    4    -476.2739136127      4.31E-04
    5    -476.2750750543      1.96E-04
    6    -476.2753320209      4.76E-05
    7    -476.2753812246      1.64E-05
    8    -476.2753883340      9.64E-06 Convergence criterion met
 ---------------------------------------
 One-Electron    Energy =  -848.5760036896
 Total Coulomb   Energy =   307.6441662213
 Alpha Exchange  Energy =    -2.3786225880
 Beta  Exchange  Energy =    -2.2325686297
 DFT   Exchange  Energy =   -31.8205604324
 DFT Correlation Energy =    -1.1001307268
 Nuclear Repu.   Energy =   102.1883315112
 Nuclear Attr.   Energy = -1324.0105331223
 Kinetic         Energy =   475.4345294327
 <S^2> = 0.7555
 SCF time:  CPU 111.55 s  wall 112.68 s
 Final Alpha MO Eigenvalues
            1           2           3           4           5           6
    1 -88.5377911 -10.3243796 -10.3241977  -8.1675360  -6.1905868  -6.1825024
            7           8           9          10          11          12
    1  -6.1795972  -1.2466294  -0.9973402  -0.9577714  -0.8443304  -0.8041958
           13          14          15          16          17          18
    1  -0.7101123  -0.6924436  -0.6763875  -0.6539374  -0.1788346  -0.1349609
           19          20          21
    1  -0.1068422  -0.0917085  -0.0793675
 Final Beta MO Eigenvalues
            1           2           3           4           5           6
    1 -88.5326640 -10.3245624 -10.3243811  -8.1627537  -6.1798880  -6.1767224
            7           8           9          10          11          12
    1  -6.1759090  -1.2326060  -0.9692850  -0.9557964  -0.8271562  -0.7964405
           13          14          15          16          17          18
    1  -0.7042217  -0.6825898  -0.6720851  -0.3414078  -0.1748487  -0.1199971
           19          20
    1  -0.1043686  -0.0883940
 Analysis of SCF Wavefunction
 
 --------------------------------------------------------------
                    Orbital Energies (a.u.)
 --------------------------------------------------------------
 
 Alpha MOs
 -- Occupied --
-88.538 -10.324 -10.324  -8.168  -6.191  -6.183  -6.180  -1.247
 -0.997  -0.958  -0.844  -0.804  -0.710  -0.692  -0.676  -0.654
 -- Virtual --
 -0.179  -0.135  -0.107  -0.092  -0.079  -0.055  -0.036  -0.035
 -0.027  -0.023  -0.022   0.005   0.010   0.017   0.027   0.030
  0.033   0.041   0.050   0.061   0.088   0.110   0.132   0.152
  0.159   0.192   0.202   0.227   0.257   0.263   0.304   0.325
  0.360   0.412   0.414   0.417   0.438   0.456   0.458   0.480
  0.484   0.521   0.567   0.616   0.659   0.677   0.681   0.696
  0.727   0.728   0.783   0.785   0.823   0.850   0.859   0.886
  0.910   0.985   1.010   1.023   1.056   1.063   1.069   1.100
  1.129   1.158   1.193   1.195   1.240   1.256   1.264   1.309
  1.317   1.340   1.359   1.396   1.441   1.457   1.666   1.913
  1.967   2.307   2.320   2.481   2.498   2.592   2.629   2.645
  2.685   2.711   2.776   2.841   2.847   2.885   2.903   2.941
  2.949   2.966   3.075   3.138   3.172   3.184   3.213   3.213
  3.242   3.242   3.351   3.352   3.377   3.435   3.436   3.459
  3.507   3.614   3.648   3.771   3.772   3.815   3.894   3.998
  4.009   4.017   4.057   4.114   4.120   4.228   4.314   4.337
  4.370   4.417   4.613   4.721   4.896   4.902   5.079   5.154
  5.370   5.428   5.465   8.132  16.753  16.979  17.142  23.067
 23.179  23.224  23.271  23.343  23.768  23.957  27.157  27.469
 27.698  27.769  27.827  28.139  30.508  30.509  30.521  30.525
 30.530  30.537  30.571  40.558  40.623  40.644  40.744  40.830
 40.845  40.852  40.855  40.932  40.952 188.661
 
 Beta MOs
 -- Occupied --
-88.533 -10.325 -10.324  -8.163  -6.180  -6.177  -6.176  -1.233
 -0.969  -0.956  -0.827  -0.796  -0.704  -0.683  -0.672
 -- Virtual --
 -0.341  -0.175  -0.120  -0.104  -0.088  -0.079  -0.047  -0.035
 -0.032  -0.026  -0.022  -0.017   0.017   0.017   0.025   0.031
  0.031   0.034   0.046   0.051   0.072   0.096   0.111   0.152
  0.153   0.180   0.206   0.208   0.232   0.266   0.277   0.309
  0.332   0.362   0.414   0.419   0.419   0.442   0.458   0.461
  0.486   0.487   0.527   0.583   0.625   0.662   0.698   0.700
  0.717   0.729   0.756   0.798   0.809   0.835   0.852   0.866
  0.895   0.919   0.996   1.023   1.042   1.061   1.079   1.079
  1.115   1.151   1.159   1.196   1.197   1.243   1.261   1.267
  1.313   1.325   1.348   1.362   1.400   1.444   1.459   1.710
  1.920   1.974   2.308   2.322   2.482   2.502   2.595   2.631
  2.648   2.686   2.718   2.779   2.844   2.853   2.886   2.919
  2.944   2.954   2.968   3.083   3.139   3.179   3.186   3.213
  3.228   3.276   3.290   3.355   3.370   3.419   3.438   3.449
  3.464   3.533   3.618   3.651   3.772   3.776   3.817   3.898
  4.001   4.017   4.020   4.062   4.117   4.122   4.233   4.321
  4.339   4.382   4.431   4.613   4.736   4.900   4.913   5.082
  5.164   5.374   5.432   5.469   8.142  16.779  16.983  17.147
 23.077  23.190  23.234  23.278  23.345  23.768  23.957  27.156
 27.468  27.698  27.769  27.828  28.139  30.513  30.514  30.525
 30.527  30.533  30.541  30.572  40.557  40.622  40.644  40.744
 40.830  40.844  40.851  40.855  40.932  40.952 188.667
 --------------------------------------------------------------
 
          Ground-State Mulliken Net Atomic Charges

     Atom                 Charge (a.u.)    Spin (a.u.)
  --------------------------------------------------------
      1 C                     0.047854      -0.021555
      2 S                     0.305756       0.961491
      3 C                     0.048156      -0.021304
      4 H                     0.149517       0.020201
      5 H                     0.149640       0.020556
      6 H                     0.149509       0.020201
      7 H                     0.149567       0.020411
  --------------------------------------------------------
  Sum of atomic charges =     1.000000
  Sum of spin   charges =     1.000000

 -----------------------------------------------------------------
                    Cartesian Multipole Moments
 -----------------------------------------------------------------
    Charge (ESU x 10^10)
                 4.8032
    Dipole Moment (Debye)
         X      -0.0005      Y       0.9836      Z       0.0012
       Tot       0.9836
    Quadrupole Moments (Debye-Ang)
        XX     -19.0419     XY       0.0003     YY     -17.5939
        XZ       0.0040     YZ      -0.0035     ZZ     -19.8382
    Octapole Moments (Debye-Ang^2)
       XXX      -0.0005    XXY       4.2072    XYY       0.0004
       YYY      -3.5567    XXZ       0.0009    XYZ      -0.0002
       YYZ       0.0039    XZZ       0.0004    YZZ       1.9353
       ZZZ       0.0012
    Hexadecapole Moments (Debye-Ang^3)
      XXXX     -73.1850   XXXY       0.0009   XXYY     -26.4586
      XYYY       0.0009   YYYY    -115.4836   XXXZ       0.0055
      XXYZ      -0.0003   XYYZ       0.0061   YYYZ      -0.0110
      XXZZ     -12.9821   XYZZ       0.0006   YYZZ     -21.6748
      XZZZ       0.0038   YZZZ      -0.0033   ZZZZ     -30.9786
 -----------------------------------------------------------------
 Total job time:  112.91s(wall), 111.77s(cpu) 
 Mon Jul  8 17:06:03 2013

        *************************************************************
        *                                                           *
        *  Thank you very much for using Q-Chem.  Have a nice day.  *
        *                                                           *
        *************************************************************


0 sent ACK to 0 
now end server 0 ... 
