Process 0 of 1 is on cl089.stfx.acenet.ca - thread support 1
initial socket setup ...start
initial socket setup ...done 
now start server 0 ... 

cmd = /usr/bin/ssh clhead /usr/local/qchem/bin/get_hostid 1887090393 > /scratch/tmp/5956370.1.short.q/qchem21540/lic.dat
                  Welcome to Q-Chem
     A Quantum Leap Into The Future Of Chemistry

 Y. Shao, L. Fusti-Molnar, Y. Jung, J. Kussmann, C. Ochsenfeld,
 S. T. Brown, A. T. B. Gilbert, L. V. Slipchenko,S. V. Levchenko,
 D. P. O'Neill, R. A. DiStasio Jr., R. C. Lochan, T. Wang,
 G. J. O. Beran, N. A. Besley, J. M. Herbert, C. Y. Lin,
 T. Van Voorhis, S. H. Chien, A. Sodt, R. P. Steele, 
 V. A. Rassolov, P. E. Maslen, P. P. Korambath, R. D. Adamson,
 B. Austin, J. Baker, E. F. C. Byrd, H. Dachsel, R. J. Doerksen,
 A. Dreuw, B. D. Dunietz, A. D. Dutoi, T. R. Furlani,
 S. R. Gwaltney, A. Heyden, S. Hirata, C.-P. Hsu, G. Kedziora,
 R. Z. Khaliullin, P. Klunzinger, A. M. Lee, M. S. Lee, W. Liang,
 I. Lotan, N. Nair, B. Peters, E. I. Proynov, P. A. Pieniazek, 
 Y. M. Rhee, J. Ritchie, E. Rosta, C. D. Sherrill, 
 A. C. Simmonett, J. E. Subotnik, H. L. Woodcock III,
 W. Zhang, A. T. Bell, A. K. Chakraborty, D. M. Chipman,
 F. J. Keil, A. Warshel, W. J. Hehre, H. F. Schaefer III,
 J. Kong, A. I. Krylov, P. M. W. Gill, M. Head-Gordon,
 Q-Chem, Version 3.1, Q-Chem, Inc., Pittsburgh, PA (2007).

 Additional authors for Version 3.1: 
 Z. Gan, Y. Zhao, N. E. Schultz, D. Truhlar, E. Epifanovsky and M. Oana.

 Additional authors for Version 3.2: 
 R. Baer, B. R. Brooks, D. Casanova, J.-D. Chai, C.-L. Cheng, 
 C. Cramer, D. Crittenden, A. Ghysels, G. Hawkins, E. G. Hohenstein, 
 C. Kelley, W. Kurlancheek, D. Liotard, E. Livshits, P. Manohar, 
 A. Marenich, D. Neuhauser, R. Olson, M. A. Rohrdanz, K. S. Thanthiriwatte, 
 A. J. W. Thom, V. Vanovschi, C. F. Williams, Q. Wu and Z.-Q. You. 


 Intel X86 Linux Version

 Q-chem begins on Tue Apr 30 22:44:04 2013  

 Parallel job on  1  processors
Processing $rem in /usr/local/qchem/config/preferences.

theFileMan(): MAXOPENFILES=974 MAX_SUB_FILE_NUM=16
Maximum size of a physical file is 2.0 GB, maximum size of a tmp-file is 32.0 GB


--------------------------------------------------------------
User input:
--------------------------------------------------------------

$molecule
-1,2
N,0.,0.,1.8539909259
C,0.,0.,0.6902279316
C,0.,0.,-0.6902279316
N,0.,0.,-1.8539909259

$end

$comment
negative
$end

$xc_functional
C PBE   1.00
X wPBE  1.00
$end

$rem
SYMMETRY_DECOMPOSITION	0
exchange 		general
LRC_DFT                 true
BASIS                   g3large
omega			350
mem_static              760
max_scf_cycles          200
scf_final_print         1
sym_ignore              true
$end

--------------------------------------------------------------
 Writing REM_CC_EA            4
 ----------------------------------------------------
       Standard Nuclear Orientation (Angstroms)
    I     Atom         X            Y            Z
 ----------------------------------------------------
    1      N       0.000000     0.000000     1.853991
    2      C       0.000000     0.000000     0.690228
    3      C       0.000000     0.000000    -0.690228
    4      N       0.000000     0.000000    -1.853991
 ----------------------------------------------------
 Nuclear Repulsion Energy =    76.4601538996 hartrees
 There are       14 alpha and       13 beta electrons
 Requested basis set is G3large
 There are 40 shells and 168 basis functions

Total QAlloc Memory Limit   2000 MB
Mega-Array Size       743 MB
MEM_STATIC part       760 MB

                       Distance Matrix (Angstroms)
             N (  1)   C (  2)   C (  3)
   C (  2)  1.163763
   C (  3)  2.544219  1.380456
   N (  4)  3.707982  2.544219  1.163763
 
 A cutoff of  1.0D-08 yielded    714 shell pairs
 There are  12965 function pairs ( 16965 Cartesian)
Evaluating contribution to one-electron hamiltonian from nuclear
 Smallest overlap matrix eigenvalue = 9.55E-06

 Q-Chem warning in module mkSTV.C, line 194:

 Overlap eigenvalue is smaller than square root of threshold

 Multipole matrices computed through 2nd order

  Scale SEOQF with 1.000000e-01/1.000000e-01/1.000000e-01

 Standard Electronic Orientation quadrupole field applied
 Nucleus-field energy     =    -0.0000000058 hartrees
 Guess from superposition of atomic densities
 Warning:  Energy on first SCF cycle will be non-variational
 Long-range K will be added via erf
 Coulomb attenuation parameter = 0.35 bohr**(-1)
 An unrestricted Kohn-Sham SCF calculation will be
 performed using Pulay DIIS extrapolation
 Exchange:  wPBE + LR-HF      Correlation:  PBE
 Using SG-1 standard quadrature grid
 SCF converges when DIIS error is below 1.0E-05
 Requested basis set is G3large
 There are 40 shells and 168 basis functions
 A cutoff of  1.0D-08 yielded    714 shell pairs
 There are  12965 function pairs ( 16965 Cartesian)
 Warning!  Inaccurate integrated density:
   Number of electrons =    27
   Numerical integral  =    26.000074817709
   Relative error      =    -3.7034266011 %
 ---------------------------------------
  Cycle       Energy         DIIS Error
 ---------------------------------------
    1    -186.1991774512      3.63E-02
    2    -185.4011747515      6.45E-03
    3    -185.3423013675      8.67E-03
    4    -185.5554736805      7.45E-04
    5    -185.5581888686      3.04E-04
    6    -185.5589066574      5.56E-05
    7    -185.5589579538      1.51E-05
    8    -185.5589639275      4.38E-06 Convergence criterion met
 ---------------------------------------
 One-Electron    Energy =  -407.8613905596
 Total Coulomb   Energy =   170.4953615876
 Alpha Exchange  Energy =    -2.4960917845
 Beta  Exchange  Energy =    -2.3211069738
 DFT   Exchange  Energy =   -18.9622896918
 DFT Correlation Energy =    -0.8736003992
 Nuclear Repu.   Energy =    76.4601538938
 Nuclear Attr.   Energy =  -593.0100755817
 Kinetic         Energy =   185.1486850221
 <S^2> = 0.7630
 SCF time:  CPU 53.00 s  wall 53.63 s
 Final Alpha MO Eigenvalues
            1           2           3           4           5           6
    1 -13.9592688 -13.9592044  -9.9154497  -9.9149213  -0.8307783  -0.8078898
            7           8           9          10          11          12
    1  -0.5972031  -0.3291329  -0.3156406  -0.2973912  -0.2824284  -0.2458198
           13          14          15          16          17          18
    1  -0.2230732  -0.0116101   0.1946456   0.2050961   0.2315794   0.2592352
           19
    1   0.2605076
 Final Beta MO Eigenvalues
            1           2           3           4           5           6
    1 -13.9524296 -13.9523616  -9.9144032  -9.9139293  -0.8209428  -0.7981572
            7           8           9          10          11          12
    1  -0.5774107  -0.3118258  -0.2942856  -0.2842010  -0.2706745  -0.2180019
           13          14          15          16          17          18
    1  -0.1990691   0.1953099   0.2057002   0.2390773   0.2556205   0.2598039
 Analysis of SCF Wavefunction
 
 --------------------------------------------------------------
                    Orbital Energies (a.u.)
 --------------------------------------------------------------
 
 Alpha MOs
 -- Occupied --
-13.959 -13.959  -9.915  -9.915  -0.831  -0.808  -0.597  -0.329
 -0.316  -0.297  -0.282  -0.246  -0.223  -0.012
 -- Virtual --
  0.195   0.205   0.232   0.259   0.261   0.274   0.277   0.312
  0.320   0.406   0.409   0.413   0.422   0.423   0.424   0.446
  0.489   0.495   0.511   0.560   0.768   0.786   0.786   0.829
  0.830   0.887   0.892   0.915   0.969   1.041   1.041   1.070
  1.093   1.103   1.107   1.108   1.162   1.165   1.209   1.213
  1.214   1.411   1.412   1.449   1.593   1.594   1.610   1.671
  1.672   1.854   1.989   1.990   2.291   2.297   2.327   2.328
  2.357   2.659   2.928   2.929   2.932   2.937   2.937   2.951
  2.952   3.060   3.063   3.167   3.169   3.182   3.183   3.403
  3.404   3.413   3.413   3.468   3.469   3.515   3.515   3.705
  3.705   3.737   3.738   3.929   3.929   3.966   3.966   4.108
  4.112   4.163   4.255   4.258   4.426   4.471   4.472   4.651
  4.838   4.839   4.901   4.950   4.951   5.064   5.065   5.114
  5.115   5.332   5.396   5.399   5.528   5.530   5.960   6.134
  6.135   6.712   7.103   7.104   7.160   8.392  24.640  24.943
 27.514  27.514  27.715  27.716  28.887  30.238  36.243  37.053
 37.638  37.641  37.981  37.983  38.456  38.585  40.642  40.650
 40.740  40.755  40.764  40.834  40.835  40.998  41.009  41.011
 41.012  41.266  41.280  41.290  41.430  41.430  41.497  41.497
 41.771  41.824
 
 Beta MOs
 -- Occupied --
-13.952 -13.952  -9.914  -9.914  -0.821  -0.798  -0.577  -0.312
 -0.294  -0.284  -0.271  -0.218  -0.199
 -- Virtual --
  0.195   0.206   0.239   0.256   0.260   0.268   0.274   0.277
  0.315   0.320   0.414   0.421   0.425   0.425   0.427   0.432
  0.448   0.491   0.515   0.530   0.567   0.778   0.788   0.798
  0.842   0.842   0.887   0.896   0.917   0.973   1.045   1.045
  1.078   1.097   1.111   1.115   1.125   1.170   1.182   1.217
  1.222   1.235   1.433   1.433   1.455   1.610   1.610   1.619
  1.673   1.688   1.860   1.994   2.010   2.295   2.304   2.329
  2.341   2.364   2.671   2.932   2.940   2.945   2.945   2.946
  2.953   2.968   3.062   3.075   3.169   3.181   3.190   3.190
  3.413   3.413   3.417   3.417   3.469   3.481   3.519   3.522
  3.718   3.718   3.739   3.754   3.951   3.951   3.988   3.988
  4.120   4.142   4.171   4.265   4.286   4.436   4.485   4.487
  4.661   4.842   4.860   4.910   4.964   4.964   5.098   5.099
  5.147   5.147   5.339   5.404   5.422   5.533   5.549   5.964
  6.138   6.154   6.717   7.107   7.124   7.166   8.396  24.641
 24.945  27.514  27.519  27.716  27.720  28.888  30.239  36.251
 37.063  37.646  37.658  37.988  38.000  38.460  38.589  40.658
 40.666  40.743  40.772  40.779  40.837  40.848  41.000  41.012
 41.014  41.023  41.269  41.283  41.293  41.430  41.434  41.497
 41.501  41.774  41.825
 --------------------------------------------------------------
 
          Ground-State Mulliken Net Atomic Charges

     Atom                 Charge (a.u.)    Spin (a.u.)
  --------------------------------------------------------
      1 N                    -0.580896       0.378892
      2 C                     0.080900       0.121109
      3 C                     0.080833       0.121100
      4 N                    -0.580838       0.378899
  --------------------------------------------------------
  Sum of atomic charges =    -1.000000
  Sum of spin   charges =     1.000000

 -----------------------------------------------------------------
                    Cartesian Multipole Moments
 -----------------------------------------------------------------
    Charge (ESU x 10^10)
                -4.8032
    Dipole Moment (Debye)
         X       0.0000      Y       0.0000      Z      -0.0003
       Tot       0.0003
    Quadrupole Moments (Debye-Ang)
        XX     -25.0641     XY      -0.9910     YY     -25.0612
        XZ       0.0000     YZ       0.0000     ZZ     -47.9371
    Octapole Moments (Debye-Ang^2)
       XXX       0.0000    XXY       0.0000    XYY       0.0000
       YYY       0.0000    XXZ       0.0001    XYZ       0.0000
       YYZ       0.0001    XZZ       0.0000    YZZ       0.0000
       ZZZ      -0.0010
    Hexadecapole Moments (Debye-Ang^3)
      XXXX     -31.5750   XXXY      -1.5287   XXYY     -10.5235
      XYYY      -1.5287   YYYY     -31.5662   XXXZ      -0.0001
      XXYZ       0.0000   XYYZ       0.0000   YYYZ      -0.0001
      XXZZ     -65.9477   XYZZ      -2.8441   YYZZ     -65.9394
      XZZZ      -0.0004   YZZZ      -0.0002   ZZZZ    -462.6671
 -----------------------------------------------------------------
 Total job time:  53.83s(wall), 53.19s(cpu) 
 Tue Apr 30 22:44:58 2013

        *************************************************************
        *                                                           *
        *  Thank you very much for using Q-Chem.  Have a nice day.  *
        *                                                           *
        *************************************************************


0 sent ACK to 0 
now end server 0 ... 
 
**********************************************************************
Job 2 of 3 
**********************************************************************
 
Process 0 of 1 is on cl089.stfx.acenet.ca - thread support 1
initial socket setup ...start
initial socket setup ...done 
now start server 0 ... 

cmd = /usr/bin/ssh clhead /usr/local/qchem/bin/get_hostid 644892392 > /scratch/tmp/5956370.1.short.q/qchem21540/lic.dat
                  Welcome to Q-Chem
     A Quantum Leap Into The Future Of Chemistry

 Y. Shao, L. Fusti-Molnar, Y. Jung, J. Kussmann, C. Ochsenfeld,
 S. T. Brown, A. T. B. Gilbert, L. V. Slipchenko,S. V. Levchenko,
 D. P. O'Neill, R. A. DiStasio Jr., R. C. Lochan, T. Wang,
 G. J. O. Beran, N. A. Besley, J. M. Herbert, C. Y. Lin,
 T. Van Voorhis, S. H. Chien, A. Sodt, R. P. Steele, 
 V. A. Rassolov, P. E. Maslen, P. P. Korambath, R. D. Adamson,
 B. Austin, J. Baker, E. F. C. Byrd, H. Dachsel, R. J. Doerksen,
 A. Dreuw, B. D. Dunietz, A. D. Dutoi, T. R. Furlani,
 S. R. Gwaltney, A. Heyden, S. Hirata, C.-P. Hsu, G. Kedziora,
 R. Z. Khaliullin, P. Klunzinger, A. M. Lee, M. S. Lee, W. Liang,
 I. Lotan, N. Nair, B. Peters, E. I. Proynov, P. A. Pieniazek, 
 Y. M. Rhee, J. Ritchie, E. Rosta, C. D. Sherrill, 
 A. C. Simmonett, J. E. Subotnik, H. L. Woodcock III,
 W. Zhang, A. T. Bell, A. K. Chakraborty, D. M. Chipman,
 F. J. Keil, A. Warshel, W. J. Hehre, H. F. Schaefer III,
 J. Kong, A. I. Krylov, P. M. W. Gill, M. Head-Gordon,
 Q-Chem, Version 3.1, Q-Chem, Inc., Pittsburgh, PA (2007).

 Additional authors for Version 3.1: 
 Z. Gan, Y. Zhao, N. E. Schultz, D. Truhlar, E. Epifanovsky and M. Oana.

 Additional authors for Version 3.2: 
 R. Baer, B. R. Brooks, D. Casanova, J.-D. Chai, C.-L. Cheng, 
 C. Cramer, D. Crittenden, A. Ghysels, G. Hawkins, E. G. Hohenstein, 
 C. Kelley, W. Kurlancheek, D. Liotard, E. Livshits, P. Manohar, 
 A. Marenich, D. Neuhauser, R. Olson, M. A. Rohrdanz, K. S. Thanthiriwatte, 
 A. J. W. Thom, V. Vanovschi, C. F. Williams, Q. Wu and Z.-Q. You. 


 Intel X86 Linux Version

 Q-chem begins on Tue Apr 30 22:45:00 2013  

 Parallel job on  1  processors
Processing $rem in /usr/local/qchem/config/preferences.

theFileMan(): MAXOPENFILES=974 MAX_SUB_FILE_NUM=16
Maximum size of a physical file is 2.0 GB, maximum size of a tmp-file is 32.0 GB


--------------------------------------------------------------
User input:
--------------------------------------------------------------

$molecule
0,1
N,0.,0.,1.8539909259
C,0.,0.,0.6902279316
C,0.,0.,-0.6902279316
N,0.,0.,-1.8539909259

$end

$comment
neutral
$end

$xc_functional
C PBE   1.00
X wPBE  1.00
$end


$rem
SYMMETRY_DECOMPOSITION	0
LRC_DFT                 true
exchange 		general
BASIS                   g3large
omega			350
mem_static              760
max_scf_cycles          200
scf_final_print         1
sym_ignore              true
$end

--------------------------------------------------------------
 Writing REM_CC_EA            4
 ----------------------------------------------------
       Standard Nuclear Orientation (Angstroms)
    I     Atom         X            Y            Z
 ----------------------------------------------------
    1      N       0.000000     0.000000     1.853991
    2      C       0.000000     0.000000     0.690228
    3      C       0.000000     0.000000    -0.690228
    4      N       0.000000     0.000000    -1.853991
 ----------------------------------------------------
 Nuclear Repulsion Energy =    76.4601538996 hartrees
 There are       13 alpha and       13 beta electrons
 Requested basis set is G3large
 There are 40 shells and 168 basis functions

Total QAlloc Memory Limit   2000 MB
Mega-Array Size       743 MB
MEM_STATIC part       760 MB

                       Distance Matrix (Angstroms)
             N (  1)   C (  2)   C (  3)
   C (  2)  1.163763
   C (  3)  2.544219  1.380456
   N (  4)  3.707982  2.544219  1.163763
 
 A cutoff of  1.0D-08 yielded    714 shell pairs
 There are  12965 function pairs ( 16965 Cartesian)
Evaluating contribution to one-electron hamiltonian from nuclear
 Smallest overlap matrix eigenvalue = 9.55E-06

 Q-Chem warning in module mkSTV.C, line 194:

 Overlap eigenvalue is smaller than square root of threshold

 Multipole matrices computed through 2nd order

  Scale SEOQF with 1.000000e-01/1.000000e-01/1.000000e-01

 Standard Electronic Orientation quadrupole field applied
 Nucleus-field energy     =    -0.0000000058 hartrees
 Guess from superposition of atomic densities
 Warning:  Energy on first SCF cycle will be non-variational
 Long-range K will be added via erf
 Coulomb attenuation parameter = 0.35 bohr**(-1)
 A restricted Kohn-Sham SCF calculation will be
 performed using Pulay DIIS extrapolation
 Exchange:  wPBE + LR-HF      Correlation:  PBE
 Using SG-1 standard quadrature grid
 SCF converges when DIIS error is below 1.0E-05
 Requested basis set is G3large
 There are 40 shells and 168 basis functions
 A cutoff of  1.0D-08 yielded    714 shell pairs
 There are  12965 function pairs ( 16965 Cartesian)
 ---------------------------------------
  Cycle       Energy         DIIS Error
 ---------------------------------------
    1    -186.1991774512      3.63E-02
    2    -185.4324975451      5.50E-03
    3    -185.3061664666      9.29E-03
    4    -185.5425345318      4.59E-04
    5    -185.5445035975      1.42E-04
    6    -185.5448387988      4.10E-05
    7    -185.5448508301      9.35E-06 Convergence criterion met
 ---------------------------------------
 One-Electron    Energy =  -400.8255359044
 Total Coulomb   Energy =   163.1512316128
 Alpha Exchange  Energy =    -2.3336616690
 Beta  Exchange  Energy =    -2.3336616690
 DFT   Exchange  Energy =   -18.8223432269
 DFT Correlation Energy =    -0.8410338675
 Nuclear Repu.   Energy =    76.4601538938
 Nuclear Attr.   Energy =  -585.6605333649
 Kinetic         Energy =   184.8349974606
 SCF time:  CPU 39.35 s  wall 41.14 s
 Final Alpha MO Eigenvalues
            1           2           3           4           5           6
    1 -14.2512184 -14.2511593 -10.1944268 -10.1939425  -1.0997489  -1.0760403
            7           8           9          10          11          12
    1  -0.8716930  -0.5779968  -0.5779723  -0.5502900  -0.5366168  -0.4826066
           13          14          15          16          17          18
    1  -0.4825898  -0.0178770  -0.0178761   0.0480077   0.0749732   0.1002332
 Analysis of SCF Wavefunction
 
 --------------------------------------------------------------
                    Orbital Energies (a.u.)
 --------------------------------------------------------------
 
 Alpha MOs
 -- Occupied --
-14.251 -14.251 -10.194 -10.194  -1.100  -1.076  -0.872  -0.578
 -0.578  -0.550  -0.537  -0.483  -0.483
 -- Virtual --
 -0.018  -0.018   0.048   0.075   0.100   0.100   0.134   0.134
  0.149   0.166   0.203   0.203   0.225   0.252   0.252   0.260
  0.289   0.315   0.320   0.320   0.368   0.544   0.564   0.564
  0.587   0.587   0.668   0.668   0.707   0.755   0.794   0.794
  0.853   0.876   0.890   0.890   0.906   0.953   0.953   0.959
  0.959   0.975   1.175   1.175   1.189   1.355   1.355   1.386
  1.422   1.422   1.620   1.748   1.748   2.052   2.057   2.094
  2.094   2.121   2.401   2.661   2.661   2.665   2.671   2.671
  2.683   2.683   2.798   2.798   2.906   2.906   2.917   2.917
  3.135   3.135   3.150   3.150   3.204   3.204   3.249   3.258
  3.434   3.434   3.469   3.469   3.672   3.672   3.709   3.709
  3.849   3.849   3.894   3.995   3.995   4.166   4.209   4.209
  4.385   4.567   4.567   4.633   4.688   4.688   4.803   4.803
  4.852   4.852   5.072   5.138   5.138   5.271   5.271   5.696
  5.864   5.864   6.441   6.834   6.834   6.885   8.119  24.361
 24.667  27.236  27.236  27.438  27.438  28.608  29.960  35.954
 36.765  37.351  37.351  37.693  37.693  38.165  38.294  40.353
 40.361  40.453  40.466  40.474  40.545  40.545  40.719  40.720
 40.720  40.733  40.988  41.002  41.006  41.151  41.151  41.218
 41.218  41.485  41.541
 --------------------------------------------------------------
 
          Ground-State Mulliken Net Atomic Charges

     Atom                 Charge (a.u.)
  ----------------------------------------
      1 N                    -0.282001
      2 C                     0.282002
      3 C                     0.281995
      4 N                    -0.281995
  ----------------------------------------
  Sum of atomic charges =     0.000000

 -----------------------------------------------------------------
                    Cartesian Multipole Moments
 -----------------------------------------------------------------
    Charge (ESU x 10^10)
                 0.0000
    Dipole Moment (Debye)
         X       0.0000      Y       0.0000      Z       0.0000
       Tot       0.0000
    Quadrupole Moments (Debye-Ang)
        XX     -20.9990     XY       0.0000     YY     -20.9990
        XZ       0.0000     YZ       0.0000     ZZ     -30.2419
    Octapole Moments (Debye-Ang^2)
       XXX       0.0000    XXY       0.0000    XYY       0.0000
       YYY       0.0000    XXZ       0.0000    XYZ       0.0000
       YYZ       0.0000    XZZ       0.0000    YZZ       0.0000
       ZZZ      -0.0001
    Hexadecapole Moments (Debye-Ang^3)
      XXXX     -20.6231   XXXY       0.0000   XXYY      -6.8743
      XYYY       0.0000   YYYY     -20.6231   XXXZ       0.0000
      XXYZ       0.0000   XYYZ       0.0000   YYYZ       0.0000
      XXZZ     -51.3920   XYZZ       0.0014   YYZZ     -51.3920
      XZZZ       0.0001   YZZZ      -0.0001   ZZZZ    -336.8275
 -----------------------------------------------------------------
 Total job time:  41.32s(wall), 39.52s(cpu) 
 Tue Apr 30 22:45:42 2013

        *************************************************************
        *                                                           *
        *  Thank you very much for using Q-Chem.  Have a nice day.  *
        *                                                           *
        *************************************************************


0 sent ACK to 0 
now end server 0 ... 
 
**********************************************************************
Job 3 of 3 
**********************************************************************
 
Process 0 of 1 is on cl089.stfx.acenet.ca - thread support 1
initial socket setup ...start
initial socket setup ...done 
now start server 0 ... 

cmd = /usr/bin/ssh clhead /usr/local/qchem/bin/get_hostid 1222300022 > /scratch/tmp/5956370.1.short.q/qchem21540/lic.dat
                  Welcome to Q-Chem
     A Quantum Leap Into The Future Of Chemistry

 Y. Shao, L. Fusti-Molnar, Y. Jung, J. Kussmann, C. Ochsenfeld,
 S. T. Brown, A. T. B. Gilbert, L. V. Slipchenko,S. V. Levchenko,
 D. P. O'Neill, R. A. DiStasio Jr., R. C. Lochan, T. Wang,
 G. J. O. Beran, N. A. Besley, J. M. Herbert, C. Y. Lin,
 T. Van Voorhis, S. H. Chien, A. Sodt, R. P. Steele, 
 V. A. Rassolov, P. E. Maslen, P. P. Korambath, R. D. Adamson,
 B. Austin, J. Baker, E. F. C. Byrd, H. Dachsel, R. J. Doerksen,
 A. Dreuw, B. D. Dunietz, A. D. Dutoi, T. R. Furlani,
 S. R. Gwaltney, A. Heyden, S. Hirata, C.-P. Hsu, G. Kedziora,
 R. Z. Khaliullin, P. Klunzinger, A. M. Lee, M. S. Lee, W. Liang,
 I. Lotan, N. Nair, B. Peters, E. I. Proynov, P. A. Pieniazek, 
 Y. M. Rhee, J. Ritchie, E. Rosta, C. D. Sherrill, 
 A. C. Simmonett, J. E. Subotnik, H. L. Woodcock III,
 W. Zhang, A. T. Bell, A. K. Chakraborty, D. M. Chipman,
 F. J. Keil, A. Warshel, W. J. Hehre, H. F. Schaefer III,
 J. Kong, A. I. Krylov, P. M. W. Gill, M. Head-Gordon,
 Q-Chem, Version 3.1, Q-Chem, Inc., Pittsburgh, PA (2007).

 Additional authors for Version 3.1: 
 Z. Gan, Y. Zhao, N. E. Schultz, D. Truhlar, E. Epifanovsky and M. Oana.

 Additional authors for Version 3.2: 
 R. Baer, B. R. Brooks, D. Casanova, J.-D. Chai, C.-L. Cheng, 
 C. Cramer, D. Crittenden, A. Ghysels, G. Hawkins, E. G. Hohenstein, 
 C. Kelley, W. Kurlancheek, D. Liotard, E. Livshits, P. Manohar, 
 A. Marenich, D. Neuhauser, R. Olson, M. A. Rohrdanz, K. S. Thanthiriwatte, 
 A. J. W. Thom, V. Vanovschi, C. F. Williams, Q. Wu and Z.-Q. You. 


 Intel X86 Linux Version

 Q-chem begins on Tue Apr 30 22:45:44 2013  

 Parallel job on  1  processors
Processing $rem in /usr/local/qchem/config/preferences.

theFileMan(): MAXOPENFILES=974 MAX_SUB_FILE_NUM=16
Maximum size of a physical file is 2.0 GB, maximum size of a tmp-file is 32.0 GB


--------------------------------------------------------------
User input:
--------------------------------------------------------------

$molecule
1,2
N,0.,0.,1.8539909259
C,0.,0.,0.6902279316
C,0.,0.,-0.6902279316
N,0.,0.,-1.8539909259

$end

$comment
positive
$end

$xc_functional
C PBE   1.00
X wPBE  1.00
$end

$rem
SYMMETRY_DECOMPOSITION	0
LRC_DFT                 true
exchange 		general
BASIS                   g3large
omega			350
mem_static              760
max_scf_cycles          200
scf_final_print         1
sym_ignore              true
$end

--------------------------------------------------------------
 Writing REM_CC_EA            4
 ----------------------------------------------------
       Standard Nuclear Orientation (Angstroms)
    I     Atom         X            Y            Z
 ----------------------------------------------------
    1      N       0.000000     0.000000     1.853991
    2      C       0.000000     0.000000     0.690228
    3      C       0.000000     0.000000    -0.690228
    4      N       0.000000     0.000000    -1.853991
 ----------------------------------------------------
 Nuclear Repulsion Energy =    76.4601538996 hartrees
 There are       13 alpha and       12 beta electrons
 Requested basis set is G3large
 There are 40 shells and 168 basis functions

Total QAlloc Memory Limit   2000 MB
Mega-Array Size       743 MB
MEM_STATIC part       760 MB

                       Distance Matrix (Angstroms)
             N (  1)   C (  2)   C (  3)
   C (  2)  1.163763
   C (  3)  2.544219  1.380456
   N (  4)  3.707982  2.544219  1.163763
 
 A cutoff of  1.0D-08 yielded    714 shell pairs
 There are  12965 function pairs ( 16965 Cartesian)
Evaluating contribution to one-electron hamiltonian from nuclear
 Smallest overlap matrix eigenvalue = 9.55E-06

 Q-Chem warning in module mkSTV.C, line 194:

 Overlap eigenvalue is smaller than square root of threshold

 Multipole matrices computed through 2nd order

  Scale SEOQF with 1.000000e-01/1.000000e-01/1.000000e-01

 Standard Electronic Orientation quadrupole field applied
 Nucleus-field energy     =    -0.0000000058 hartrees
 Guess from superposition of atomic densities
 Warning:  Energy on first SCF cycle will be non-variational
 Long-range K will be added via erf
 Coulomb attenuation parameter = 0.35 bohr**(-1)
 An unrestricted Kohn-Sham SCF calculation will be
 performed using Pulay DIIS extrapolation
 Exchange:  wPBE + LR-HF      Correlation:  PBE
 Using SG-1 standard quadrature grid
 SCF converges when DIIS error is below 1.0E-05
 Requested basis set is G3large
 There are 40 shells and 168 basis functions
 A cutoff of  1.0D-08 yielded    714 shell pairs
 There are  12965 function pairs ( 16965 Cartesian)
 Warning!  Inaccurate integrated density:
   Number of electrons =    25
   Numerical integral  =    26.000074817709
   Relative error      =     4.0002992708 %
 ---------------------------------------
  Cycle       Energy         DIIS Error
 ---------------------------------------
    1    -186.1991774512      3.63E-02
    2    -184.9361730392      4.54E-03
    3    -184.9241037134      6.48E-03
    4    -185.0469570225      6.82E-04
    5    -185.0504038710      2.48E-04
    6    -185.0514544899      6.80E-05
    7    -185.0517286959      1.73E-05
    8    -185.0517658214      7.93E-06 Convergence criterion met
 ---------------------------------------
 One-Electron    Energy =  -392.8200330786
 Total Coulomb   Energy =   155.2839129280
 Alpha Exchange  Energy =    -2.3474648711
 Beta  Exchange  Energy =    -2.1558686644
 DFT   Exchange  Energy =   -18.6738236320
 DFT Correlation Energy =    -0.7986423971
 Nuclear Repu.   Energy =    76.4601538938
 Nuclear Attr.   Energy =  -577.4510296365
 Kinetic         Energy =   184.6309965578
 <S^2> = 0.8025
 SCF time:  CPU 54.58 s  wall 55.26 s
 Final Alpha MO Eigenvalues
            1           2           3           4           5           6
    1 -14.5826006 -14.5825377 -10.5097041 -10.5092310  -1.4224900  -1.4050716
            7           8           9          10          11          12
    1  -1.1649961  -0.8904351  -0.8697992  -0.8415255  -0.8282691  -0.8143081
           13          14          15          16          17          18
    1  -0.7829312  -0.3193273  -0.2999279  -0.1223697  -0.1023251  -0.0944390
 Final Beta MO Eigenvalues
            1           2           3           4           5           6
    1 -14.5733677 -14.5733163 -10.5091990 -10.5086542  -1.3982433  -1.3737914
            7           8           9          10          11          12
    1  -1.1665328  -0.8656529  -0.8266412  -0.8187019  -0.8144116  -0.7715765
           13          14          15          16          17
    1  -0.5032815  -0.2941530  -0.2638855  -0.1217767  -0.0965317
 Analysis of SCF Wavefunction
 
 --------------------------------------------------------------
                    Orbital Energies (a.u.)
 --------------------------------------------------------------
 
 Alpha MOs
 -- Occupied --
-14.583 -14.583 -10.510 -10.509  -1.422  -1.405  -1.165  -0.890
 -0.870  -0.842  -0.828  -0.814  -0.783
 -- Virtual --
 -0.319  -0.300  -0.122  -0.102  -0.094  -0.078  -0.069  -0.065
 -0.035  -0.015  -0.012  -0.011   0.043   0.085   0.085   0.089
  0.133   0.144   0.150   0.155   0.196   0.302   0.324   0.324
  0.328   0.334   0.429   0.438   0.489   0.520   0.521   0.523
  0.601   0.635   0.641   0.653   0.670   0.688   0.691   0.714
  0.727   0.730   0.896   0.896   0.904   1.082   1.082   1.131
  1.141   1.150   1.369   1.473   1.487   1.787   1.790   1.829
  1.844   1.861   2.119   2.363   2.368   2.378   2.381   2.381
  2.396   2.403   2.501   2.511   2.613   2.622   2.624   2.624
  2.837   2.837   2.843   2.843   2.891   2.909   2.958   2.969
  3.137   3.137   3.149   3.168   3.362   3.362   3.400   3.400
  3.522   3.551   3.586   3.673   3.699   3.866   3.903   3.906
  4.084   4.255   4.271   4.331   4.389   4.390   4.473   4.474
  4.520   4.520   4.785   4.823   4.847   4.965   4.985   5.397
  5.542   5.561   6.134   6.512   6.532   6.573   7.812  24.049
 24.353  26.920  26.924  27.122  27.126  28.294  29.646  35.623
 36.434  37.009  37.023  37.352  37.366  37.839  37.968  40.014
 40.022  40.121  40.134  40.135  40.206  40.220  40.381  40.395
 40.403  40.417  40.672  40.685  40.687  40.833  40.837  40.900
 40.904  41.164  41.222
 
 Beta MOs
 -- Occupied --
-14.573 -14.573 -10.509 -10.509  -1.398  -1.374  -1.167  -0.866
 -0.827  -0.819  -0.814  -0.772
 -- Virtual --
 -0.503  -0.294  -0.264  -0.122  -0.097  -0.075  -0.067  -0.065
 -0.061  -0.034  -0.012  -0.010  -0.010   0.044   0.088   0.090
  0.090   0.134   0.146   0.156   0.156   0.198   0.304   0.325
  0.326   0.330   0.334   0.438   0.439   0.495   0.532   0.538
  0.539   0.609   0.641   0.654   0.654   0.694   0.697   0.700
  0.731   0.733   0.734   0.913   0.919   0.921   1.100   1.101
  1.151   1.155   1.158   1.374   1.487   1.488   1.797   1.797
  1.847   1.848   1.871   2.125   2.374   2.374   2.382   2.385
  2.385   2.398   2.402   2.507   2.510   2.621   2.622   2.631
  2.631   2.841   2.842   2.858   2.859   2.912   2.913   2.963
  2.978   3.141   3.142   3.171   3.172   3.398   3.398   3.434
  3.435   3.561   3.572   3.598   3.708   3.716   3.884   3.924
  3.926   4.099   4.273   4.275   4.344   4.404   4.406   4.520
  4.524   4.567   4.572   4.792   4.852   4.860   4.990   4.995
  5.405   5.565   5.568   6.142   6.536   6.540   6.581   7.818
 24.050  24.354  26.923  26.924  27.125  27.125  28.295  29.647
 35.635  36.447  37.030  37.036  37.373  37.379  37.845  37.973
 40.036  40.044  40.134  40.150  40.158  40.223  40.226  40.398
 40.401  40.404  40.418  40.673  40.687  40.689  40.836  40.836
 40.903  40.903  41.167  41.224
 --------------------------------------------------------------
 
          Ground-State Mulliken Net Atomic Charges

     Atom                 Charge (a.u.)    Spin (a.u.)
  --------------------------------------------------------
      1 N                     0.022630       0.455377
      2 C                     0.477371       0.044628
      3 C                     0.477357       0.044609
      4 N                     0.022642       0.455386
  --------------------------------------------------------
  Sum of atomic charges =     1.000000
  Sum of spin   charges =     1.000000

 -----------------------------------------------------------------
                    Cartesian Multipole Moments
 -----------------------------------------------------------------
    Charge (ESU x 10^10)
                 4.8032
    Dipole Moment (Debye)
         X       0.0000      Y       0.0000      Z       0.0000
       Tot       0.0000
    Quadrupole Moments (Debye-Ang)
        XX     -18.0399     XY      -0.6147     YY     -18.0387
        XZ       0.0052     YZ      -0.0053     ZZ     -14.7714
    Octapole Moments (Debye-Ang^2)
       XXX       0.0000    XXY       0.0000    XYY       0.0000
       YYY       0.0000    XXZ       0.0000    XYZ       0.0000
       YYZ       0.0000    XZZ       0.0000    YZZ       0.0000
       ZZZ      -0.0002
    Hexadecapole Moments (Debye-Ang^3)
      XXXX     -15.3024   XXXY      -0.4050   XXYY      -5.1008
      XYYY      -0.4050   YYYY     -15.3009   XXXZ       0.0043
      XXYZ      -0.0014   XYYZ       0.0014   YYYZ      -0.0043
      XXZZ     -42.1331   XYZZ      -1.7208   YYZZ     -42.1298
      XZZZ       0.0299   YZZZ      -0.0300   ZZZZ    -251.0376
 -----------------------------------------------------------------
 Total job time:  55.44s(wall), 54.75s(cpu) 
 Tue Apr 30 22:46:40 2013

        *************************************************************
        *                                                           *
        *  Thank you very much for using Q-Chem.  Have a nice day.  *
        *                                                           *
        *************************************************************


0 sent ACK to 0 
now end server 0 ... 
