Process 0 of 1 is on cl188.stfx.acenet.ca - thread support 1
initial socket setup ...start
initial socket setup ...done 
now start server 0 ... 

cmd = /usr/bin/ssh clhead /usr/local/qchem/bin/get_hostid 116514852 > /scratch/tmp/6064087.1.medium.q/qchem24452/lic.dat
                  Welcome to Q-Chem
     A Quantum Leap Into The Future Of Chemistry

 Y. Shao, L. Fusti-Molnar, Y. Jung, J. Kussmann, C. Ochsenfeld,
 S. T. Brown, A. T. B. Gilbert, L. V. Slipchenko,S. V. Levchenko,
 D. P. O'Neill, R. A. DiStasio Jr., R. C. Lochan, T. Wang,
 G. J. O. Beran, N. A. Besley, J. M. Herbert, C. Y. Lin,
 T. Van Voorhis, S. H. Chien, A. Sodt, R. P. Steele, 
 V. A. Rassolov, P. E. Maslen, P. P. Korambath, R. D. Adamson,
 B. Austin, J. Baker, E. F. C. Byrd, H. Dachsel, R. J. Doerksen,
 A. Dreuw, B. D. Dunietz, A. D. Dutoi, T. R. Furlani,
 S. R. Gwaltney, A. Heyden, S. Hirata, C.-P. Hsu, G. Kedziora,
 R. Z. Khaliullin, P. Klunzinger, A. M. Lee, M. S. Lee, W. Liang,
 I. Lotan, N. Nair, B. Peters, E. I. Proynov, P. A. Pieniazek, 
 Y. M. Rhee, J. Ritchie, E. Rosta, C. D. Sherrill, 
 A. C. Simmonett, J. E. Subotnik, H. L. Woodcock III,
 W. Zhang, A. T. Bell, A. K. Chakraborty, D. M. Chipman,
 F. J. Keil, A. Warshel, W. J. Hehre, H. F. Schaefer III,
 J. Kong, A. I. Krylov, P. M. W. Gill, M. Head-Gordon,
 Q-Chem, Version 3.1, Q-Chem, Inc., Pittsburgh, PA (2007).

 Additional authors for Version 3.1: 
 Z. Gan, Y. Zhao, N. E. Schultz, D. Truhlar, E. Epifanovsky and M. Oana.

 Additional authors for Version 3.2: 
 R. Baer, B. R. Brooks, D. Casanova, J.-D. Chai, C.-L. Cheng, 
 C. Cramer, D. Crittenden, A. Ghysels, G. Hawkins, E. G. Hohenstein, 
 C. Kelley, W. Kurlancheek, D. Liotard, E. Livshits, P. Manohar, 
 A. Marenich, D. Neuhauser, R. Olson, M. A. Rohrdanz, K. S. Thanthiriwatte, 
 A. J. W. Thom, V. Vanovschi, C. F. Williams, Q. Wu and Z.-Q. You. 


 Intel X86 Linux Version

 Q-chem begins on Sun Jul  7 09:41:19 2013  

 Parallel job on  1  processors
Processing $rem in /usr/local/qchem/config/preferences.

theFileMan(): MAXOPENFILES=974 MAX_SUB_FILE_NUM=16
Maximum size of a physical file is 2.0 GB, maximum size of a tmp-file is 32.0 GB


--------------------------------------------------------------
User input:
--------------------------------------------------------------

$molecule
-1,2
C          0.00060        0.00000        0.00599
C         -0.00144        0.00000        1.51271
O          1.34262        0.00000        1.95481
H          1.36080        0.00000        2.91219
H         -0.52814        0.88506        1.88809
H         -0.52814       -0.88506        1.88809
H         -1.01948        0.00000       -0.37883
H          0.51474        0.88308       -0.37260
H          0.51474       -0.88308       -0.37260
$end

$comment
negative
$end

$xc_functional
C PBE   1.00
X wPBE  1.00
$end

$rem
SYMMETRY_DECOMPOSITION	0
exchange 		general
LRC_DFT                 true
BASIS                   g3large
omega			410
mem_static              760
max_scf_cycles          200
scf_final_print         1
sym_ignore              true
$end

--------------------------------------------------------------
 Writing REM_CC_EA            9
 ----------------------------------------------------
       Standard Nuclear Orientation (Angstroms)
    I     Atom         X            Y            Z
 ----------------------------------------------------
    1      C       0.000600     0.000000     0.005990
    2      C      -0.001440     0.000000     1.512710
    3      O       1.342620     0.000000     1.954810
    4      H       1.360800     0.000000     2.912190
    5      H      -0.528140     0.885060     1.888090
    6      H      -0.528140    -0.885060     1.888090
    7      H      -1.019480     0.000000    -0.378830
    8      H       0.514740     0.883080    -0.372600
    9      H       0.514740    -0.883080    -0.372600
 ----------------------------------------------------
 Nuclear Repulsion Energy =    82.1703385088 hartrees
 There are       14 alpha and       13 beta electrons
 Requested basis set is G3large
 There are 66 shells and 186 basis functions

Total QAlloc Memory Limit   2000 MB
Mega-Array Size       743 MB
MEM_STATIC part       760 MB

                       Distance Matrix (Angstroms)
             C (  1)   C (  2)   O (  3)   H (  4)   H (  5)   H (  6)
   C (  2)  1.506721
   O (  3)  2.366203  1.414903
   H (  4)  3.208760  1.953008  0.957553
   H (  5)  2.145972  1.096200  2.070634  2.323834
   H (  6)  2.145972  1.096200  2.070634  2.323834  1.770120
   H (  7)  1.090252  2.148099  3.320451  4.061594  2.482674  2.482674
   H (  8)  1.089725  2.144916  2.623367  3.505067  2.489643  3.053627
   H (  9)  1.089725  2.144916  2.623367  3.505067  3.053627  2.489643
             H (  7)   H (  8)
   H (  8)  1.770226
   H (  9)  1.770226  1.766160
 
 A cutoff of  1.0D-08 yielded   2117 shell pairs
 There are  16833 function pairs ( 20304 Cartesian)
Evaluating contribution to one-electron hamiltonian from nuclear
 Smallest overlap matrix eigenvalue = 9.78E-05

 Q-Chem warning in module mkSTV.C, line 194:

 Overlap eigenvalue is smaller than square root of threshold

 Multipole matrices computed through 2nd order

  Scale SEOQF with 1.000000e-01/1.000000e-01/1.000000e-01

 Standard Electronic Orientation quadrupole field applied
 Nucleus-field energy     =    -0.0000000056 hartrees
 Guess from superposition of atomic densities
 Warning:  Energy on first SCF cycle will be non-variational
 Long-range K will be added via erf
 Coulomb attenuation parameter = 0.41 bohr**(-1)
 An unrestricted Kohn-Sham SCF calculation will be
 performed using Pulay DIIS extrapolation
 Exchange:  wPBE + LR-HF      Correlation:  PBE
 Using SG-1 standard quadrature grid
 SCF converges when DIIS error is below 1.0E-05
 Requested basis set is G3large
 There are 66 shells and 186 basis functions
 A cutoff of  1.0D-08 yielded   2117 shell pairs
 There are  16833 function pairs ( 20304 Cartesian)
 Warning!  Inaccurate integrated density:
   Number of electrons =    27
   Numerical integral  =    25.999923725395
   Relative error      =    -3.7039862022 %
 ---------------------------------------
  Cycle       Energy         DIIS Error
 ---------------------------------------
    1    -155.5686600125      3.22E-02
    2    -154.8621702085      4.48E-03
    3    -154.9039672048      4.37E-03
    4    -154.9620838381      5.07E-04
    5    -154.9650389253      2.57E-04
    6    -154.9661147449      7.55E-05
    7    -154.9665435459      3.48E-05
    8    -154.9667309524      2.09E-05
    9    -154.9668257581      1.48E-05
   10    -154.9668766528      8.40E-06 Convergence criterion met
 ---------------------------------------
 One-Electron    Energy =  -376.1862125316
 Total Coulomb   Energy =   160.7540129295
 Alpha Exchange  Energy =    -2.7183073709
 Beta  Exchange  Energy =    -2.6477514120
 DFT   Exchange  Energy =   -15.4863764643
 DFT Correlation Energy =    -0.8525803067
 Nuclear Repu.   Energy =    82.1703385033
 Nuclear Attr.   Energy =  -530.6191272032
 Kinetic         Energy =   154.4329146716
 <S^2> = 0.7501
 SCF time:  CPU 117.14 s  wall 117.63 s
 Final Alpha MO Eigenvalues
            1           2           3           4           5           6
    1 -18.8150700 -10.0062981  -9.9668986  -1.0166142  -0.7702553  -0.6179956
            7           8           9          10          11          12
    1  -0.5113360  -0.4643064  -0.3959199  -0.3780283  -0.3581600  -0.3139187
           13          14          15          16          17          18
    1  -0.2509055   0.0269049   0.1353828   0.1478562   0.1494602   0.1799818
           19
    1   0.1877311
 Final Beta MO Eigenvalues
            1           2           3           4           5           6
    1 -18.8147833 -10.0058362  -9.9668340  -1.0158809  -0.7695404  -0.6167709
            7           8           9          10          11          12
    1  -0.5091541  -0.4639344  -0.3953553  -0.3776338  -0.3579535  -0.3130195
           13          14          15          16          17          18
    1  -0.2505136   0.1356129   0.1556007   0.1593142   0.1617365   0.1879350
 Analysis of SCF Wavefunction
 
 --------------------------------------------------------------
                    Orbital Energies (a.u.)
 --------------------------------------------------------------
 
 Alpha MOs
 -- Occupied --
-18.815 -10.006  -9.967  -1.017  -0.770  -0.618  -0.511  -0.464
 -0.396  -0.378  -0.358  -0.314  -0.251   0.027
 -- Virtual --
  0.135   0.148   0.149   0.180   0.188   0.235   0.249   0.251
  0.266   0.282   0.288   0.303   0.306   0.377   0.381   0.398
  0.424   0.425   0.442   0.462   0.476   0.480   0.496   0.543
  0.586   0.644   0.648   0.678   0.691   0.746   0.778   0.786
  0.789   0.800   0.832   0.839   0.854   0.872   0.890   0.976
  0.986   1.054   1.062   1.114   1.116   1.167   1.267   1.278
  1.296   1.307   1.367   1.380   1.403   1.403   1.436   1.447
  1.497   1.542   1.548   1.565   1.613   1.655   1.658   1.684
  1.697   1.716   1.732   1.777   1.800   1.840   1.972   2.108
  2.260   2.309   2.486   2.587   2.643   2.717   2.787   2.836
  2.849   2.999   3.072   3.079   3.092   3.168   3.272   3.302
  3.318   3.320   3.440   3.448   3.460   3.521   3.561   3.621
  3.658   3.769   3.772   3.776   3.790   3.837   3.905   3.969
  4.001   4.075   4.122   4.172   4.233   4.272   4.291   4.298
  4.413   4.458   4.470   4.499   4.506   4.571   4.602   4.694
  4.702   4.749   4.823   4.826   4.901   5.252   5.398   5.427
  5.444   5.581   5.710   5.728   5.795   5.839   5.907   5.907
  6.106   6.192   6.678   7.213   7.403   7.439   7.471   7.784
  7.893  24.340  24.523  27.826  28.200  28.230  28.284  28.309
 28.518  41.074  41.104  41.125  41.225  41.303  41.341  41.351
 41.383  41.388  41.427  43.978  43.988  44.041  44.100  44.142
 45.826  46.143  46.565  50.027
 
 Beta MOs
 -- Occupied --
-18.815 -10.006  -9.967  -1.016  -0.770  -0.617  -0.509  -0.464
 -0.395  -0.378  -0.358  -0.313  -0.251
 -- Virtual --
  0.136   0.156   0.159   0.162   0.188   0.192   0.236   0.248
  0.250   0.266   0.283   0.289   0.305   0.305   0.378   0.380
  0.399   0.423   0.423   0.442   0.461   0.474   0.478   0.492
  0.541   0.585   0.642   0.648   0.678   0.691   0.745   0.777
  0.784   0.788   0.799   0.832   0.838   0.852   0.871   0.889
  0.978   0.986   1.055   1.062   1.114   1.116   1.167   1.266
  1.279   1.297   1.307   1.367   1.380   1.403   1.403   1.436
  1.447   1.498   1.542   1.548   1.565   1.614   1.655   1.658
  1.684   1.697   1.716   1.733   1.777   1.800   1.840   1.972
  2.108   2.260   2.309   2.486   2.587   2.644   2.717   2.787
  2.836   2.849   2.999   3.072   3.080   3.092   3.168   3.273
  3.303   3.319   3.320   3.441   3.448   3.461   3.521   3.562
  3.622   3.658   3.769   3.772   3.777   3.790   3.839   3.905
  3.970   4.001   4.075   4.123   4.173   4.233   4.272   4.292
  4.298   4.414   4.459   4.470   4.499   4.506   4.572   4.603
  4.694   4.702   4.749   4.824   4.827   4.901   5.252   5.399
  5.427   5.444   5.581   5.710   5.729   5.796   5.839   5.907
  5.907   6.107   6.193   6.679   7.214   7.404   7.441   7.472
  7.785   7.894  24.340  24.523  27.826  28.201  28.230  28.284
 28.309  28.518  41.075  41.104  41.125  41.226  41.303  41.341
 41.352  41.383  41.388  41.427  43.978  43.988  44.041  44.101
 44.143  45.826  46.143  46.566  50.027
 --------------------------------------------------------------
 
          Ground-State Mulliken Net Atomic Charges

     Atom                 Charge (a.u.)    Spin (a.u.)
  --------------------------------------------------------
      1 C                    -0.611479       0.383822
      2 C                     3.147219      -3.269756
      3 O                    -0.488533       0.168203
      4 H                    -0.602263       0.875805
      5 H                    -1.167093       1.253763
      6 H                    -1.175424       1.262286
      7 H                    -0.110547       0.172060
      8 H                     0.004465       0.076492
      9 H                     0.003656       0.077325
  --------------------------------------------------------
  Sum of atomic charges =    -1.000000
  Sum of spin   charges =     1.000000

 -----------------------------------------------------------------
                    Cartesian Multipole Moments
 -----------------------------------------------------------------
    Charge (ESU x 10^10)
                -4.8032
    Dipole Moment (Debye)
         X      -0.3386      Y       0.0240      Z     -13.2662
       Tot      13.2706
    Quadrupole Moments (Debye-Ang)
        XX     -46.9821     XY      -0.0225     YY     -43.8933
        XZ      -3.0504     YZ       0.0556     ZZ     -76.5406
    Octapole Moments (Debye-Ang^2)
       XXX     -17.1281    XXY       0.0971    XYY       0.6894
       YYY       0.2703    XXZ     -89.1424    XYZ      -0.0452
       YYZ     -83.5864    XZZ     -18.8356    YZZ       0.2133
       ZZZ    -322.8601
    Hexadecapole Moments (Debye-Ang^3)
      XXXX    -394.3944   XXXY      -0.1851   XXYY    -119.0209
      XYYY      -0.2093   YYYY    -306.5546   XXXZ     -76.9222
      XXYZ       0.1997   XYYZ     -13.7589   YYYZ       0.5610
      XXZZ    -320.9019   XYZZ      -0.1432   YYZZ    -291.2091
      XZZZ    -126.3894   YZZZ       0.8208   ZZZZ   -1593.6994
 -----------------------------------------------------------------
 Total job time:  117.85s(wall), 117.35s(cpu) 
 Sun Jul  7 09:43:17 2013

        *************************************************************
        *                                                           *
        *  Thank you very much for using Q-Chem.  Have a nice day.  *
        *                                                           *
        *************************************************************


0 sent ACK to 0 
now end server 0 ... 
 
**********************************************************************
Job 2 of 3 
**********************************************************************
 
Process 0 of 1 is on cl188.stfx.acenet.ca - thread support 1
initial socket setup ...start
initial socket setup ...done 
now start server 0 ... 

cmd = /usr/bin/ssh clhead /usr/local/qchem/bin/get_hostid 1975737098 > /scratch/tmp/6064087.1.medium.q/qchem24452/lic.dat
                  Welcome to Q-Chem
     A Quantum Leap Into The Future Of Chemistry

 Y. Shao, L. Fusti-Molnar, Y. Jung, J. Kussmann, C. Ochsenfeld,
 S. T. Brown, A. T. B. Gilbert, L. V. Slipchenko,S. V. Levchenko,
 D. P. O'Neill, R. A. DiStasio Jr., R. C. Lochan, T. Wang,
 G. J. O. Beran, N. A. Besley, J. M. Herbert, C. Y. Lin,
 T. Van Voorhis, S. H. Chien, A. Sodt, R. P. Steele, 
 V. A. Rassolov, P. E. Maslen, P. P. Korambath, R. D. Adamson,
 B. Austin, J. Baker, E. F. C. Byrd, H. Dachsel, R. J. Doerksen,
 A. Dreuw, B. D. Dunietz, A. D. Dutoi, T. R. Furlani,
 S. R. Gwaltney, A. Heyden, S. Hirata, C.-P. Hsu, G. Kedziora,
 R. Z. Khaliullin, P. Klunzinger, A. M. Lee, M. S. Lee, W. Liang,
 I. Lotan, N. Nair, B. Peters, E. I. Proynov, P. A. Pieniazek, 
 Y. M. Rhee, J. Ritchie, E. Rosta, C. D. Sherrill, 
 A. C. Simmonett, J. E. Subotnik, H. L. Woodcock III,
 W. Zhang, A. T. Bell, A. K. Chakraborty, D. M. Chipman,
 F. J. Keil, A. Warshel, W. J. Hehre, H. F. Schaefer III,
 J. Kong, A. I. Krylov, P. M. W. Gill, M. Head-Gordon,
 Q-Chem, Version 3.1, Q-Chem, Inc., Pittsburgh, PA (2007).

 Additional authors for Version 3.1: 
 Z. Gan, Y. Zhao, N. E. Schultz, D. Truhlar, E. Epifanovsky and M. Oana.

 Additional authors for Version 3.2: 
 R. Baer, B. R. Brooks, D. Casanova, J.-D. Chai, C.-L. Cheng, 
 C. Cramer, D. Crittenden, A. Ghysels, G. Hawkins, E. G. Hohenstein, 
 C. Kelley, W. Kurlancheek, D. Liotard, E. Livshits, P. Manohar, 
 A. Marenich, D. Neuhauser, R. Olson, M. A. Rohrdanz, K. S. Thanthiriwatte, 
 A. J. W. Thom, V. Vanovschi, C. F. Williams, Q. Wu and Z.-Q. You. 


 Intel X86 Linux Version

 Q-chem begins on Sun Jul  7 09:43:20 2013  

 Parallel job on  1  processors
Processing $rem in /usr/local/qchem/config/preferences.

theFileMan(): MAXOPENFILES=974 MAX_SUB_FILE_NUM=16
Maximum size of a physical file is 2.0 GB, maximum size of a tmp-file is 32.0 GB


--------------------------------------------------------------
User input:
--------------------------------------------------------------

$molecule
0,1
C          0.00060        0.00000        0.00599
C         -0.00144        0.00000        1.51271
O          1.34262        0.00000        1.95481
H          1.36080        0.00000        2.91219
H         -0.52814        0.88506        1.88809
H         -0.52814       -0.88506        1.88809
H         -1.01948        0.00000       -0.37883
H          0.51474        0.88308       -0.37260
H          0.51474       -0.88308       -0.37260
$end

$comment
neutral
$end

$xc_functional
C PBE   1.00
X wPBE  1.00
$end


$rem
SYMMETRY_DECOMPOSITION	0
LRC_DFT                 true
exchange 		general
BASIS                   g3large
omega			410
mem_static              760
max_scf_cycles          200
scf_final_print         1
sym_ignore              true
$end

--------------------------------------------------------------
 Writing REM_CC_EA            9
 ----------------------------------------------------
       Standard Nuclear Orientation (Angstroms)
    I     Atom         X            Y            Z
 ----------------------------------------------------
    1      C       0.000600     0.000000     0.005990
    2      C      -0.001440     0.000000     1.512710
    3      O       1.342620     0.000000     1.954810
    4      H       1.360800     0.000000     2.912190
    5      H      -0.528140     0.885060     1.888090
    6      H      -0.528140    -0.885060     1.888090
    7      H      -1.019480     0.000000    -0.378830
    8      H       0.514740     0.883080    -0.372600
    9      H       0.514740    -0.883080    -0.372600
 ----------------------------------------------------
 Nuclear Repulsion Energy =    82.1703385088 hartrees
 There are       13 alpha and       13 beta electrons
 Requested basis set is G3large
 There are 66 shells and 186 basis functions

Total QAlloc Memory Limit   2000 MB
Mega-Array Size       743 MB
MEM_STATIC part       760 MB

                       Distance Matrix (Angstroms)
             C (  1)   C (  2)   O (  3)   H (  4)   H (  5)   H (  6)
   C (  2)  1.506721
   O (  3)  2.366203  1.414903
   H (  4)  3.208760  1.953008  0.957553
   H (  5)  2.145972  1.096200  2.070634  2.323834
   H (  6)  2.145972  1.096200  2.070634  2.323834  1.770120
   H (  7)  1.090252  2.148099  3.320451  4.061594  2.482674  2.482674
   H (  8)  1.089725  2.144916  2.623367  3.505067  2.489643  3.053627
   H (  9)  1.089725  2.144916  2.623367  3.505067  3.053627  2.489643
             H (  7)   H (  8)
   H (  8)  1.770226
   H (  9)  1.770226  1.766160
 
 A cutoff of  1.0D-08 yielded   2117 shell pairs
 There are  16833 function pairs ( 20304 Cartesian)
Evaluating contribution to one-electron hamiltonian from nuclear
 Smallest overlap matrix eigenvalue = 9.78E-05

 Q-Chem warning in module mkSTV.C, line 194:

 Overlap eigenvalue is smaller than square root of threshold

 Multipole matrices computed through 2nd order

  Scale SEOQF with 1.000000e-01/1.000000e-01/1.000000e-01

 Standard Electronic Orientation quadrupole field applied
 Nucleus-field energy     =    -0.0000000056 hartrees
 Guess from superposition of atomic densities
 Warning:  Energy on first SCF cycle will be non-variational
 Long-range K will be added via erf
 Coulomb attenuation parameter = 0.41 bohr**(-1)
 A restricted Kohn-Sham SCF calculation will be
 performed using Pulay DIIS extrapolation
 Exchange:  wPBE + LR-HF      Correlation:  PBE
 Using SG-1 standard quadrature grid
 SCF converges when DIIS error is below 1.0E-05
 Requested basis set is G3large
 There are 66 shells and 186 basis functions
 A cutoff of  1.0D-08 yielded   2117 shell pairs
 There are  16833 function pairs ( 20304 Cartesian)
 ---------------------------------------
  Cycle       Energy         DIIS Error
 ---------------------------------------
    1    -155.5686600125      3.22E-02
    2    -154.9324916994      4.14E-03
    3    -154.9611780405      3.59E-03
    4    -154.9971745834      4.97E-04
    5    -154.9979912872      1.78E-04
    6    -154.9981322452      3.99E-05
    7    -154.9981403470      7.21E-06 Convergence criterion met
 ---------------------------------------
 One-Electron    Energy =  -372.6258883061
 Total Coulomb   Energy =   157.0809406218
 Alpha Exchange  Energy =    -2.6492053623
 Beta  Exchange  Energy =    -2.6492053623
 DFT   Exchange  Energy =   -15.4801521516
 DFT Correlation Energy =    -0.8449682897
 Nuclear Repu.   Energy =    82.1703385033
 Nuclear Attr.   Energy =  -526.9999363771
 Kinetic         Energy =   154.3740480710
 SCF time:  CPU 64.85 s  wall 65.26 s
 Final Alpha MO Eigenvalues
            1           2           3           4           5           6
    1 -18.9617542 -10.1517859 -10.0920966  -1.1629736  -0.9034966  -0.7545094
            7           8           9          10          11          12
    1  -0.6543327  -0.6028580  -0.5322523  -0.5060499  -0.4890222  -0.4544228
           13          14          15          16          17          18
    1  -0.3960020   0.0376799   0.0538655   0.0629361   0.0648118   0.0874928
 Analysis of SCF Wavefunction
 
 --------------------------------------------------------------
                    Orbital Energies (a.u.)
 --------------------------------------------------------------
 
 Alpha MOs
 -- Occupied --
-18.962 -10.152 -10.092  -1.163  -0.903  -0.755  -0.654  -0.603
 -0.532  -0.506  -0.489  -0.454  -0.396
 -- Virtual --
  0.038   0.054   0.063   0.065   0.087   0.097   0.133   0.143
  0.149   0.154   0.178   0.181   0.196   0.197   0.257   0.262
  0.268   0.295   0.301   0.311   0.336   0.349   0.359   0.376
  0.416   0.457   0.523   0.523   0.550   0.561   0.618   0.646
  0.655   0.660   0.674   0.691   0.704   0.715   0.739   0.772
  0.827   0.858   0.920   0.927   0.973   0.994   1.037   1.131
  1.140   1.159   1.180   1.226   1.242   1.275   1.275   1.302
  1.313   1.368   1.406   1.414   1.429   1.474   1.518   1.523
  1.559   1.560   1.582   1.597   1.646   1.665   1.711   1.834
  1.963   2.117   2.166   2.343   2.441   2.509   2.585   2.649
  2.707   2.713   2.859   2.938   2.942   2.955   3.043   3.137
  3.164   3.185   3.187   3.308   3.313   3.328   3.385   3.426
  3.485   3.520   3.632   3.637   3.645   3.657   3.696   3.766
  3.825   3.861   3.935   3.990   4.042   4.101   4.134   4.155
  4.162   4.274   4.317   4.343   4.366   4.368   4.427   4.463
  4.561   4.568   4.616   4.692   4.695   4.765   5.107   5.260
  5.283   5.299   5.442   5.570   5.585   5.649   5.695   5.779
  5.780   5.962   6.048   6.534   7.067   7.258   7.291   7.326
  7.639   7.748  24.207  24.385  27.690  28.055  28.093  28.158
 28.176  28.383  40.936  40.960  40.999  41.093  41.158  41.206
 41.215  41.243  41.257  41.302  43.831  43.842  43.894  43.954
 43.996  45.680  45.997  46.419  49.880
 --------------------------------------------------------------
 
          Ground-State Mulliken Net Atomic Charges

     Atom                 Charge (a.u.)
  ----------------------------------------
      1 C                    -0.217464
      2 C                    -0.137145
      3 O                    -0.298179
      4 H                     0.245856
      5 H                     0.075441
      6 H                     0.075577
      7 H                     0.066591
      8 H                     0.094750
      9 H                     0.094572
  ----------------------------------------
  Sum of atomic charges =     0.000000

 -----------------------------------------------------------------
                    Cartesian Multipole Moments
 -----------------------------------------------------------------
    Charge (ESU x 10^10)
                 0.0000
    Dipole Moment (Debye)
         X      -1.3719      Y       0.0000      Z       0.9414
       Tot       1.6638
    Quadrupole Moments (Debye-Ang)
        XX     -22.7262     XY       0.0010     YY     -20.1370
        XZ      -0.5867     YZ      -0.0009     ZZ     -13.9778
    Octapole Moments (Debye-Ang^2)
       XXX     -27.7080    XXY       0.0006    XYY      -8.0598
       YYY      -0.0004    XXZ     -24.3025    XYZ       0.0013
       YYZ     -22.6657    XZZ      -1.4889    YZZ      -0.0020
       ZZZ     -39.6109
    Hexadecapole Moments (Debye-Ang^3)
      XXXX    -105.8877   XXXY       0.0031   XXYY     -23.4531
      XYYY       0.0035   YYYY     -34.0364   XXXZ     -48.8755
      XXYZ       0.0003   XYYZ     -18.2337   YYYZ      -0.0039
      XXZZ     -55.9682   XYZZ       0.0036   YYZZ     -52.8064
      XZZZ     -12.4643   YZZZ      -0.0067   ZZZZ    -183.3421
 -----------------------------------------------------------------
 Total job time:  65.48s(wall), 65.05s(cpu) 
 Sun Jul  7 09:44:25 2013

        *************************************************************
        *                                                           *
        *  Thank you very much for using Q-Chem.  Have a nice day.  *
        *                                                           *
        *************************************************************


0 sent ACK to 0 
now end server 0 ... 
 
**********************************************************************
Job 3 of 3 
**********************************************************************
 
Process 0 of 1 is on cl188.stfx.acenet.ca - thread support 1
initial socket setup ...start
initial socket setup ...done 
now start server 0 ... 

cmd = /usr/bin/ssh clhead /usr/local/qchem/bin/get_hostid 1391065402 > /scratch/tmp/6064087.1.medium.q/qchem24452/lic.dat
                  Welcome to Q-Chem
     A Quantum Leap Into The Future Of Chemistry

 Y. Shao, L. Fusti-Molnar, Y. Jung, J. Kussmann, C. Ochsenfeld,
 S. T. Brown, A. T. B. Gilbert, L. V. Slipchenko,S. V. Levchenko,
 D. P. O'Neill, R. A. DiStasio Jr., R. C. Lochan, T. Wang,
 G. J. O. Beran, N. A. Besley, J. M. Herbert, C. Y. Lin,
 T. Van Voorhis, S. H. Chien, A. Sodt, R. P. Steele, 
 V. A. Rassolov, P. E. Maslen, P. P. Korambath, R. D. Adamson,
 B. Austin, J. Baker, E. F. C. Byrd, H. Dachsel, R. J. Doerksen,
 A. Dreuw, B. D. Dunietz, A. D. Dutoi, T. R. Furlani,
 S. R. Gwaltney, A. Heyden, S. Hirata, C.-P. Hsu, G. Kedziora,
 R. Z. Khaliullin, P. Klunzinger, A. M. Lee, M. S. Lee, W. Liang,
 I. Lotan, N. Nair, B. Peters, E. I. Proynov, P. A. Pieniazek, 
 Y. M. Rhee, J. Ritchie, E. Rosta, C. D. Sherrill, 
 A. C. Simmonett, J. E. Subotnik, H. L. Woodcock III,
 W. Zhang, A. T. Bell, A. K. Chakraborty, D. M. Chipman,
 F. J. Keil, A. Warshel, W. J. Hehre, H. F. Schaefer III,
 J. Kong, A. I. Krylov, P. M. W. Gill, M. Head-Gordon,
 Q-Chem, Version 3.1, Q-Chem, Inc., Pittsburgh, PA (2007).

 Additional authors for Version 3.1: 
 Z. Gan, Y. Zhao, N. E. Schultz, D. Truhlar, E. Epifanovsky and M. Oana.

 Additional authors for Version 3.2: 
 R. Baer, B. R. Brooks, D. Casanova, J.-D. Chai, C.-L. Cheng, 
 C. Cramer, D. Crittenden, A. Ghysels, G. Hawkins, E. G. Hohenstein, 
 C. Kelley, W. Kurlancheek, D. Liotard, E. Livshits, P. Manohar, 
 A. Marenich, D. Neuhauser, R. Olson, M. A. Rohrdanz, K. S. Thanthiriwatte, 
 A. J. W. Thom, V. Vanovschi, C. F. Williams, Q. Wu and Z.-Q. You. 


 Intel X86 Linux Version

 Q-chem begins on Sun Jul  7 09:44:28 2013  

 Parallel job on  1  processors
Processing $rem in /usr/local/qchem/config/preferences.

theFileMan(): MAXOPENFILES=974 MAX_SUB_FILE_NUM=16
Maximum size of a physical file is 2.0 GB, maximum size of a tmp-file is 32.0 GB


--------------------------------------------------------------
User input:
--------------------------------------------------------------

$molecule
1,2
C          0.00060        0.00000        0.00599
C         -0.00144        0.00000        1.51271
O          1.34262        0.00000        1.95481
H          1.36080        0.00000        2.91219
H         -0.52814        0.88506        1.88809
H         -0.52814       -0.88506        1.88809
H         -1.01948        0.00000       -0.37883
H          0.51474        0.88308       -0.37260
H          0.51474       -0.88308       -0.37260
$end

$comment
positive
$end

$xc_functional
C PBE   1.00
X wPBE  1.00
$end

$rem
SYMMETRY_DECOMPOSITION	0
LRC_DFT                 true
exchange 		general
BASIS                   g3large
omega			410
mem_static              760
max_scf_cycles          200
scf_final_print         1
sym_ignore              true
$end

--------------------------------------------------------------
 Writing REM_CC_EA            9
 ----------------------------------------------------
       Standard Nuclear Orientation (Angstroms)
    I     Atom         X            Y            Z
 ----------------------------------------------------
    1      C       0.000600     0.000000     0.005990
    2      C      -0.001440     0.000000     1.512710
    3      O       1.342620     0.000000     1.954810
    4      H       1.360800     0.000000     2.912190
    5      H      -0.528140     0.885060     1.888090
    6      H      -0.528140    -0.885060     1.888090
    7      H      -1.019480     0.000000    -0.378830
    8      H       0.514740     0.883080    -0.372600
    9      H       0.514740    -0.883080    -0.372600
 ----------------------------------------------------
 Nuclear Repulsion Energy =    82.1703385088 hartrees
 There are       13 alpha and       12 beta electrons
 Requested basis set is G3large
 There are 66 shells and 186 basis functions

Total QAlloc Memory Limit   2000 MB
Mega-Array Size       743 MB
MEM_STATIC part       760 MB

                       Distance Matrix (Angstroms)
             C (  1)   C (  2)   O (  3)   H (  4)   H (  5)   H (  6)
   C (  2)  1.506721
   O (  3)  2.366203  1.414903
   H (  4)  3.208760  1.953008  0.957553
   H (  5)  2.145972  1.096200  2.070634  2.323834
   H (  6)  2.145972  1.096200  2.070634  2.323834  1.770120
   H (  7)  1.090252  2.148099  3.320451  4.061594  2.482674  2.482674
   H (  8)  1.089725  2.144916  2.623367  3.505067  2.489643  3.053627
   H (  9)  1.089725  2.144916  2.623367  3.505067  3.053627  2.489643
             H (  7)   H (  8)
   H (  8)  1.770226
   H (  9)  1.770226  1.766160
 
 A cutoff of  1.0D-08 yielded   2117 shell pairs
 There are  16833 function pairs ( 20304 Cartesian)
Evaluating contribution to one-electron hamiltonian from nuclear
 Smallest overlap matrix eigenvalue = 9.78E-05

 Q-Chem warning in module mkSTV.C, line 194:

 Overlap eigenvalue is smaller than square root of threshold

 Multipole matrices computed through 2nd order

  Scale SEOQF with 1.000000e-01/1.000000e-01/1.000000e-01

 Standard Electronic Orientation quadrupole field applied
 Nucleus-field energy     =    -0.0000000056 hartrees
 Guess from superposition of atomic densities
 Warning:  Energy on first SCF cycle will be non-variational
 Long-range K will be added via erf
 Coulomb attenuation parameter = 0.41 bohr**(-1)
 An unrestricted Kohn-Sham SCF calculation will be
 performed using Pulay DIIS extrapolation
 Exchange:  wPBE + LR-HF      Correlation:  PBE
 Using SG-1 standard quadrature grid
 SCF converges when DIIS error is below 1.0E-05
 Requested basis set is G3large
 There are 66 shells and 186 basis functions
 A cutoff of  1.0D-08 yielded   2117 shell pairs
 There are  16833 function pairs ( 20304 Cartesian)
 Warning!  Inaccurate integrated density:
   Number of electrons =    25
   Numerical integral  =    25.999923725395
   Relative error      =     3.9996949016 %
 ---------------------------------------
  Cycle       Energy         DIIS Error
 ---------------------------------------
    1    -155.5686600125      3.22E-02
    2    -154.5383401647      3.23E-03
    3    -154.5861115830      1.72E-03
    4    -154.5981734909      4.28E-04
    5    -154.6003072434      2.68E-04
    6    -154.6010772907      1.11E-04
    7    -154.6018269675      1.27E-04
    8    -154.6026424742      4.37E-05
    9    -154.6028690774      1.68E-05
   10    -154.6029086503      1.17E-05
   11    -154.6029258707      8.21E-06 Convergence criterion met
 ---------------------------------------
 One-Electron    Energy =  -365.0038423093
 Total Coulomb   Energy =   149.4810694688
 Alpha Exchange  Energy =    -2.6694295813
 Beta  Exchange  Energy =    -2.4390792244
 DFT   Exchange  Energy =   -15.3333261223
 DFT Correlation Energy =    -0.8086566055
 Nuclear Repu.   Energy =    82.1703385033
 Nuclear Attr.   Energy =  -519.0555789602
 Kinetic         Energy =   154.0517366509
 <S^2> = 0.7555
 SCF time:  CPU 125.25 s  wall 126.14 s
 Final Alpha MO Eigenvalues
            1           2           3           4           5           6
    1 -19.3826451 -10.4445364 -10.3091564  -1.5430518  -1.1790087  -1.0219552
            7           8           9          10          11          12
    1  -0.9863252  -0.9300684  -0.8554911  -0.7959288  -0.7404434  -0.7232517
           13          14          15          16          17          18
    1  -0.7044173  -0.1352540  -0.0935723  -0.0808840  -0.0748355  -0.0467134
 Final Beta MO Eigenvalues
            1           2           3           4           5           6
    1 -19.3649639 -10.4435990 -10.3091065  -1.5031716  -1.1662576  -1.0140276
            7           8           9          10          11          12
    1  -0.9669708  -0.8559073  -0.8385660  -0.7363108  -0.7196746  -0.7062736
           13          14          15          16          17
    1  -0.3943192  -0.1327415  -0.0913780  -0.0791453  -0.0741265
 Analysis of SCF Wavefunction
 
 --------------------------------------------------------------
                    Orbital Energies (a.u.)
 --------------------------------------------------------------
 
 Alpha MOs
 -- Occupied --
-19.383 -10.445 -10.309  -1.543  -1.179  -1.022  -0.986  -0.930
 -0.855  -0.796  -0.740  -0.723  -0.704
 -- Virtual --
 -0.135  -0.094  -0.081  -0.075  -0.047  -0.034  -0.033  -0.026
 -0.007  -0.002   0.009   0.031   0.039   0.050   0.052   0.053
  0.060   0.103   0.109   0.110   0.125   0.141   0.157   0.205
  0.208   0.236   0.308   0.312   0.342   0.349   0.394   0.413
  0.414   0.444   0.450   0.478   0.484   0.486   0.520   0.556
  0.589   0.633   0.690   0.693   0.719   0.797   0.801   0.864
  0.881   0.909   0.940   0.949   0.975   1.052   1.061   1.072
  1.076   1.128   1.143   1.164   1.201   1.208   1.281   1.284
  1.293   1.355   1.360   1.373   1.415   1.425   1.491   1.554
  1.626   1.811   1.837   2.013   2.138   2.251   2.322   2.405
  2.456   2.471   2.588   2.676   2.684   2.691   2.816   2.878
  2.892   2.922   2.942   3.042   3.064   3.078   3.133   3.175
  3.225   3.250   3.356   3.361   3.390   3.419   3.430   3.498
  3.509   3.603   3.652   3.741   3.805   3.848   3.852   3.904
  3.912   3.995   4.026   4.074   4.128   4.130   4.143   4.190
  4.307   4.312   4.366   4.446   4.462   4.511   4.682   4.883
  4.914   4.954   5.111   5.229   5.291   5.304   5.337   5.533
  5.548   5.636   5.715   6.177   6.638   6.851   6.903   6.919
  7.258   7.374  23.950  24.132  27.431  27.763  27.812  27.942
 27.945  28.134  40.657  40.671  40.781  40.856  40.864  40.914
 40.945  41.001  41.040  41.085  43.394  43.397  43.457  43.544
 43.591  45.237  45.585  46.006  49.463
 
 Beta MOs
 -- Occupied --
-19.365 -10.444 -10.309  -1.503  -1.166  -1.014  -0.967  -0.856
 -0.839  -0.736  -0.720  -0.706
 -- Virtual --
 -0.394  -0.133  -0.091  -0.079  -0.074  -0.046  -0.031  -0.031
 -0.025  -0.004  -0.001   0.012   0.033   0.041   0.052   0.054
  0.063   0.064   0.105   0.111   0.113   0.128   0.149   0.160
  0.206   0.210   0.241   0.314   0.318   0.347   0.351   0.397
  0.416   0.426   0.450   0.454   0.481   0.486   0.496   0.523
  0.567   0.590   0.636   0.694   0.697   0.722   0.799   0.805
  0.873   0.899   0.919   0.952   0.970   0.982   1.057   1.066
  1.074   1.079   1.132   1.156   1.170   1.203   1.217   1.290
  1.291   1.301   1.356   1.364   1.377   1.421   1.429   1.499
  1.570   1.658   1.819   1.866   2.040   2.144   2.264   2.331
  2.406   2.464   2.477   2.594   2.680   2.692   2.695   2.821
  2.881   2.901   2.933   2.945   3.052   3.066   3.081   3.142
  3.178   3.226   3.259   3.362   3.365   3.394   3.422   3.432
  3.502   3.519   3.609   3.662   3.746   3.807   3.858   3.861
  3.912   3.915   4.003   4.037   4.094   4.132   4.141   4.148
  4.203   4.318   4.320   4.375   4.455   4.465   4.522   4.768
  4.930   4.956   4.986   5.142   5.244   5.314   5.328   5.375
  5.547   5.550   5.659   5.722   6.194   6.715   6.905   6.947
  6.976   7.290   7.388  23.951  24.132  27.431  27.762  27.816
 27.942  27.946  28.134  40.661  40.671  40.781  40.856  40.867
 40.914  40.947  41.002  41.040  41.085  43.438  43.451  43.502
 43.555  43.595  45.289  45.597  46.019  49.480
 --------------------------------------------------------------
 
          Ground-State Mulliken Net Atomic Charges

     Atom                 Charge (a.u.)    Spin (a.u.)
  --------------------------------------------------------
      1 C                    -0.186592      -0.003898
      2 C                    -0.195047       0.015692
      3 O                     0.200071       0.718836
      4 H                     0.327103      -0.013604
      5 H                     0.223067       0.125675
      6 H                     0.222358       0.123678
      7 H                     0.122747      -0.000303
      8 H                     0.143127       0.016776
      9 H                     0.143166       0.017147
  --------------------------------------------------------
  Sum of atomic charges =     1.000000
  Sum of spin   charges =     1.000000

 -----------------------------------------------------------------
                    Cartesian Multipole Moments
 -----------------------------------------------------------------
    Charge (ESU x 10^10)
                 4.8032
    Dipole Moment (Debye)
         X       1.3826      Y       0.0006      Z       8.6688
       Tot       8.7783
    Quadrupole Moments (Debye-Ang)
        XX     -14.0002     XY      -0.0078     YY     -15.5797
        XZ       5.6685     YZ       0.0057     ZZ       5.4211
    Octapole Moments (Debye-Ang^2)
       XXX     -17.1910    XXY      -0.0069    XYY      -6.5573
       YYY       0.0018    XXZ      -8.8422    XYZ      -0.0121
       YYZ     -15.9755    XZZ      13.5782    YZZ       0.0134
       ZZZ       4.8322
    Hexadecapole Moments (Debye-Ang^3)
      XXXX     -75.9677   XXXY      -0.0213   XXYY     -16.5109
      XYYY      -0.0072   YYYY     -24.3297   XXXZ     -26.2772
      XXYZ      -0.0086   XYYZ     -15.6029   YYYZ       0.0072
      XXZZ     -19.0610   XYZZ      -0.0207   YYZZ     -36.5462
      XZZZ      26.9135   YZZZ       0.0381   ZZZZ     -63.2198
 -----------------------------------------------------------------
 Total job time:  126.34s(wall), 125.44s(cpu) 
 Sun Jul  7 09:46:35 2013

        *************************************************************
        *                                                           *
        *  Thank you very much for using Q-Chem.  Have a nice day.  *
        *                                                           *
        *************************************************************


0 sent ACK to 0 
now end server 0 ... 
