Process 0 of 1 is on cl199.stfx.acenet.ca - thread support 1
initial socket setup ...start
initial socket setup ...done 
now start server 0 ... 

cmd = /usr/bin/ssh clhead /usr/local/qchem/bin/get_hostid 154619219 > /scratch/tmp/5998059.1.medium.q/qchem7955/lic.dat
                  Welcome to Q-Chem
     A Quantum Leap Into The Future Of Chemistry

 Y. Shao, L. Fusti-Molnar, Y. Jung, J. Kussmann, C. Ochsenfeld,
 S. T. Brown, A. T. B. Gilbert, L. V. Slipchenko,S. V. Levchenko,
 D. P. O'Neill, R. A. DiStasio Jr., R. C. Lochan, T. Wang,
 G. J. O. Beran, N. A. Besley, J. M. Herbert, C. Y. Lin,
 T. Van Voorhis, S. H. Chien, A. Sodt, R. P. Steele, 
 V. A. Rassolov, P. E. Maslen, P. P. Korambath, R. D. Adamson,
 B. Austin, J. Baker, E. F. C. Byrd, H. Dachsel, R. J. Doerksen,
 A. Dreuw, B. D. Dunietz, A. D. Dutoi, T. R. Furlani,
 S. R. Gwaltney, A. Heyden, S. Hirata, C.-P. Hsu, G. Kedziora,
 R. Z. Khaliullin, P. Klunzinger, A. M. Lee, M. S. Lee, W. Liang,
 I. Lotan, N. Nair, B. Peters, E. I. Proynov, P. A. Pieniazek, 
 Y. M. Rhee, J. Ritchie, E. Rosta, C. D. Sherrill, 
 A. C. Simmonett, J. E. Subotnik, H. L. Woodcock III,
 W. Zhang, A. T. Bell, A. K. Chakraborty, D. M. Chipman,
 F. J. Keil, A. Warshel, W. J. Hehre, H. F. Schaefer III,
 J. Kong, A. I. Krylov, P. M. W. Gill, M. Head-Gordon,
 Q-Chem, Version 3.1, Q-Chem, Inc., Pittsburgh, PA (2007).

 Additional authors for Version 3.1: 
 Z. Gan, Y. Zhao, N. E. Schultz, D. Truhlar, E. Epifanovsky and M. Oana.

 Additional authors for Version 3.2: 
 R. Baer, B. R. Brooks, D. Casanova, J.-D. Chai, C.-L. Cheng, 
 C. Cramer, D. Crittenden, A. Ghysels, G. Hawkins, E. G. Hohenstein, 
 C. Kelley, W. Kurlancheek, D. Liotard, E. Livshits, P. Manohar, 
 A. Marenich, D. Neuhauser, R. Olson, M. A. Rohrdanz, K. S. Thanthiriwatte, 
 A. J. W. Thom, V. Vanovschi, C. F. Williams, Q. Wu and Z.-Q. You. 


 Intel X86 Linux Version

 Q-chem begins on Wed May 22 11:17:22 2013  

 Parallel job on  1  processors
Processing $rem in /usr/local/qchem/config/preferences.

theFileMan(): MAXOPENFILES=974 MAX_SUB_FILE_NUM=16
Maximum size of a physical file is 2.0 GB, maximum size of a tmp-file is 32.0 GB


--------------------------------------------------------------
User input:
--------------------------------------------------------------

$molecule
-1,2
C         -0.00004        0.00000        0.00779
C         -0.00038        0.00000        1.46653
C         -0.00038        0.00000        2.66565
C         -0.00004        0.00000        4.12440
H          1.02108        0.00000       -0.38191
H         -0.51033       -0.88419       -0.38257
H         -0.51033        0.88419       -0.38257
H          1.02108        0.00000        4.51409
H         -0.51033        0.88419        4.51475
H         -0.51033       -0.88419        4.51475
$end

$comment
negative
$end

$xc_functional
C PBE   1.00
X wPBE  1.00
$end

$rem
SYMMETRY_DECOMPOSITION	0
exchange 		general
LRC_DFT                 true
BASIS                   g3large
omega			300
mem_static              760
max_scf_cycles          200
scf_final_print         1
sym_ignore              true
$end

--------------------------------------------------------------
 Writing REM_CC_EA           10
 ----------------------------------------------------
       Standard Nuclear Orientation (Angstroms)
    I     Atom         X            Y            Z
 ----------------------------------------------------
    1      C      -0.000040     0.000000     0.007790
    2      C      -0.000380     0.000000     1.466530
    3      C      -0.000380     0.000000     2.665650
    4      C      -0.000040     0.000000     4.124400
    5      H       1.021080     0.000000    -0.381910
    6      H      -0.510330    -0.884190    -0.382570
    7      H      -0.510330     0.884190    -0.382570
    8      H       1.021080     0.000000     4.514090
    9      H      -0.510330     0.884190     4.514750
   10      H      -0.510330    -0.884190     4.514750
 ----------------------------------------------------
 Nuclear Repulsion Energy =   100.1972419150 hartrees
 There are       16 alpha and       15 beta electrons
 Requested basis set is G3large
 There are 76 shells and 228 basis functions

Total QAlloc Memory Limit   2000 MB
Mega-Array Size       743 MB
MEM_STATIC part       760 MB

                       Distance Matrix (Angstroms)
             C (  1)   C (  2)   C (  3)   C (  4)   H (  5)   H (  6)
   C (  2)  1.458740
   C (  3)  2.657860  1.199120
   C (  4)  4.116610  2.657870  1.458750
   H (  5)  1.092956  2.111897  3.214188  4.620554
   H (  6)  1.092963  2.112111  3.214574  4.621143  1.768335
   H (  7)  1.092963  2.112111  3.214574  4.621143  1.768335  1.768380
   H (  8)  4.620544  3.214188  2.111897  1.092952  4.896000  5.206178
   H (  9)  4.621134  3.214574  2.112111  1.092960  5.206178  5.206814
   H ( 10)  4.621134  3.214574  2.112111  1.092960  5.206178  4.897320
             H (  7)   H (  8)   H (  9)
   H (  8)  5.206178
   H (  9)  4.897320  1.768335
   H ( 10)  5.206814  1.768335  1.768380
 
 A cutoff of  1.0D-08 yielded   2462 shell pairs
 There are  22445 function pairs ( 27525 Cartesian)
Evaluating contribution to one-electron hamiltonian from nuclear
 Smallest overlap matrix eigenvalue = 2.81E-08

 Q-Chem warning in module mkSTV.C, line 194:

 Overlap eigenvalue is smaller than square root of threshold

 Linear dependence detected in AO basis
 Number of orthogonalized atomic orbitals = 227
 Maximum deviation from orthogonality = 2.501E-11
 Multipole matrices computed through 2nd order

  Scale SEOQF with 1.000000e-01/1.000000e-01/1.000000e-01

 Standard Electronic Orientation quadrupole field applied
 Nucleus-field energy     =    -0.0000000231 hartrees
 Guess from superposition of atomic densities
 Warning:  Energy on first SCF cycle will be non-variational
 Long-range K will be added via erf
 Coulomb attenuation parameter = 0.3 bohr**(-1)
 An unrestricted Kohn-Sham SCF calculation will be
 performed using Pulay DIIS extrapolation
 Exchange:  wPBE + LR-HF      Correlation:  PBE
 Using SG-1 standard quadrature grid
 SCF converges when DIIS error is below 1.0E-05
 Requested basis set is G3large
 There are 76 shells and 228 basis functions
 A cutoff of  1.0D-08 yielded   2462 shell pairs
 There are  22445 function pairs ( 27525 Cartesian)
 Warning!  Inaccurate integrated density:
   Number of electrons =    31
   Numerical integral  =    29.999813857398
   Relative error      =    -3.2264069116 %
 ---------------------------------------
  Cycle       Energy         DIIS Error
 ---------------------------------------
    1    -156.8200815717      2.94E-02
    2    -155.5613341604      4.70E-03
    3    -155.5901432910      5.66E-03
    4    -155.8352444864      1.13E-03
    5    -155.8493534991      1.78E-04
    6    -155.8498912308      7.79E-05
    7    -155.8500546684      2.16E-05
    8    -155.8501279137      1.29E-05
    9    -155.8501530430      1.02E-05
   10    -155.8501620242      2.58E-06 Convergence criterion met
 ---------------------------------------
 One-Electron    Energy =  -410.2336807157
 Total Coulomb   Energy =   178.0223212553
 Alpha Exchange  Energy =    -2.3816595108
 Beta  Exchange  Energy =    -2.3287009704
 DFT   Exchange  Energy =   -18.1641251931
 DFT Correlation Energy =    -0.9615587814
 Nuclear Repu.   Energy =   100.1972418919
 Nuclear Attr.   Energy =  -565.4655764181
 Kinetic         Energy =   155.2318957025
 <S^2> = 0.7501
 SCF time:  CPU 180.11 s  wall 180.97 s
 Final Alpha MO Eigenvalues
            1           2           3           4           5           6
    1  -9.9356340  -9.9344008  -9.9093037  -9.9071259  -0.7580707  -0.7208706
            7           8           9          10          11          12
    1  -0.6397529  -0.4504212  -0.4070422  -0.4069816  -0.4032788  -0.3904247
           13          14          15          16          17          18
    1  -0.3903534  -0.2208508  -0.2208180   0.0297815   0.1120452   0.1427131
           19          20          21
    1   0.1428023   0.1630061   0.1630876
 Final Beta MO Eigenvalues
            1           2           3           4           5           6
    1  -9.9353082  -9.9340558  -9.9092861  -9.9071080  -0.7576619  -0.7202993
            7           8           9          10          11          12
    1  -0.6390936  -0.4498885  -0.4064323  -0.4063697  -0.4025778  -0.3899213
           13          14          15          16          17          18
    1  -0.3898475  -0.2205732  -0.2205467   0.1213926   0.1294235   0.1510127
           19          20
    1   0.1512163   0.1635652
 Analysis of SCF Wavefunction
 
 --------------------------------------------------------------
                    Orbital Energies (a.u.)
 --------------------------------------------------------------
 
 Alpha MOs
 -- Occupied --
 -9.936  -9.934  -9.909  -9.907  -0.758  -0.721  -0.640  -0.450
 -0.407  -0.407  -0.403  -0.390  -0.390  -0.221  -0.221   0.030
 -- Virtual --
  0.112   0.143   0.143   0.163   0.163   0.186   0.219   0.247
  0.247   0.260   0.260   0.264   0.264   0.272   0.278   0.279
  0.280   0.299   0.342   0.342   0.365   0.366   0.384   0.407
  0.407   0.414   0.440   0.462   0.463   0.565   0.630   0.630
  0.644   0.644   0.660   0.689   0.701   0.701   0.745   0.745
  0.776   0.776   0.825   0.825   0.832   0.832   0.843   0.845
  0.868   0.868   0.892   0.908   0.994   1.022   1.034   1.034
  1.074   1.076   1.106   1.143   1.143   1.214   1.214   1.252
  1.292   1.328   1.328   1.344   1.344   1.461   1.461   1.461
  1.461   1.490   1.542   1.549   1.601   1.601   1.619   1.619
  1.637   1.637   1.683   1.727   1.753   1.765   1.765   1.926
  1.926   2.310   2.345   2.509   2.510   2.719   2.719   2.762
  2.797   2.855   2.857   2.857   2.890   2.949   2.949   2.961
  3.047   3.047   3.093   3.129   3.136   3.140   3.148   3.148
  3.223   3.265   3.265   3.295   3.308   3.308   3.329   3.330
  3.330   3.358   3.358   3.438   3.439   3.565   3.565   3.611
  3.612   3.645   3.645   3.648   3.699   3.779   3.779   3.801
  3.801   3.816   3.990   3.990   4.037   4.039   4.039   4.065
  4.065   4.073   4.259   4.303   4.303   4.334   4.372   4.372
  4.471   4.471   4.539   4.539   4.543   4.573   4.583   4.711
  4.833   4.833   4.893   5.047   5.048   5.216   5.560   5.808
  5.808   5.827   5.827   6.064   6.065   6.446   6.974  23.711
 24.404  24.502  25.690  27.557  27.557  27.819  27.819  27.999
 28.166  28.166  28.199  28.199  28.212  28.819  29.699  40.940
 40.980  40.990  41.024  41.032  41.200  41.203  41.213  41.220
 41.227  41.251  41.274  41.277  41.308  41.315  41.340  41.342
 41.546  41.546  41.814
 
 Beta MOs
 -- Occupied --
 -9.935  -9.934  -9.909  -9.907  -0.758  -0.720  -0.639  -0.450
 -0.406  -0.406  -0.403  -0.390  -0.390  -0.221  -0.221
 -- Virtual --
  0.121   0.129   0.151   0.151   0.164   0.164   0.182   0.211
  0.243   0.243   0.255   0.255   0.261   0.261   0.271   0.271
  0.275   0.280   0.295   0.334   0.334   0.366   0.366   0.379
  0.405   0.406   0.411   0.439   0.454   0.456   0.558   0.628
  0.628   0.642   0.642   0.656   0.687   0.700   0.700   0.743
  0.743   0.774   0.774   0.825   0.825   0.831   0.831   0.841
  0.842   0.868   0.868   0.891   0.907   0.993   1.020   1.034
  1.035   1.075   1.077   1.106   1.143   1.144   1.214   1.214
  1.252   1.292   1.329   1.329   1.344   1.344   1.461   1.461
  1.462   1.462   1.490   1.542   1.548   1.601   1.601   1.619
  1.619   1.637   1.637   1.684   1.727   1.753   1.765   1.765
  1.926   1.926   2.309   2.345   2.509   2.510   2.719   2.719
  2.761   2.796   2.855   2.857   2.857   2.890   2.949   2.949
  2.961   3.047   3.047   3.093   3.130   3.136   3.141   3.148
  3.148   3.223   3.265   3.265   3.295   3.308   3.308   3.328
  3.330   3.330   3.358   3.358   3.439   3.439   3.565   3.565
  3.612   3.612   3.645   3.645   3.648   3.700   3.779   3.779
  3.802   3.802   3.817   3.990   3.990   4.038   4.040   4.040
  4.065   4.065   4.073   4.259   4.303   4.303   4.335   4.373
  4.373   4.471   4.471   4.539   4.539   4.543   4.573   4.583
  4.711   4.833   4.833   4.893   5.048   5.048   5.217   5.561
  5.808   5.808   5.828   5.828   6.065   6.065   6.446   6.974
 23.711  24.404  24.503  25.690  27.557  27.557  27.819  27.819
 27.999  28.166  28.166  28.199  28.199  28.212  28.820  29.699
 40.940  40.980  40.990  41.024  41.032  41.201  41.203  41.213
 41.220  41.227  41.251  41.274  41.277  41.308  41.315  41.340
 41.343  41.546  41.546  41.814
 --------------------------------------------------------------
 
          Ground-State Mulliken Net Atomic Charges

     Atom                 Charge (a.u.)    Spin (a.u.)
  --------------------------------------------------------
      1 C                     4.839821      -5.563287
      2 C                    -3.634812       4.045917
      3 C                    -3.761692       4.176376
      4 C                     5.068237      -5.790486
      5 H                    -0.566382       0.669495
      6 H                    -0.577697       0.681229
      7 H                    -0.559619       0.662355
      8 H                    -0.601183       0.704695
      9 H                    -0.593638       0.696752
     10 H                    -0.613035       0.716952
  --------------------------------------------------------
  Sum of atomic charges =    -1.000000
  Sum of spin   charges =     1.000000

 -----------------------------------------------------------------
                    Cartesian Multipole Moments
 -----------------------------------------------------------------
    Charge (ESU x 10^10)
                -4.8032
    Dipole Moment (Debye)
         X       0.0199      Y       0.1253      Z     -10.3009
       Tot      10.3017
    Quadrupole Moments (Debye-Ang)
        XX     -51.8709     XY      -0.1072     YY     -51.8988
        XZ       0.0388     YZ       0.2712     ZZ     -95.9726
    Octapole Moments (Debye-Ang^2)
       XXX      -4.3319    XXY       0.4796    XYY       4.6335
       YYY       1.4389    XXZ    -109.0031    XYZ      -0.2306
       YYZ    -109.0593    XZZ       0.2229    YZZ       1.7764
       ZZZ    -513.2385
    Hexadecapole Moments (Debye-Ang^3)
      XXXX    -350.0223   XXXY      -0.8507   XXYY    -116.7680
      XYYY      -0.9876   YYYY    -350.5104   XXXZ      -9.3399
      XXYZ       1.0325   XYYZ       9.9348   YYYZ       3.0974
      XXZZ    -551.0350   XYZZ      -1.3248   YYZZ    -551.3786
      XZZZ       1.0159   YZZZ       8.8461   ZZZZ   -3775.6142
 -----------------------------------------------------------------
 Total job time:  181.31s(wall), 180.44s(cpu) 
 Wed May 22 11:20:23 2013

        *************************************************************
        *                                                           *
        *  Thank you very much for using Q-Chem.  Have a nice day.  *
        *                                                           *
        *************************************************************


0 sent ACK to 0 
now end server 0 ... 
 
**********************************************************************
Job 2 of 3 
**********************************************************************
 
Process 0 of 1 is on cl199.stfx.acenet.ca - thread support 1
initial socket setup ...start
initial socket setup ...done 
now start server 0 ... 

cmd = /usr/bin/ssh clhead /usr/local/qchem/bin/get_hostid 26428538 > /scratch/tmp/5998059.1.medium.q/qchem7955/lic.dat
                  Welcome to Q-Chem
     A Quantum Leap Into The Future Of Chemistry

 Y. Shao, L. Fusti-Molnar, Y. Jung, J. Kussmann, C. Ochsenfeld,
 S. T. Brown, A. T. B. Gilbert, L. V. Slipchenko,S. V. Levchenko,
 D. P. O'Neill, R. A. DiStasio Jr., R. C. Lochan, T. Wang,
 G. J. O. Beran, N. A. Besley, J. M. Herbert, C. Y. Lin,
 T. Van Voorhis, S. H. Chien, A. Sodt, R. P. Steele, 
 V. A. Rassolov, P. E. Maslen, P. P. Korambath, R. D. Adamson,
 B. Austin, J. Baker, E. F. C. Byrd, H. Dachsel, R. J. Doerksen,
 A. Dreuw, B. D. Dunietz, A. D. Dutoi, T. R. Furlani,
 S. R. Gwaltney, A. Heyden, S. Hirata, C.-P. Hsu, G. Kedziora,
 R. Z. Khaliullin, P. Klunzinger, A. M. Lee, M. S. Lee, W. Liang,
 I. Lotan, N. Nair, B. Peters, E. I. Proynov, P. A. Pieniazek, 
 Y. M. Rhee, J. Ritchie, E. Rosta, C. D. Sherrill, 
 A. C. Simmonett, J. E. Subotnik, H. L. Woodcock III,
 W. Zhang, A. T. Bell, A. K. Chakraborty, D. M. Chipman,
 F. J. Keil, A. Warshel, W. J. Hehre, H. F. Schaefer III,
 J. Kong, A. I. Krylov, P. M. W. Gill, M. Head-Gordon,
 Q-Chem, Version 3.1, Q-Chem, Inc., Pittsburgh, PA (2007).

 Additional authors for Version 3.1: 
 Z. Gan, Y. Zhao, N. E. Schultz, D. Truhlar, E. Epifanovsky and M. Oana.

 Additional authors for Version 3.2: 
 R. Baer, B. R. Brooks, D. Casanova, J.-D. Chai, C.-L. Cheng, 
 C. Cramer, D. Crittenden, A. Ghysels, G. Hawkins, E. G. Hohenstein, 
 C. Kelley, W. Kurlancheek, D. Liotard, E. Livshits, P. Manohar, 
 A. Marenich, D. Neuhauser, R. Olson, M. A. Rohrdanz, K. S. Thanthiriwatte, 
 A. J. W. Thom, V. Vanovschi, C. F. Williams, Q. Wu and Z.-Q. You. 


 Intel X86 Linux Version

 Q-chem begins on Wed May 22 11:20:26 2013  

 Parallel job on  1  processors
Processing $rem in /usr/local/qchem/config/preferences.

theFileMan(): MAXOPENFILES=974 MAX_SUB_FILE_NUM=16
Maximum size of a physical file is 2.0 GB, maximum size of a tmp-file is 32.0 GB


--------------------------------------------------------------
User input:
--------------------------------------------------------------

$molecule
0,1
C         -0.00004        0.00000        0.00779
C         -0.00038        0.00000        1.46653
C         -0.00038        0.00000        2.66565
C         -0.00004        0.00000        4.12440
H          1.02108        0.00000       -0.38191
H         -0.51033       -0.88419       -0.38257
H         -0.51033        0.88419       -0.38257
H          1.02108        0.00000        4.51409
H         -0.51033        0.88419        4.51475
H         -0.51033       -0.88419        4.51475
$end

$comment
neutral
$end

$xc_functional
C PBE   1.00
X wPBE  1.00
$end


$rem
SYMMETRY_DECOMPOSITION	0
LRC_DFT                 true
exchange 		general
BASIS                   g3large
omega			300
mem_static              760
max_scf_cycles          200
scf_final_print         1
sym_ignore              true
$end

--------------------------------------------------------------
 Writing REM_CC_EA           10
 ----------------------------------------------------
       Standard Nuclear Orientation (Angstroms)
    I     Atom         X            Y            Z
 ----------------------------------------------------
    1      C      -0.000040     0.000000     0.007790
    2      C      -0.000380     0.000000     1.466530
    3      C      -0.000380     0.000000     2.665650
    4      C      -0.000040     0.000000     4.124400
    5      H       1.021080     0.000000    -0.381910
    6      H      -0.510330    -0.884190    -0.382570
    7      H      -0.510330     0.884190    -0.382570
    8      H       1.021080     0.000000     4.514090
    9      H      -0.510330     0.884190     4.514750
   10      H      -0.510330    -0.884190     4.514750
 ----------------------------------------------------
 Nuclear Repulsion Energy =   100.1972419150 hartrees
 There are       15 alpha and       15 beta electrons
 Requested basis set is G3large
 There are 76 shells and 228 basis functions

Total QAlloc Memory Limit   2000 MB
Mega-Array Size       743 MB
MEM_STATIC part       760 MB

                       Distance Matrix (Angstroms)
             C (  1)   C (  2)   C (  3)   C (  4)   H (  5)   H (  6)
   C (  2)  1.458740
   C (  3)  2.657860  1.199120
   C (  4)  4.116610  2.657870  1.458750
   H (  5)  1.092956  2.111897  3.214188  4.620554
   H (  6)  1.092963  2.112111  3.214574  4.621143  1.768335
   H (  7)  1.092963  2.112111  3.214574  4.621143  1.768335  1.768380
   H (  8)  4.620544  3.214188  2.111897  1.092952  4.896000  5.206178
   H (  9)  4.621134  3.214574  2.112111  1.092960  5.206178  5.206814
   H ( 10)  4.621134  3.214574  2.112111  1.092960  5.206178  4.897320
             H (  7)   H (  8)   H (  9)
   H (  8)  5.206178
   H (  9)  4.897320  1.768335
   H ( 10)  5.206814  1.768335  1.768380
 
 A cutoff of  1.0D-08 yielded   2462 shell pairs
 There are  22445 function pairs ( 27525 Cartesian)
Evaluating contribution to one-electron hamiltonian from nuclear
 Smallest overlap matrix eigenvalue = 2.81E-08

 Q-Chem warning in module mkSTV.C, line 194:

 Overlap eigenvalue is smaller than square root of threshold

 Linear dependence detected in AO basis
 Number of orthogonalized atomic orbitals = 227
 Maximum deviation from orthogonality = 2.501E-11
 Multipole matrices computed through 2nd order

  Scale SEOQF with 1.000000e-01/1.000000e-01/1.000000e-01

 Standard Electronic Orientation quadrupole field applied
 Nucleus-field energy     =    -0.0000000231 hartrees
 Guess from superposition of atomic densities
 Warning:  Energy on first SCF cycle will be non-variational
 Long-range K will be added via erf
 Coulomb attenuation parameter = 0.3 bohr**(-1)
 A restricted Kohn-Sham SCF calculation will be
 performed using Pulay DIIS extrapolation
 Exchange:  wPBE + LR-HF      Correlation:  PBE
 Using SG-1 standard quadrature grid
 SCF converges when DIIS error is below 1.0E-05
 Requested basis set is G3large
 There are 76 shells and 228 basis functions
 A cutoff of  1.0D-08 yielded   2462 shell pairs
 There are  22445 function pairs ( 27525 Cartesian)
 ---------------------------------------
  Cycle       Energy         DIIS Error
 ---------------------------------------
    1    -156.8200815717      2.94E-02
    2    -155.8262872760      2.93E-03
    3    -155.8677372780      1.53E-03
    4    -155.8824400965      1.88E-04
    5    -155.8827336606      4.54E-05
    6    -155.8827489088      1.82E-05
    7    -155.8827529266      4.16E-06 Convergence criterion met
 ---------------------------------------
 One-Electron    Energy =  -406.5495164747
 Total Coulomb   Energy =   174.2413634031
 Alpha Exchange  Energy =    -2.3294643514
 Beta  Exchange  Energy =    -2.3294643514
 DFT   Exchange  Energy =   -18.1575012170
 DFT Correlation Energy =    -0.9554118271
 Nuclear Repu.   Energy =   100.1972418919
 Nuclear Attr.   Energy =  -561.7197596894
 Kinetic         Energy =   155.1702432146
 SCF time:  CPU 97.63 s  wall 98.20 s
 Final Alpha MO Eigenvalues
            1           2           3           4           5           6
    1 -10.0598129 -10.0597934 -10.0336302 -10.0314556  -0.8821786  -0.8445227
            7           8           9          10          11          12
    1  -0.7638324  -0.5740151  -0.5305524  -0.5305482  -0.5268203  -0.5139548
           13          14          15          16          17          18
    1  -0.5139463  -0.3452254  -0.3452176   0.0366985   0.0474564   0.0679779
           19          20
    1   0.0679907   0.0807218
 Analysis of SCF Wavefunction
 
 --------------------------------------------------------------
                    Orbital Energies (a.u.)
 --------------------------------------------------------------
 
 Alpha MOs
 -- Occupied --
-10.060 -10.060 -10.034 -10.031  -0.882  -0.845  -0.764  -0.574
 -0.531  -0.531  -0.527  -0.514  -0.514  -0.345  -0.345
 -- Virtual --
  0.037   0.047   0.068   0.068   0.081   0.081   0.100   0.128
  0.141   0.141   0.147   0.147   0.164   0.164   0.172   0.178
  0.178   0.179   0.196   0.239   0.239   0.251   0.251   0.275
  0.292   0.292   0.297   0.320   0.356   0.357   0.451   0.512
  0.512   0.528   0.528   0.545   0.571   0.582   0.582   0.626
  0.626   0.657   0.657   0.702   0.702   0.712   0.712   0.725
  0.726   0.744   0.744   0.772   0.789   0.874   0.902   0.911
  0.911   0.953   0.953   0.984   1.020   1.020   1.091   1.091
  1.129   1.169   1.207   1.207   1.223   1.223   1.339   1.339
  1.339   1.339   1.368   1.422   1.427   1.481   1.481   1.497
  1.497   1.516   1.516   1.561   1.607   1.633   1.642   1.642
  1.803   1.803   2.185   2.222   2.387   2.387   2.596   2.596
  2.639   2.675   2.730   2.733   2.733   2.765   2.825   2.825
  2.837   2.923   2.923   2.969   3.006   3.012   3.016   3.024
  3.024   3.100   3.141   3.141   3.170   3.184   3.184   3.205
  3.206   3.206   3.233   3.233   3.315   3.315   3.441   3.441
  3.488   3.488   3.521   3.521   3.525   3.576   3.655   3.655
  3.678   3.678   3.693   3.866   3.866   3.914   3.916   3.916
  3.941   3.941   3.950   4.135   4.179   4.179   4.211   4.249
  4.249   4.347   4.347   4.415   4.415   4.419   4.449   4.459
  4.587   4.709   4.709   4.770   4.923   4.923   5.093   5.436
  5.684   5.684   5.704   5.704   5.940   5.940   6.322   6.850
 23.587  24.279  24.378  25.566  27.433  27.433  27.694  27.694
 27.875  28.041  28.041  28.074  28.074  28.088  28.695  29.575
 40.816  40.856  40.866  40.899  40.908  41.076  41.078  41.088
 41.095  41.103  41.126  41.150  41.153  41.183  41.191  41.216
 41.218  41.421  41.422  41.689
 --------------------------------------------------------------
 
          Ground-State Mulliken Net Atomic Charges

     Atom                 Charge (a.u.)
  ----------------------------------------
      1 C                    -0.688186
      2 C                     0.378812
      3 C                     0.379697
      4 C                    -0.688681
      5 H                     0.103081
      6 H                     0.103107
      7 H                     0.102989
      8 H                     0.103087
      9 H                     0.102994
     10 H                     0.103101
  ----------------------------------------
  Sum of atomic charges =     0.000000

 -----------------------------------------------------------------
                    Cartesian Multipole Moments
 -----------------------------------------------------------------
    Charge (ESU x 10^10)
                 0.0000
    Dipole Moment (Debye)
         X       0.0009      Y      -0.0004      Z       0.0003
       Tot       0.0010
    Quadrupole Moments (Debye-Ang)
        XX     -25.6707     XY       0.0002     YY     -25.6703
        XZ       0.0019     YZ      -0.0008     ZZ     -18.9848
    Octapole Moments (Debye-Ang^2)
       XXX       1.5146    XXY      -0.0002    XYY      -1.4951
       YYY      -0.0006    XXZ     -53.0380    XYZ       0.0005
       YYZ     -53.0373    XZZ       0.0047    YZZ      -0.0047
       ZZZ    -117.6770
    Hexadecapole Moments (Debye-Ang^3)
      XXXX     -42.2575   XXXY       0.0005   XXYY     -14.0868
      XYYY       0.0007   YYYY     -42.2586   XXXZ       3.1294
      XXYZ      -0.0004   XYYZ      -3.0889   YYYZ      -0.0013
      XXZZ    -189.5370   XYZZ       0.0049   YYZZ    -189.5263
      XZZZ       0.0125   YZZZ      -0.0225   ZZZZ    -941.4774
 -----------------------------------------------------------------
 Total job time:  98.52s(wall), 97.94s(cpu) 
 Wed May 22 11:22:04 2013

        *************************************************************
        *                                                           *
        *  Thank you very much for using Q-Chem.  Have a nice day.  *
        *                                                           *
        *************************************************************


0 sent ACK to 0 
now end server 0 ... 
 
**********************************************************************
Job 3 of 3 
**********************************************************************
 
Process 0 of 1 is on cl199.stfx.acenet.ca - thread support 1
initial socket setup ...start
initial socket setup ...done 
now start server 0 ... 

cmd = /usr/bin/ssh clhead /usr/local/qchem/bin/get_hostid 1218893312 > /scratch/tmp/5998059.1.medium.q/qchem7955/lic.dat
                  Welcome to Q-Chem
     A Quantum Leap Into The Future Of Chemistry

 Y. Shao, L. Fusti-Molnar, Y. Jung, J. Kussmann, C. Ochsenfeld,
 S. T. Brown, A. T. B. Gilbert, L. V. Slipchenko,S. V. Levchenko,
 D. P. O'Neill, R. A. DiStasio Jr., R. C. Lochan, T. Wang,
 G. J. O. Beran, N. A. Besley, J. M. Herbert, C. Y. Lin,
 T. Van Voorhis, S. H. Chien, A. Sodt, R. P. Steele, 
 V. A. Rassolov, P. E. Maslen, P. P. Korambath, R. D. Adamson,
 B. Austin, J. Baker, E. F. C. Byrd, H. Dachsel, R. J. Doerksen,
 A. Dreuw, B. D. Dunietz, A. D. Dutoi, T. R. Furlani,
 S. R. Gwaltney, A. Heyden, S. Hirata, C.-P. Hsu, G. Kedziora,
 R. Z. Khaliullin, P. Klunzinger, A. M. Lee, M. S. Lee, W. Liang,
 I. Lotan, N. Nair, B. Peters, E. I. Proynov, P. A. Pieniazek, 
 Y. M. Rhee, J. Ritchie, E. Rosta, C. D. Sherrill, 
 A. C. Simmonett, J. E. Subotnik, H. L. Woodcock III,
 W. Zhang, A. T. Bell, A. K. Chakraborty, D. M. Chipman,
 F. J. Keil, A. Warshel, W. J. Hehre, H. F. Schaefer III,
 J. Kong, A. I. Krylov, P. M. W. Gill, M. Head-Gordon,
 Q-Chem, Version 3.1, Q-Chem, Inc., Pittsburgh, PA (2007).

 Additional authors for Version 3.1: 
 Z. Gan, Y. Zhao, N. E. Schultz, D. Truhlar, E. Epifanovsky and M. Oana.

 Additional authors for Version 3.2: 
 R. Baer, B. R. Brooks, D. Casanova, J.-D. Chai, C.-L. Cheng, 
 C. Cramer, D. Crittenden, A. Ghysels, G. Hawkins, E. G. Hohenstein, 
 C. Kelley, W. Kurlancheek, D. Liotard, E. Livshits, P. Manohar, 
 A. Marenich, D. Neuhauser, R. Olson, M. A. Rohrdanz, K. S. Thanthiriwatte, 
 A. J. W. Thom, V. Vanovschi, C. F. Williams, Q. Wu and Z.-Q. You. 


 Intel X86 Linux Version

 Q-chem begins on Wed May 22 11:22:08 2013  

 Parallel job on  1  processors
Processing $rem in /usr/local/qchem/config/preferences.

theFileMan(): MAXOPENFILES=974 MAX_SUB_FILE_NUM=16
Maximum size of a physical file is 2.0 GB, maximum size of a tmp-file is 32.0 GB


--------------------------------------------------------------
User input:
--------------------------------------------------------------

$molecule
1,2
C         -0.00004        0.00000        0.00779
C         -0.00038        0.00000        1.46653
C         -0.00038        0.00000        2.66565
C         -0.00004        0.00000        4.12440
H          1.02108        0.00000       -0.38191
H         -0.51033       -0.88419       -0.38257
H         -0.51033        0.88419       -0.38257
H          1.02108        0.00000        4.51409
H         -0.51033        0.88419        4.51475
H         -0.51033       -0.88419        4.51475
$end

$comment
positive
$end

$xc_functional
C PBE   1.00
X wPBE  1.00
$end

$rem
SYMMETRY_DECOMPOSITION	0
LRC_DFT                 true
exchange 		general
BASIS                   g3large
omega			300
mem_static              760
max_scf_cycles          200
scf_final_print         1
sym_ignore              true
$end

--------------------------------------------------------------
 Writing REM_CC_EA           10
 ----------------------------------------------------
       Standard Nuclear Orientation (Angstroms)
    I     Atom         X            Y            Z
 ----------------------------------------------------
    1      C      -0.000040     0.000000     0.007790
    2      C      -0.000380     0.000000     1.466530
    3      C      -0.000380     0.000000     2.665650
    4      C      -0.000040     0.000000     4.124400
    5      H       1.021080     0.000000    -0.381910
    6      H      -0.510330    -0.884190    -0.382570
    7      H      -0.510330     0.884190    -0.382570
    8      H       1.021080     0.000000     4.514090
    9      H      -0.510330     0.884190     4.514750
   10      H      -0.510330    -0.884190     4.514750
 ----------------------------------------------------
 Nuclear Repulsion Energy =   100.1972419150 hartrees
 There are       15 alpha and       14 beta electrons
 Requested basis set is G3large
 There are 76 shells and 228 basis functions

Total QAlloc Memory Limit   2000 MB
Mega-Array Size       743 MB
MEM_STATIC part       760 MB

                       Distance Matrix (Angstroms)
             C (  1)   C (  2)   C (  3)   C (  4)   H (  5)   H (  6)
   C (  2)  1.458740
   C (  3)  2.657860  1.199120
   C (  4)  4.116610  2.657870  1.458750
   H (  5)  1.092956  2.111897  3.214188  4.620554
   H (  6)  1.092963  2.112111  3.214574  4.621143  1.768335
   H (  7)  1.092963  2.112111  3.214574  4.621143  1.768335  1.768380
   H (  8)  4.620544  3.214188  2.111897  1.092952  4.896000  5.206178
   H (  9)  4.621134  3.214574  2.112111  1.092960  5.206178  5.206814
   H ( 10)  4.621134  3.214574  2.112111  1.092960  5.206178  4.897320
             H (  7)   H (  8)   H (  9)
   H (  8)  5.206178
   H (  9)  4.897320  1.768335
   H ( 10)  5.206814  1.768335  1.768380
 
 A cutoff of  1.0D-08 yielded   2462 shell pairs
 There are  22445 function pairs ( 27525 Cartesian)
Evaluating contribution to one-electron hamiltonian from nuclear
 Smallest overlap matrix eigenvalue = 2.81E-08

 Q-Chem warning in module mkSTV.C, line 194:

 Overlap eigenvalue is smaller than square root of threshold

 Linear dependence detected in AO basis
 Number of orthogonalized atomic orbitals = 227
 Maximum deviation from orthogonality = 2.501E-11
 Multipole matrices computed through 2nd order

  Scale SEOQF with 1.000000e-01/1.000000e-01/1.000000e-01

 Standard Electronic Orientation quadrupole field applied
 Nucleus-field energy     =    -0.0000000231 hartrees
 Guess from superposition of atomic densities
 Warning:  Energy on first SCF cycle will be non-variational
 Long-range K will be added via erf
 Coulomb attenuation parameter = 0.3 bohr**(-1)
 An unrestricted Kohn-Sham SCF calculation will be
 performed using Pulay DIIS extrapolation
 Exchange:  wPBE + LR-HF      Correlation:  PBE
 Using SG-1 standard quadrature grid
 SCF converges when DIIS error is below 1.0E-05
 Requested basis set is G3large
 There are 76 shells and 228 basis functions
 A cutoff of  1.0D-08 yielded   2462 shell pairs
 There are  22445 function pairs ( 27525 Cartesian)
 Warning!  Inaccurate integrated density:
   Number of electrons =    29
   Numerical integral  =    29.999813857398
   Relative error      =     3.4476339910 %
 ---------------------------------------
  Cycle       Energy         DIIS Error
 ---------------------------------------
    1    -156.8200815717      2.94E-02
    2    -155.5002702602      1.97E-03
    3    -155.5250205408      9.35E-04
    4    -155.5301624578      3.56E-04
    5    -155.5310242901      3.90E-05
    6    -155.5310430392      1.03E-05
    7    -155.5310454905      2.66E-06 Convergence criterion met
 ---------------------------------------
 One-Electron    Energy =  -398.9346363093
 Total Coulomb   Energy =   166.6619801213
 Alpha Exchange  Energy =    -2.3380964213
 Beta  Exchange  Energy =    -2.1804568639
 DFT   Exchange  Energy =   -18.0199032492
 DFT Correlation Energy =    -0.9171746600
 Nuclear Repu.   Energy =   100.1972418919
 Nuclear Attr.   Energy =  -553.8851188258
 Kinetic         Energy =   154.9504825165
 <S^2> = 0.7525
 SCF time:  CPU 120.75 s  wall 121.18 s
 Final Alpha MO Eigenvalues
            1           2           3           4           5           6
    1 -10.3583657 -10.3561602 -10.2829644 -10.2829387  -1.1768094  -1.0820810
            7           8           9          10          11          12
    1  -1.0329729  -0.8171423  -0.7832068  -0.7787795  -0.7638604  -0.7389418
           13          14          15          16          17          18
    1  -0.7294096  -0.6452817  -0.6192713  -0.1416885  -0.1179072  -0.1046600
           19          20
    1  -0.0781152  -0.0632230
 Final Beta MO Eigenvalues
            1           2           3           4           5           6
    1 -10.3517783 -10.3496565 -10.2827902 -10.2827639  -1.1483737  -1.0776466
            7           8           9          10          11          12
    1  -1.0212024  -0.8081160  -0.7738622  -0.7598557  -0.7450669  -0.7278591
           13          14          15          16          17          18
    1  -0.7223681  -0.6108574  -0.3569756  -0.1111015  -0.1032052  -0.0901701
           19
    1  -0.0771273
 Analysis of SCF Wavefunction
 
 --------------------------------------------------------------
                    Orbital Energies (a.u.)
 --------------------------------------------------------------
 
 Alpha MOs
 -- Occupied --
-10.358 -10.356 -10.283 -10.283  -1.177  -1.082  -1.033  -0.817
 -0.783  -0.779  -0.764  -0.739  -0.729  -0.645  -0.619
 -- Virtual --
 -0.142  -0.118  -0.105  -0.078  -0.063  -0.060  -0.036  -0.034
 -0.031  -0.008  -0.008  -0.006   0.021   0.022   0.022   0.026
  0.028   0.029   0.053   0.080   0.084   0.084   0.086   0.089
  0.109   0.112   0.117   0.125   0.198   0.198   0.264   0.315
  0.322   0.345   0.346   0.364   0.365   0.368   0.375   0.426
  0.433   0.438   0.439   0.466   0.468   0.484   0.495   0.512
  0.522   0.544   0.547   0.557   0.573   0.679   0.679   0.681
  0.687   0.761   0.761   0.782   0.797   0.805   0.860   0.872
  0.882   0.925   1.003   1.005   1.026   1.028   1.115   1.117
  1.119   1.122   1.156   1.216   1.225   1.277   1.281   1.283
  1.284   1.315   1.319   1.363   1.410   1.416   1.421   1.443
  1.569   1.578   1.912   1.965   2.152   2.158   2.369   2.377
  2.397   2.416   2.428   2.450   2.460   2.478   2.545   2.549
  2.564   2.635   2.638   2.735   2.763   2.768   2.777   2.782
  2.787   2.824   2.882   2.899   2.902   2.928   2.935   2.946
  2.947   2.949   2.951   2.954   3.076   3.083   3.177   3.182
  3.220   3.230   3.261   3.266   3.284   3.328   3.396   3.403
  3.443   3.446   3.462   3.619   3.627   3.675   3.681   3.685
  3.692   3.694   3.731   3.887   3.931   3.932   3.972   4.028
  4.029   4.122   4.122   4.183   4.189   4.201   4.232   4.241
  4.349   4.464   4.470   4.542   4.647   4.664   4.869   5.175
  5.462   5.470   5.476   5.485   5.637   5.660   6.044   6.572
 23.267  24.053  24.141  25.251  27.102  27.115  27.362  27.375
 27.624  27.815  27.817  27.850  27.852  27.859  28.407  29.261
 40.486  40.527  40.560  40.676  40.683  40.758  40.783  40.793
 40.800  40.836  40.839  40.915  40.919  40.949  40.956  40.985
 40.991  41.102  41.111  41.379
 
 Beta MOs
 -- Occupied --
-10.352 -10.350 -10.283 -10.283  -1.148  -1.078  -1.021  -0.808
 -0.774  -0.760  -0.745  -0.728  -0.722  -0.611
 -- Virtual --
 -0.357  -0.111  -0.103  -0.090  -0.077  -0.062  -0.060  -0.035
 -0.031  -0.031  -0.007  -0.005  -0.005   0.023   0.024   0.024
  0.029   0.030   0.035   0.055   0.084   0.085   0.087   0.089
  0.094   0.113   0.119   0.121   0.126   0.199   0.201   0.267
  0.324   0.324   0.348   0.348   0.368   0.377   0.378   0.380
  0.441   0.441   0.447   0.449   0.480   0.482   0.497   0.497
  0.525   0.525   0.547   0.549   0.562   0.580   0.687   0.688
  0.689   0.690   0.765   0.765   0.785   0.806   0.808   0.874
  0.876   0.898   0.931   1.007   1.008   1.030   1.031   1.126
  1.127   1.127   1.128   1.161   1.218   1.228   1.284   1.285
  1.289   1.289   1.318   1.320   1.366   1.419   1.424   1.425
  1.446   1.581   1.582   1.930   1.977   2.163   2.165   2.378
  2.380   2.414   2.456   2.457   2.464   2.465   2.502   2.567
  2.568   2.571   2.657   2.659   2.746   2.773   2.781   2.782
  2.786   2.791   2.846   2.910   2.910   2.912   2.951   2.953
  2.956   2.958   2.958   2.970   2.972   3.087   3.088   3.195
  3.197   3.240   3.242   3.279   3.281   3.292   3.336   3.413
  3.415   3.451   3.452   3.467   3.631   3.632   3.688   3.694
  3.695   3.697   3.697   3.734   3.897   3.942   3.945   3.977
  4.034   4.035   4.128   4.129   4.194   4.194   4.207   4.237
  4.247   4.354   4.477   4.478   4.548   4.667   4.670   4.875
  5.183   5.470   5.473   5.486   5.489   5.664   5.669   6.049
  6.580  23.275  24.054  24.143  25.259  27.119  27.122  27.379
 27.382  27.625  27.817  27.817  27.852  27.852  27.859  28.410
 29.265  40.501  40.542  40.565  40.677  40.684  40.773  40.795
 40.797  40.815  40.836  40.839  40.916  40.920  40.951  40.956
 40.986  40.992  41.113  41.114  41.384
 --------------------------------------------------------------
 
          Ground-State Mulliken Net Atomic Charges

     Atom                 Charge (a.u.)    Spin (a.u.)
  --------------------------------------------------------
      1 C                    -0.522563       0.002126
      2 C                     0.547267       0.424437
      3 C                     0.547458       0.424505
      4 C                    -0.522590       0.002073
      5 H                     0.158450       0.024645
      6 H                     0.153522       0.002713
      7 H                     0.163252       0.046078
      8 H                     0.158446       0.024590
      9 H                     0.163246       0.046138
     10 H                     0.153513       0.002694
  --------------------------------------------------------
  Sum of atomic charges =     1.000000
  Sum of spin   charges =     1.000000

 -----------------------------------------------------------------
                    Cartesian Multipole Moments
 -----------------------------------------------------------------
    Charge (ESU x 10^10)
                 4.8032
    Dipole Moment (Debye)
         X       0.0016      Y       0.1619      Z       9.9239
       Tot       9.9252
    Quadrupole Moments (Debye-Ang)
        XX     -21.3080     XY      -0.8121     YY     -21.3069
        XZ       0.0030     YZ       0.3348     ZZ      19.4938
    Octapole Moments (Debye-Ang^2)
       XXX       2.1880    XXY       0.0717    XYY      -2.1685
       YYY       0.2137    XXZ     -44.0247    XYZ      -1.6780
       YYZ     -44.0223    XZZ       0.0183    YZZ       2.0680
       ZZZ      36.1007
    Hexadecapole Moments (Debye-Ang^3)
      XXXX     -31.8473   XXXY      -0.6843   XXYY     -10.6173
      XYYY      -0.7208   YYYY     -31.8486   XXXZ       4.5204
      XXYZ       0.1482   XYYZ      -4.4802   YYYZ       0.4417
      XXZZ    -152.8612   XYZZ      -5.0625   YYZZ    -152.8467
      XZZZ       0.0869   YZZZ       9.9604   ZZZZ    -236.1520
 -----------------------------------------------------------------
 Total job time:  121.50s(wall), 121.06s(cpu) 
 Wed May 22 11:24:09 2013

        *************************************************************
        *                                                           *
        *  Thank you very much for using Q-Chem.  Have a nice day.  *
        *                                                           *
        *************************************************************


0 sent ACK to 0 
now end server 0 ... 
