Process 0 of 1 is on cl130.stfx.acenet.ca - thread support 1
initial socket setup ...start
initial socket setup ...done 
now start server 0 ... 

cmd = /usr/bin/ssh clhead /usr/local/qchem/bin/get_hostid 796757843 > /scratch/tmp/6027536.1.short.q/qchem14405/lic.dat
                  Welcome to Q-Chem
     A Quantum Leap Into The Future Of Chemistry

 Y. Shao, L. Fusti-Molnar, Y. Jung, J. Kussmann, C. Ochsenfeld,
 S. T. Brown, A. T. B. Gilbert, L. V. Slipchenko,S. V. Levchenko,
 D. P. O'Neill, R. A. DiStasio Jr., R. C. Lochan, T. Wang,
 G. J. O. Beran, N. A. Besley, J. M. Herbert, C. Y. Lin,
 T. Van Voorhis, S. H. Chien, A. Sodt, R. P. Steele, 
 V. A. Rassolov, P. E. Maslen, P. P. Korambath, R. D. Adamson,
 B. Austin, J. Baker, E. F. C. Byrd, H. Dachsel, R. J. Doerksen,
 A. Dreuw, B. D. Dunietz, A. D. Dutoi, T. R. Furlani,
 S. R. Gwaltney, A. Heyden, S. Hirata, C.-P. Hsu, G. Kedziora,
 R. Z. Khaliullin, P. Klunzinger, A. M. Lee, M. S. Lee, W. Liang,
 I. Lotan, N. Nair, B. Peters, E. I. Proynov, P. A. Pieniazek, 
 Y. M. Rhee, J. Ritchie, E. Rosta, C. D. Sherrill, 
 A. C. Simmonett, J. E. Subotnik, H. L. Woodcock III,
 W. Zhang, A. T. Bell, A. K. Chakraborty, D. M. Chipman,
 F. J. Keil, A. Warshel, W. J. Hehre, H. F. Schaefer III,
 J. Kong, A. I. Krylov, P. M. W. Gill, M. Head-Gordon,
 Q-Chem, Version 3.1, Q-Chem, Inc., Pittsburgh, PA (2007).

 Additional authors for Version 3.1: 
 Z. Gan, Y. Zhao, N. E. Schultz, D. Truhlar, E. Epifanovsky and M. Oana.

 Additional authors for Version 3.2: 
 R. Baer, B. R. Brooks, D. Casanova, J.-D. Chai, C.-L. Cheng, 
 C. Cramer, D. Crittenden, A. Ghysels, G. Hawkins, E. G. Hohenstein, 
 C. Kelley, W. Kurlancheek, D. Liotard, E. Livshits, P. Manohar, 
 A. Marenich, D. Neuhauser, R. Olson, M. A. Rohrdanz, K. S. Thanthiriwatte, 
 A. J. W. Thom, V. Vanovschi, C. F. Williams, Q. Wu and Z.-Q. You. 


 Intel X86 Linux Version

 Q-chem begins on Mon Jun  3 15:21:50 2013  

 Parallel job on  1  processors
Processing $rem in /usr/local/qchem/config/preferences.

theFileMan(): MAXOPENFILES=974 MAX_SUB_FILE_NUM=16
Maximum size of a physical file is 2.0 GB, maximum size of a tmp-file is 32.0 GB


--------------------------------------------------------------
User input:
--------------------------------------------------------------

$molecule
0,4
C
O,1,CO
H,2,OH,1,HOC
H,1,CH1,2,H1CO,3,PH1,0
H,1,CH2,2,H2CO,3,PH2,0

CO=1.3699812
OH=0.96902921
CH1=1.08886057
CH2=1.08380624
HOC=108.90801576
H1CO=118.50457427
H2CO=112.62604267
PH1=29.28000601
PH2=176.01181272


$end

$comment
negative
$end

$rem
   EXCHANGE B3LYP
   UNRESTRICTED TRUE
   BASIS G3large 
   SCF_PRINT 1
   PDB_PRINT 2
   INCDFT false
   VARTHRESH 0
   MAX_SCF_CYCLES 1000
   MEM_STATIC 256
   MEM_TOTAL 3000
   THRESH 140
   ITHRSH 14
   XC_GRID 75000302
   SCF_CONVERGENCE 6
$end
--------------------------------------------------------------
 Writing REM_CC_EA            0
 ----------------------------------------------------
       Standard Nuclear Orientation (Angstroms)
    I     Atom         X            Y            Z
 ----------------------------------------------------
    1      C       0.685775    -0.029293     0.077937
    2      O      -0.671219     0.125669    -0.028853
    3      H      -1.096059    -0.737246     0.089074
    4      H       1.124403    -0.982556    -0.212770
    5      H       1.226758     0.890205    -0.113102
 ----------------------------------------------------
 Molecular Point Group                 C1    NOp =  1
 Largest Abelian Subgroup              C1    NOp =  1
 Nuclear Repulsion Energy =    35.1794459982 hartrees
 There are       10 alpha and        7 beta electrons
 Requested basis set is G3large
 There are 38 shells and 114 basis functions

Total QAlloc Memory Limit   3000 MB
Mega-Array Size       251 MB
MEM_STATIC part       256 MB

                       Distance Matrix (Angstroms)
             C (  1)   O (  2)   H (  3)   H (  4)
   O (  2)  1.369981
   H (  3)  1.917355  0.969029
   H (  4)  1.088861  2.118077  2.254272
   H (  5)  1.083806  2.047909  2.843405  1.878203
 
 A cutoff of  1.0D-14 yielded    737 shell pairs
 There are   6665 function pairs (  8172 Cartesian)
Evaluating contribution to one-electron hamiltonian from nuclear
 Smallest overlap matrix eigenvalue = 1.31E-03
 Multipole matrices computed through 2nd order

  Scale SEOQF with 1.000000e-01/1.000000e-01/1.000000e-01

 Standard Electronic Orientation quadrupole field applied
 Nucleus-field energy     =     0.0000000005 hartrees
 Guess from superposition of atomic densities
 Warning:  Energy on first SCF cycle will be non-variational
 An unrestricted hybrid HF-DFT SCF calculation will be
 performed using Pulay DIIS extrapolation
 Exchange:     0.2000 Hartree-Fock + 0.0800 Slater + 0.7200 Becke88
 Correlation:  0.8100 LYP + 0.1900 VWN1RPA
 Using Euler-Maclaurin-Lebedev (75,302) quadrature formula
 SCF converges when DIIS error is below 1.0E-06
 Maximum number of SCF iterations = 1000

NRad = 75 NAng = 302
 ---------------------------------------
  Cycle       Energy         DIIS Error
 ---------------------------------------
    1    -115.2419188074      3.95E-02

NRad = 75 NAng = 302
    2    -114.7900559559      2.60E-03

NRad = 75 NAng = 302
    3    -114.8032963631      2.11E-03

NRad = 75 NAng = 302
    4    -114.8070589312      1.34E-03

NRad = 75 NAng = 302
    5    -114.8105994840      5.78E-04

NRad = 75 NAng = 302
    6    -114.8118034943      2.52E-04

NRad = 75 NAng = 302
    7    -114.8124204307      1.97E-04

NRad = 75 NAng = 302
    8    -114.8132339318      1.01E-04

NRad = 75 NAng = 302
    9    -114.8134389845      4.95E-05

NRad = 75 NAng = 302
   10    -114.8135796675      2.02E-05

NRad = 75 NAng = 302
   11    -114.8135937022      6.49E-06

NRad = 75 NAng = 302
   12    -114.8135946333      1.58E-06

NRad = 75 NAng = 302
   13    -114.8135946837      3.95E-07 Convergence criterion met
 ---------------------------------------
 One-Electron    Energy =  -223.6547957295
 Total Coulomb   Energy =    88.6158910141
 Alpha Exchange  Energy =    -1.5713367452
 Beta  Exchange  Energy =    -1.2897425941
 DFT   Exchange  Energy =   -11.3937952324
 DFT Correlation Energy =    -0.6992613953
 Nuclear Repu.   Energy =    35.1794459987
 Nuclear Attr.   Energy =  -338.4069916179
 Kinetic         Energy =   114.7521958884
 <S^2> = 3.7548
 SCF time:  CPU 84.58 s  wall 86.83 s
 Analysis of SCF Wavefunction
 
 --------------------------------------------------------------
                    Orbital Energies (a.u.)
 --------------------------------------------------------------
 
 Alpha MOs
 -- Occupied --
-19.352 -10.324  -1.232  -0.799  -0.671  -0.597  -0.573  -0.499
 -0.304  -0.098
 -- Virtual --
 -0.023  -0.001   0.028   0.040   0.055   0.084   0.095   0.112
  0.128   0.148   0.151   0.167   0.200   0.269   0.385   0.390
  0.432   0.449   0.481   0.499   0.518   0.609   0.623   0.646
  0.709   0.807   0.872   0.877   0.902   0.925   0.975   1.055
  1.107   1.167   1.236   1.292   1.345   1.364   1.419   1.673
  1.704   1.905   2.075   2.107   2.298   2.344   2.559   2.584
  2.798   2.856   2.894   2.939   3.010   3.079   3.094   3.129
  3.223   3.258   3.425   3.540   3.574   3.661   3.740   3.890
  3.984   3.991   4.092   4.144   4.385   4.711   4.897   4.946
  5.040   5.086   5.306   5.382   5.462   5.591   5.856   6.306
  6.692   6.901   6.946   6.955   7.282   7.403  24.161  27.173
 27.955  28.012  40.921  40.924  40.966  41.035  41.076  43.548
 43.596  43.620  43.712  43.790  45.501  45.859  46.303  49.774
 
 Beta MOs
 -- Occupied --
-19.322 -10.307  -1.163  -0.750  -0.617  -0.552  -0.478
 -- Virtual --
 -0.353  -0.121  -0.030  -0.010   0.005   0.045   0.055   0.076
  0.094   0.114   0.138   0.146   0.162   0.173   0.183   0.213
  0.281   0.405   0.410   0.464   0.496   0.508   0.525   0.540
  0.642   0.652   0.675   0.730   0.821   0.897   0.901   0.926
  0.963   1.007   1.079   1.134   1.190   1.258   1.328   1.364
  1.397   1.447   1.724   1.749   1.937   2.113   2.129   2.323
  2.377   2.595   2.665   2.841   2.897   2.928   2.984   3.067
  3.120   3.139   3.166   3.280   3.320   3.471   3.563   3.603
  3.686   3.764   3.915   4.009   4.028   4.118   4.176   4.407
  4.807   4.971   4.991   5.075   5.140   5.352   5.414   5.501
  5.645   5.881   6.335   6.796   6.972   7.000   7.041   7.328
  7.440  24.181  27.207  27.965  28.022  40.943  40.949  40.996
 41.043  41.085  43.606  43.642  43.678  43.735  43.809  45.550
 45.885  46.319  49.803
 --------------------------------------------------------------
 
          Ground-State Mulliken Net Atomic Charges

     Atom                 Charge (a.u.)    Spin (a.u.)
  --------------------------------------------------------
      1 C                    -0.110407       1.071929
      2 O                     0.674174       0.400987
      3 H                    -0.670074       1.125687
      4 H                     0.032244       0.267546
      5 H                     0.074062       0.133850
  --------------------------------------------------------
  Sum of atomic charges =     0.000000
  Sum of spin   charges =     3.000000

 -----------------------------------------------------------------
                    Cartesian Multipole Moments
 -----------------------------------------------------------------
    Charge (ESU x 10^10)
                 0.0000
    Dipole Moment (Debye)
         X       3.7136      Y       2.5758      Z      -0.3842
       Tot       4.5357
    Quadrupole Moments (Debye-Ang)
        XX     -18.0295     XY      -3.2238     YY     -20.9346
        XZ      -0.3832     YZ       0.5692     ZZ     -18.8527
    Octapole Moments (Debye-Ang^2)
       XXX      19.6059    XXY       8.8489    XYY      10.7057
       YYY      21.8646    XXZ      -1.3351    XYZ      -0.7635
       YYZ      -1.0474    XZZ       4.4514    YZZ       6.0553
       ZZZ      -1.8139
    Hexadecapole Moments (Debye-Ang^3)
      XXXX    -122.9552   XXXY     -20.8889   XXYY     -37.6347
      XYYY     -19.9464   YYYY    -103.0894   XXXZ       1.4099
      XXYZ       1.0927   XYYZ       0.5882   YYYZ       1.5790
      XXZZ     -29.5682   XYZZ      -5.6595   YYZZ     -25.3775
      XZZZ       1.8979   YZZZ       1.2979   ZZZZ     -50.8395
 -----------------------------------------------------------------
 Total job time:  87.27s(wall), 84.93s(cpu) 
 Mon Jun  3 15:23:17 2013

        *************************************************************
        *                                                           *
        *  Thank you very much for using Q-Chem.  Have a nice day.  *
        *                                                           *
        *************************************************************


0 sent ACK to 0 
now end server 0 ... 
