Process 0 of 1 is on cl225.stfx.acenet.ca - thread support 1
initial socket setup ...start
initial socket setup ...done 
now start server 0 ... 

cmd = /usr/bin/ssh clhead /usr/local/qchem/bin/get_hostid 1504100125 > /scratch/tmp/6063488.1.long.q/qchem18701/lic.dat
                  Welcome to Q-Chem
     A Quantum Leap Into The Future Of Chemistry

 Y. Shao, L. Fusti-Molnar, Y. Jung, J. Kussmann, C. Ochsenfeld,
 S. T. Brown, A. T. B. Gilbert, L. V. Slipchenko,S. V. Levchenko,
 D. P. O'Neill, R. A. DiStasio Jr., R. C. Lochan, T. Wang,
 G. J. O. Beran, N. A. Besley, J. M. Herbert, C. Y. Lin,
 T. Van Voorhis, S. H. Chien, A. Sodt, R. P. Steele, 
 V. A. Rassolov, P. E. Maslen, P. P. Korambath, R. D. Adamson,
 B. Austin, J. Baker, E. F. C. Byrd, H. Dachsel, R. J. Doerksen,
 A. Dreuw, B. D. Dunietz, A. D. Dutoi, T. R. Furlani,
 S. R. Gwaltney, A. Heyden, S. Hirata, C.-P. Hsu, G. Kedziora,
 R. Z. Khaliullin, P. Klunzinger, A. M. Lee, M. S. Lee, W. Liang,
 I. Lotan, N. Nair, B. Peters, E. I. Proynov, P. A. Pieniazek, 
 Y. M. Rhee, J. Ritchie, E. Rosta, C. D. Sherrill, 
 A. C. Simmonett, J. E. Subotnik, H. L. Woodcock III,
 W. Zhang, A. T. Bell, A. K. Chakraborty, D. M. Chipman,
 F. J. Keil, A. Warshel, W. J. Hehre, H. F. Schaefer III,
 J. Kong, A. I. Krylov, P. M. W. Gill, M. Head-Gordon,
 Q-Chem, Version 3.1, Q-Chem, Inc., Pittsburgh, PA (2007).

 Additional authors for Version 3.1: 
 Z. Gan, Y. Zhao, N. E. Schultz, D. Truhlar, E. Epifanovsky and M. Oana.

 Additional authors for Version 3.2: 
 R. Baer, B. R. Brooks, D. Casanova, J.-D. Chai, C.-L. Cheng, 
 C. Cramer, D. Crittenden, A. Ghysels, G. Hawkins, E. G. Hohenstein, 
 C. Kelley, W. Kurlancheek, D. Liotard, E. Livshits, P. Manohar, 
 A. Marenich, D. Neuhauser, R. Olson, M. A. Rohrdanz, K. S. Thanthiriwatte, 
 A. J. W. Thom, V. Vanovschi, C. F. Williams, Q. Wu and Z.-Q. You. 


 Intel X86 Linux Version

 Q-chem begins on Sun Jul  7 08:37:53 2013  

 Parallel job on  1  processors
Processing $rem in /usr/local/qchem/config/preferences.

theFileMan(): MAXOPENFILES=974 MAX_SUB_FILE_NUM=16
Maximum size of a physical file is 2.0 GB, maximum size of a tmp-file is 32.0 GB


--------------------------------------------------------------
User input:
--------------------------------------------------------------

$molecule
-1,2
C          0.00000        0.00000        0.01515
S          0.00000        0.00000        1.53251
$end

$comment
negative
$end

$xc_functional
C PBE   1.00
X wPBE  1.00
$end

$rem
SYMMETRY_DECOMPOSITION	0
exchange 		general
LRC_DFT                 true
BASIS                   g3large
omega			400
mem_static              760
max_scf_cycles          200
scf_final_print         1
sym_ignore              true
$end

--------------------------------------------------------------
 Writing REM_CC_EA            2
 ----------------------------------------------------
       Standard Nuclear Orientation (Angstroms)
    I     Atom         X            Y            Z
 ----------------------------------------------------
    1      C       0.000000     0.000000     0.015150
    2      S       0.000000     0.000000     1.532510
 ----------------------------------------------------
 Nuclear Repulsion Energy =    33.4798678210 hartrees
 There are       12 alpha and       11 beta electrons
 Requested basis set is G3large
 There are 29 shells and 108 basis functions

Total QAlloc Memory Limit   2000 MB
Mega-Array Size       743 MB
MEM_STATIC part       760 MB

                       Distance Matrix (Angstroms)
             C (  1)
   S (  2)  1.517360
 
 A cutoff of  1.0D-08 yielded    423 shell pairs
 There are   5944 function pairs (  8263 Cartesian)
Evaluating contribution to one-electron hamiltonian from nuclear
 Smallest overlap matrix eigenvalue = 6.21E-04
 Multipole matrices computed through 2nd order

  Scale SEOQF with 1.000000e-01/1.000000e-01/1.000000e-01

 Standard Electronic Orientation quadrupole field applied
 Nucleus-field energy     =    -0.0000000040 hartrees
 Guess from superposition of atomic densities
 Warning:  Energy on first SCF cycle will be non-variational
 Long-range K will be added via erf
 Coulomb attenuation parameter = 0.4 bohr**(-1)
 An unrestricted Kohn-Sham SCF calculation will be
 performed using Pulay DIIS extrapolation
 Exchange:  wPBE + LR-HF      Correlation:  PBE
 Using SG-1 standard quadrature grid
 SCF converges when DIIS error is below 1.0E-05
 Requested basis set is G3large
 There are 29 shells and 108 basis functions
 A cutoff of  1.0D-08 yielded    423 shell pairs
 There are   5944 function pairs (  8263 Cartesian)
 Warning!  Inaccurate integrated density:
   Number of electrons =    23
   Numerical integral  =    21.999971347074
   Relative error      =    -4.3479506649 %
 ---------------------------------------
  Cycle       Energy         DIIS Error
 ---------------------------------------
    1    -436.2020295996      3.41E-02
    2    -435.9960233425      4.18E-03
    3    -436.0388635550      3.15E-03
    4    -436.0554730768      8.26E-04
    5    -436.0583503837      4.64E-04
    6    -436.0599197830      1.87E-04
    7    -436.0606049672      8.66E-05
    8    -436.0608109295      2.69E-05
    9    -436.0608380204      1.04E-05
   10    -436.0608440695      2.86E-06 Convergence criterion met
 ---------------------------------------
 One-Electron    Energy =  -672.9979537500
 Total Coulomb   Energy =   234.5370866851
 Alpha Exchange  Energy =    -2.4133022909
 Beta  Exchange  Energy =    -2.2273424880
 DFT   Exchange  Energy =   -25.6184579724
 DFT Correlation Energy =    -0.8207420702
 Nuclear Repu.   Energy =    33.4798678169
 Nuclear Attr.   Energy = -1108.6360275861
 Kinetic         Energy =   435.6380738361
 <S^2> = 0.7591
 SCF time:  CPU 29.60 s  wall 30.95 s
 Final Alpha MO Eigenvalues
            1           2           3           4           5           6
    1 -88.0221323  -9.8921342  -7.6631869  -5.6762476  -5.6743254  -5.6727760
            7           8           9          10          11          12
    1  -0.7133048  -0.3917589  -0.2355303  -0.2103591  -0.1701977  -0.0145904
           13          14          15          16          17
    1   0.2173769   0.2310003   0.2323600   0.2533018   0.2567945
 Final Beta MO Eigenvalues
            1           2           3           4           5           6
    1 -88.0215657  -9.8820944  -7.6625175  -5.6760424  -5.6741024  -5.6705426
            7           8           9          10          11          12
    1  -0.7012437  -0.3596995  -0.2072247  -0.1855523  -0.1510244   0.2194729
           13          14          15          16
    1   0.2343142   0.2367985   0.2478243   0.2580996
 Analysis of SCF Wavefunction
 
 --------------------------------------------------------------
                    Orbital Energies (a.u.)
 --------------------------------------------------------------
 
 Alpha MOs
 -- Occupied --
-88.022  -9.892  -7.663  -5.676  -5.674  -5.673  -0.713  -0.392
 -0.236  -0.210  -0.170  -0.015
 -- Virtual --
  0.217   0.231   0.232   0.253   0.257   0.293   0.309   0.330
  0.399   0.465   0.528   0.528   0.588   0.624   0.638   0.695
  0.696   0.744   0.870   0.880   0.947   1.018   1.019   1.070
  1.197   1.197   1.201   1.203   1.285   1.313   1.314   1.347
  1.392   1.393   1.393   1.394   1.680   1.684   1.686   1.807
  2.151   2.155   2.373   3.094   3.099   3.193   3.193   3.238
  3.240   3.256   3.257   3.352   3.557   3.689   3.693   3.813
  3.814   3.883   3.884   3.934   3.939   4.099   4.318   4.320
  4.692   4.877   4.880   5.307   5.312   5.687   8.746  17.338
 17.341  17.858  23.611  23.684  23.772  23.889  23.892  24.334
 27.539  27.543  28.094  31.141  31.142  31.149  31.149  31.179
 31.182  31.222  41.075  41.189  41.342  41.377  41.379 189.300
 
 Beta MOs
 -- Occupied --
-88.022  -9.882  -7.663  -5.676  -5.674  -5.671  -0.701  -0.360
 -0.207  -0.186  -0.151
 -- Virtual --
  0.219   0.234   0.237   0.248   0.258   0.268   0.294   0.336
  0.358   0.404   0.471   0.536   0.536   0.594   0.640   0.653
  0.695   0.708   0.751   0.889   0.913   0.955   1.046   1.047
  1.084   1.203   1.203   1.206   1.222   1.294   1.320   1.321
  1.354   1.395   1.408   1.409   1.413   1.687   1.695   1.703
  1.814   2.152   2.168   2.377   3.111   3.145   3.237   3.237
  3.245   3.266   3.280   3.282   3.371   3.568   3.744   3.744
  3.822   3.822   3.892   3.892   3.947   3.976   4.111   4.320
  4.337   4.700   4.880   4.882   5.308   5.321   5.691   8.748
 17.339  17.345  17.859  23.617  23.686  23.774  23.889  23.893
 24.340  27.550  27.567  28.100  31.142  31.142  31.150  31.150
 31.179  31.182  31.222  41.097  41.199  41.363  41.383  41.397
189.301
 --------------------------------------------------------------
 
          Ground-State Mulliken Net Atomic Charges

     Atom                 Charge (a.u.)    Spin (a.u.)
  --------------------------------------------------------
      1 C                    -0.574410       0.772691
      2 S                    -0.425590       0.227309
  --------------------------------------------------------
  Sum of atomic charges =    -1.000000
  Sum of spin   charges =     1.000000

 -----------------------------------------------------------------
                    Cartesian Multipole Moments
 -----------------------------------------------------------------
    Charge (ESU x 10^10)
                -4.8032
    Dipole Moment (Debye)
         X       0.0000      Y       0.0000      Z      -2.3680
       Tot       2.3680
    Quadrupole Moments (Debye-Ang)
        XX     -23.9747     XY      -1.5993     YY     -23.9885
        XZ       0.0000     YZ       0.0000     ZZ     -30.9677
    Octapole Moments (Debye-Ang^2)
       XXX      -0.0001    XXY       0.0000    XYY       0.0000
       YYY       0.0000    XXZ     -24.0353    XYZ      -1.7296
       YYZ     -24.0503    XZZ       0.0000    YZZ      -0.0001
       ZZZ     -79.3773
    Hexadecapole Moments (Debye-Ang^3)
      XXXX     -43.9476   XXXY      -3.6398   XXYY     -14.6593
      XYYY      -3.6398   YYYY     -44.0104   XXXZ      -0.0002
      XXYZ      -0.0001   XYYZ       0.0000   YYYZ      -0.0003
      XXZZ     -55.7287   XYZZ      -6.1069   YYZZ     -55.7814
      XZZZ       0.0000   YZZZ      -0.0004   ZZZZ    -282.4972
 -----------------------------------------------------------------
 Total job time:  31.10s(wall), 29.73s(cpu) 
 Sun Jul  7 08:38:24 2013

        *************************************************************
        *                                                           *
        *  Thank you very much for using Q-Chem.  Have a nice day.  *
        *                                                           *
        *************************************************************


0 sent ACK to 0 
now end server 0 ... 
 
**********************************************************************
Job 2 of 3 
**********************************************************************
 
Process 0 of 1 is on cl225.stfx.acenet.ca - thread support 1
initial socket setup ...start
initial socket setup ...done 
now start server 0 ... 

cmd = /usr/bin/ssh clhead /usr/local/qchem/bin/get_hostid 1596150132 > /scratch/tmp/6063488.1.long.q/qchem18701/lic.dat
                  Welcome to Q-Chem
     A Quantum Leap Into The Future Of Chemistry

 Y. Shao, L. Fusti-Molnar, Y. Jung, J. Kussmann, C. Ochsenfeld,
 S. T. Brown, A. T. B. Gilbert, L. V. Slipchenko,S. V. Levchenko,
 D. P. O'Neill, R. A. DiStasio Jr., R. C. Lochan, T. Wang,
 G. J. O. Beran, N. A. Besley, J. M. Herbert, C. Y. Lin,
 T. Van Voorhis, S. H. Chien, A. Sodt, R. P. Steele, 
 V. A. Rassolov, P. E. Maslen, P. P. Korambath, R. D. Adamson,
 B. Austin, J. Baker, E. F. C. Byrd, H. Dachsel, R. J. Doerksen,
 A. Dreuw, B. D. Dunietz, A. D. Dutoi, T. R. Furlani,
 S. R. Gwaltney, A. Heyden, S. Hirata, C.-P. Hsu, G. Kedziora,
 R. Z. Khaliullin, P. Klunzinger, A. M. Lee, M. S. Lee, W. Liang,
 I. Lotan, N. Nair, B. Peters, E. I. Proynov, P. A. Pieniazek, 
 Y. M. Rhee, J. Ritchie, E. Rosta, C. D. Sherrill, 
 A. C. Simmonett, J. E. Subotnik, H. L. Woodcock III,
 W. Zhang, A. T. Bell, A. K. Chakraborty, D. M. Chipman,
 F. J. Keil, A. Warshel, W. J. Hehre, H. F. Schaefer III,
 J. Kong, A. I. Krylov, P. M. W. Gill, M. Head-Gordon,
 Q-Chem, Version 3.1, Q-Chem, Inc., Pittsburgh, PA (2007).

 Additional authors for Version 3.1: 
 Z. Gan, Y. Zhao, N. E. Schultz, D. Truhlar, E. Epifanovsky and M. Oana.

 Additional authors for Version 3.2: 
 R. Baer, B. R. Brooks, D. Casanova, J.-D. Chai, C.-L. Cheng, 
 C. Cramer, D. Crittenden, A. Ghysels, G. Hawkins, E. G. Hohenstein, 
 C. Kelley, W. Kurlancheek, D. Liotard, E. Livshits, P. Manohar, 
 A. Marenich, D. Neuhauser, R. Olson, M. A. Rohrdanz, K. S. Thanthiriwatte, 
 A. J. W. Thom, V. Vanovschi, C. F. Williams, Q. Wu and Z.-Q. You. 


 Intel X86 Linux Version

 Q-chem begins on Sun Jul  7 08:38:27 2013  

 Parallel job on  1  processors
Processing $rem in /usr/local/qchem/config/preferences.

theFileMan(): MAXOPENFILES=974 MAX_SUB_FILE_NUM=16
Maximum size of a physical file is 2.0 GB, maximum size of a tmp-file is 32.0 GB


--------------------------------------------------------------
User input:
--------------------------------------------------------------

$molecule
0,1
C          0.00000        0.00000        0.01515
S          0.00000        0.00000        1.53251
$end

$comment
neutral
$end

$xc_functional
C PBE   1.00
X wPBE  1.00
$end


$rem
SYMMETRY_DECOMPOSITION	0
LRC_DFT                 true
exchange 		general
BASIS                   g3large
omega			400
mem_static              760
max_scf_cycles          200
scf_final_print         1
sym_ignore              true
$end

--------------------------------------------------------------
 Writing REM_CC_EA            2
 ----------------------------------------------------
       Standard Nuclear Orientation (Angstroms)
    I     Atom         X            Y            Z
 ----------------------------------------------------
    1      C       0.000000     0.000000     0.015150
    2      S       0.000000     0.000000     1.532510
 ----------------------------------------------------
 Nuclear Repulsion Energy =    33.4798678210 hartrees
 There are       11 alpha and       11 beta electrons
 Requested basis set is G3large
 There are 29 shells and 108 basis functions

Total QAlloc Memory Limit   2000 MB
Mega-Array Size       743 MB
MEM_STATIC part       760 MB

                       Distance Matrix (Angstroms)
             C (  1)
   S (  2)  1.517360
 
 A cutoff of  1.0D-08 yielded    423 shell pairs
 There are   5944 function pairs (  8263 Cartesian)
Evaluating contribution to one-electron hamiltonian from nuclear
 Smallest overlap matrix eigenvalue = 6.21E-04
 Multipole matrices computed through 2nd order

  Scale SEOQF with 1.000000e-01/1.000000e-01/1.000000e-01

 Standard Electronic Orientation quadrupole field applied
 Nucleus-field energy     =    -0.0000000040 hartrees
 Guess from superposition of atomic densities
 Warning:  Energy on first SCF cycle will be non-variational
 Long-range K will be added via erf
 Coulomb attenuation parameter = 0.4 bohr**(-1)
 A restricted Kohn-Sham SCF calculation will be
 performed using Pulay DIIS extrapolation
 Exchange:  wPBE + LR-HF      Correlation:  PBE
 Using SG-1 standard quadrature grid
 SCF converges when DIIS error is below 1.0E-05
 Requested basis set is G3large
 There are 29 shells and 108 basis functions
 A cutoff of  1.0D-08 yielded    423 shell pairs
 There are   5944 function pairs (  8263 Cartesian)
 ---------------------------------------
  Cycle       Energy         DIIS Error
 ---------------------------------------
    1    -436.2020295996      3.41E-02
    2    -436.0245289602      2.32E-03
    3    -436.0430097753      1.68E-03
    4    -436.0489628462      9.00E-04
    5    -436.0525555084      3.22E-04
    6    -436.0535911786      1.22E-04
    7    -436.0537515600      3.47E-05
    8    -436.0537576862      7.53E-06 Convergence criterion met
 ---------------------------------------
 One-Electron    Energy =  -666.7919044639
 Total Coulomb   Energy =   228.0615082877
 Alpha Exchange  Energy =    -2.2431984785
 Beta  Exchange  Energy =    -2.2431984785
 DFT   Exchange  Energy =   -25.5226066569
 DFT Correlation Energy =    -0.7942257129
 Nuclear Repu.   Energy =    33.4798678169
 Nuclear Attr.   Energy = -1102.2216765917
 Kinetic         Energy =   435.4297721278
 SCF time:  CPU 21.20 s  wall 21.30 s
 Final Alpha MO Eigenvalues
            1           2           3           4           5           6
    1 -88.3098416 -10.2061810  -7.9512608  -5.9629418  -5.9629391  -5.9613795
            7           8           9          10          11          12
    1  -0.9910054  -0.6530413  -0.4775343  -0.4775295  -0.4344796  -0.0000710
           13          14          15          16
    1  -0.0000695   0.0685006   0.0773826   0.0984403
 Analysis of SCF Wavefunction
 
 --------------------------------------------------------------
                    Orbital Energies (a.u.)
 --------------------------------------------------------------
 
 Alpha MOs
 -- Occupied --
-88.310 -10.206  -7.951  -5.963  -5.963  -5.961  -0.991  -0.653
 -0.478  -0.478  -0.434
 -- Virtual --
  0.000   0.000   0.069   0.077   0.098   0.098   0.136   0.157
  0.157   0.214   0.247   0.292   0.292   0.387   0.408   0.408
  0.479   0.479   0.526   0.654   0.654   0.707   0.780   0.780
  0.831   0.954   0.954   0.955   0.955   1.033   1.048   1.049
  1.112   1.140   1.140   1.150   1.150   1.431   1.439   1.439
  1.552   1.891   1.891   2.107   2.823   2.823   2.925   2.925
  2.962   2.962   2.985   2.985   3.077   3.278   3.421   3.421
  3.534   3.534   3.604   3.604   3.663   3.663   3.825   4.040
  4.040   4.413   4.592   4.595   5.027   5.027   5.405   8.463
 17.054  17.054  17.573  23.312  23.396  23.484  23.603  23.603
 24.036  27.231  27.231  27.782  30.852  30.852  30.861  30.861
 30.893  30.893  30.935  40.763  40.876  41.029  41.064  41.064
189.013
 --------------------------------------------------------------
 
          Ground-State Mulliken Net Atomic Charges

     Atom                 Charge (a.u.)
  ----------------------------------------
      1 C                    -0.049519
      2 S                     0.049519
  ----------------------------------------
  Sum of atomic charges =     0.000000

 -----------------------------------------------------------------
                    Cartesian Multipole Moments
 -----------------------------------------------------------------
    Charge (ESU x 10^10)
                 0.0000
    Dipole Moment (Debye)
         X       0.0000      Y       0.0000      Z       2.0598
       Tot       2.0598
    Quadrupole Moments (Debye-Ang)
        XX     -18.1481     XY       0.0001     YY     -18.1481
        XZ       0.0001     YZ      -0.0001     ZZ     -15.8471
    Octapole Moments (Debye-Ang^2)
       XXX       0.0001    XXY       0.0000    XYY       0.0000
       YYY      -0.0001    XXZ     -18.1634    XYZ       0.0004
       YYZ     -18.1634    XZZ       0.0001    YZZ       0.0000
       ZZZ     -47.7965
    Hexadecapole Moments (Debye-Ang^3)
      XXXX     -22.6349   XXXY       0.0002   XXYY      -7.5450
      XYYY       0.0002   YYYY     -22.6349   XXXZ       0.0002
      XXYZ      -0.0001   XYYZ       0.0001   YYYZ      -0.0002
      XXZZ     -35.2237   XYZZ       0.0009   YYZZ     -35.2237
      XZZZ       0.0004   YZZZ       0.0000   ZZZZ    -177.9534
 -----------------------------------------------------------------
 Total job time:  21.42s(wall), 21.31s(cpu) 
 Sun Jul  7 08:38:48 2013

        *************************************************************
        *                                                           *
        *  Thank you very much for using Q-Chem.  Have a nice day.  *
        *                                                           *
        *************************************************************


0 sent ACK to 0 
now end server 0 ... 
 
**********************************************************************
Job 3 of 3 
**********************************************************************
 
Process 0 of 1 is on cl225.stfx.acenet.ca - thread support 1
initial socket setup ...start
initial socket setup ...done 
now start server 0 ... 

cmd = /usr/bin/ssh clhead /usr/local/qchem/bin/get_hostid 444079549 > /scratch/tmp/6063488.1.long.q/qchem18701/lic.dat
                  Welcome to Q-Chem
     A Quantum Leap Into The Future Of Chemistry

 Y. Shao, L. Fusti-Molnar, Y. Jung, J. Kussmann, C. Ochsenfeld,
 S. T. Brown, A. T. B. Gilbert, L. V. Slipchenko,S. V. Levchenko,
 D. P. O'Neill, R. A. DiStasio Jr., R. C. Lochan, T. Wang,
 G. J. O. Beran, N. A. Besley, J. M. Herbert, C. Y. Lin,
 T. Van Voorhis, S. H. Chien, A. Sodt, R. P. Steele, 
 V. A. Rassolov, P. E. Maslen, P. P. Korambath, R. D. Adamson,
 B. Austin, J. Baker, E. F. C. Byrd, H. Dachsel, R. J. Doerksen,
 A. Dreuw, B. D. Dunietz, A. D. Dutoi, T. R. Furlani,
 S. R. Gwaltney, A. Heyden, S. Hirata, C.-P. Hsu, G. Kedziora,
 R. Z. Khaliullin, P. Klunzinger, A. M. Lee, M. S. Lee, W. Liang,
 I. Lotan, N. Nair, B. Peters, E. I. Proynov, P. A. Pieniazek, 
 Y. M. Rhee, J. Ritchie, E. Rosta, C. D. Sherrill, 
 A. C. Simmonett, J. E. Subotnik, H. L. Woodcock III,
 W. Zhang, A. T. Bell, A. K. Chakraborty, D. M. Chipman,
 F. J. Keil, A. Warshel, W. J. Hehre, H. F. Schaefer III,
 J. Kong, A. I. Krylov, P. M. W. Gill, M. Head-Gordon,
 Q-Chem, Version 3.1, Q-Chem, Inc., Pittsburgh, PA (2007).

 Additional authors for Version 3.1: 
 Z. Gan, Y. Zhao, N. E. Schultz, D. Truhlar, E. Epifanovsky and M. Oana.

 Additional authors for Version 3.2: 
 R. Baer, B. R. Brooks, D. Casanova, J.-D. Chai, C.-L. Cheng, 
 C. Cramer, D. Crittenden, A. Ghysels, G. Hawkins, E. G. Hohenstein, 
 C. Kelley, W. Kurlancheek, D. Liotard, E. Livshits, P. Manohar, 
 A. Marenich, D. Neuhauser, R. Olson, M. A. Rohrdanz, K. S. Thanthiriwatte, 
 A. J. W. Thom, V. Vanovschi, C. F. Williams, Q. Wu and Z.-Q. You. 


 Intel X86 Linux Version

 Q-chem begins on Sun Jul  7 08:38:51 2013  

 Parallel job on  1  processors
Processing $rem in /usr/local/qchem/config/preferences.

theFileMan(): MAXOPENFILES=974 MAX_SUB_FILE_NUM=16
Maximum size of a physical file is 2.0 GB, maximum size of a tmp-file is 32.0 GB


--------------------------------------------------------------
User input:
--------------------------------------------------------------

$molecule
1,2
C          0.00000        0.00000        0.01515
S          0.00000        0.00000        1.53251
$end

$comment
positive
$end

$xc_functional
C PBE   1.00
X wPBE  1.00
$end

$rem
SYMMETRY_DECOMPOSITION	0
LRC_DFT                 true
exchange 		general
BASIS                   g3large
omega			400
mem_static              760
max_scf_cycles          200
scf_final_print         1
sym_ignore              true
$end

--------------------------------------------------------------
 Writing REM_CC_EA            2
 ----------------------------------------------------
       Standard Nuclear Orientation (Angstroms)
    I     Atom         X            Y            Z
 ----------------------------------------------------
    1      C       0.000000     0.000000     0.015150
    2      S       0.000000     0.000000     1.532510
 ----------------------------------------------------
 Nuclear Repulsion Energy =    33.4798678210 hartrees
 There are       11 alpha and       10 beta electrons
 Requested basis set is G3large
 There are 29 shells and 108 basis functions

Total QAlloc Memory Limit   2000 MB
Mega-Array Size       743 MB
MEM_STATIC part       760 MB

                       Distance Matrix (Angstroms)
             C (  1)
   S (  2)  1.517360
 
 A cutoff of  1.0D-08 yielded    423 shell pairs
 There are   5944 function pairs (  8263 Cartesian)
Evaluating contribution to one-electron hamiltonian from nuclear
 Smallest overlap matrix eigenvalue = 6.21E-04
 Multipole matrices computed through 2nd order

  Scale SEOQF with 1.000000e-01/1.000000e-01/1.000000e-01

 Standard Electronic Orientation quadrupole field applied
 Nucleus-field energy     =    -0.0000000040 hartrees
 Guess from superposition of atomic densities
 Warning:  Energy on first SCF cycle will be non-variational
 Long-range K will be added via erf
 Coulomb attenuation parameter = 0.4 bohr**(-1)
 An unrestricted Kohn-Sham SCF calculation will be
 performed using Pulay DIIS extrapolation
 Exchange:  wPBE + LR-HF      Correlation:  PBE
 Using SG-1 standard quadrature grid
 SCF converges when DIIS error is below 1.0E-05
 Requested basis set is G3large
 There are 29 shells and 108 basis functions
 A cutoff of  1.0D-08 yielded    423 shell pairs
 There are   5944 function pairs (  8263 Cartesian)
 Warning!  Inaccurate integrated density:
   Number of electrons =    21
   Numerical integral  =    21.999971347074
   Relative error      =     4.7617683194 %
 ---------------------------------------
  Cycle       Energy         DIIS Error
 ---------------------------------------
    1    -436.2020295996      3.41E-02
    2    -435.5432327504      4.67E-03
    3    -435.5937106796      4.02E-03
    4    -435.6187131421      1.74E-03
    5    -435.6259765923      5.79E-04
    6    -435.6291611126      2.77E-04
    7    -435.6308743833      8.86E-05
    8    -435.6314554133      2.57E-05
    9    -435.6317518936      1.87E-05
   10    -435.6319709010      1.60E-05
   11    -435.6324288342      1.78E-05
   12    -435.6324651316      1.19E-05
   13    -435.6324633678      7.74E-06 Convergence criterion met
 ---------------------------------------
 One-Electron    Energy =  -659.4025499484
 Total Coulomb   Energy =   220.7834510194
 Alpha Exchange  Energy =    -2.2594639779
 Beta  Exchange  Energy =    -2.0629375076
 DFT   Exchange  Energy =   -25.4189441502
 DFT Correlation Energy =    -0.7518866200
 Nuclear Repu.   Energy =    33.4798678169
 Nuclear Attr.   Energy = -1094.3008591819
 Kinetic         Energy =   434.8983092335
 <S^2> = 0.8700
 SCF time:  CPU 39.16 s  wall 39.65 s
 Final Alpha MO Eigenvalues
            1           2           3           4           5           6
    1 -88.6604369 -10.5945042  -8.2924659  -6.3068744  -6.3030451  -6.3030375
            7           8           9          10          11          12
    1  -1.3130300  -0.9837856  -0.8316220  -0.7882220  -0.7882210  -0.3141592
           13          14          15          16
    1  -0.3141548  -0.1164212  -0.0948609  -0.0642659
 Final Beta MO Eigenvalues
            1           2           3           4           5           6
    1 -88.6618902 -10.5704330  -8.2937548  -6.3069065  -6.3069002  -6.3046075
            7           8           9          10          11          12
    1  -1.2963250  -0.9323305  -0.7785071  -0.7784869  -0.3949674  -0.2770554
           13          14          15
    1  -0.2770463  -0.1133975  -0.0900177
 Analysis of SCF Wavefunction
 
 --------------------------------------------------------------
                    Orbital Energies (a.u.)
 --------------------------------------------------------------
 
 Alpha MOs
 -- Occupied --
-88.660 -10.595  -8.292  -6.307  -6.303  -6.303  -1.313  -0.984
 -0.832  -0.788  -0.788
 -- Virtual --
 -0.314  -0.314  -0.116  -0.095  -0.064  -0.064  -0.051  -0.011
 -0.011   0.000   0.047   0.048   0.048   0.142   0.142   0.189
  0.260   0.260   0.265   0.387   0.387   0.412   0.490   0.490
  0.560   0.668   0.668   0.710   0.710   0.735   0.768   0.768
  0.853   0.853   0.853   0.878   0.878   1.147   1.147   1.154
  1.218   1.610   1.610   1.806   2.477   2.477   2.577   2.577
  2.619   2.619   2.644   2.644   2.720   2.911   3.031   3.031
  3.237   3.237   3.253   3.253   3.290   3.290   3.430   3.707
  3.707   4.049   4.271   4.273   4.694   4.694   5.069   8.133
 16.718  16.718  17.228  22.945  23.058  23.146  23.261  23.261
 23.675  26.847  26.847  27.383  30.513  30.513  30.520  30.520
 30.550  30.550  30.592  40.382  40.480  40.648  40.673  40.673
188.665
 
 Beta MOs
 -- Occupied --
-88.662 -10.570  -8.294  -6.307  -6.307  -6.305  -1.296  -0.932
 -0.779  -0.778
 -- Virtual --
 -0.395  -0.277  -0.277  -0.113  -0.090  -0.064  -0.064  -0.041
 -0.008  -0.008   0.011   0.032   0.032   0.059   0.158   0.158
  0.189   0.256   0.256   0.292   0.409   0.409   0.452   0.515
  0.515   0.581   0.689   0.689   0.697   0.697   0.751   0.751
  0.761   0.863   0.867   0.867   0.890   0.890   1.161   1.172
  1.172   1.270   1.602   1.602   1.823   2.519   2.519   2.634
  2.634   2.656   2.656   2.693   2.693   2.779   2.970   3.123
  3.123   3.210   3.210   3.286   3.286   3.376   3.376   3.533
  3.726   3.726   4.099   4.264   4.266   4.705   4.705   5.083
  8.134  16.711  16.711  17.234  22.962  23.052  23.141  23.261
 23.261  23.687  26.872  26.872  27.425  30.511  30.511  30.519
 30.519  30.550  30.550  30.592  40.406  40.520  40.671  40.707
 40.707 188.663
 --------------------------------------------------------------
 
          Ground-State Mulliken Net Atomic Charges

     Atom                 Charge (a.u.)    Spin (a.u.)
  --------------------------------------------------------
      1 C                     0.557100       1.269014
      2 S                     0.442900      -0.269014
  --------------------------------------------------------
  Sum of atomic charges =     1.000000
  Sum of spin   charges =     1.000000

 -----------------------------------------------------------------
                    Cartesian Multipole Moments
 -----------------------------------------------------------------
    Charge (ESU x 10^10)
                 4.8032
    Dipole Moment (Debye)
         X      -0.0008      Y       0.0010      Z       4.6786
       Tot       4.6786
    Quadrupole Moments (Debye-Ang)
        XX     -14.9796     XY      -0.0001     YY     -14.9796
        XZ      -0.0004     YZ       0.0006     ZZ      -4.5246
    Octapole Moments (Debye-Ang^2)
       XXX      -0.0013    XXY       0.0005    XYY      -0.0004
       YYY       0.0015    XXZ     -15.5261    XYZ      -0.0004
       YYZ     -15.5261    XZZ      -0.0020    YZZ       0.0025
       ZZZ     -27.9662
    Hexadecapole Moments (Debye-Ang^3)
      XXXX     -15.5576   XXXY      -0.0001   XXYY      -5.1859
      XYYY      -0.0001   YYYY     -15.5575   XXXZ      -0.0007
      XXYZ       0.0003   XYYZ      -0.0002   YYYZ       0.0009
      XXZZ     -27.3032   XYZZ      -0.0007   YYZZ     -27.3031
      XZZZ      -0.0048   YZZZ       0.0060   ZZZZ    -119.2868
 -----------------------------------------------------------------
 Total job time:  39.77s(wall), 39.28s(cpu) 
 Sun Jul  7 08:39:31 2013

        *************************************************************
        *                                                           *
        *  Thank you very much for using Q-Chem.  Have a nice day.  *
        *                                                           *
        *************************************************************


0 sent ACK to 0 
now end server 0 ... 
