Process 0 of 1 is on cl118.stfx.acenet.ca - thread support 1
initial socket setup ...start
initial socket setup ...done 
now start server 0 ... 

cmd = /usr/bin/ssh clhead /usr/local/qchem/bin/get_hostid 1691795277 > /scratch/tmp/5954857.1.short.q/qchem5396/lic.dat
                  Welcome to Q-Chem
     A Quantum Leap Into The Future Of Chemistry

 Y. Shao, L. Fusti-Molnar, Y. Jung, J. Kussmann, C. Ochsenfeld,
 S. T. Brown, A. T. B. Gilbert, L. V. Slipchenko,S. V. Levchenko,
 D. P. O'Neill, R. A. DiStasio Jr., R. C. Lochan, T. Wang,
 G. J. O. Beran, N. A. Besley, J. M. Herbert, C. Y. Lin,
 T. Van Voorhis, S. H. Chien, A. Sodt, R. P. Steele, 
 V. A. Rassolov, P. E. Maslen, P. P. Korambath, R. D. Adamson,
 B. Austin, J. Baker, E. F. C. Byrd, H. Dachsel, R. J. Doerksen,
 A. Dreuw, B. D. Dunietz, A. D. Dutoi, T. R. Furlani,
 S. R. Gwaltney, A. Heyden, S. Hirata, C.-P. Hsu, G. Kedziora,
 R. Z. Khaliullin, P. Klunzinger, A. M. Lee, M. S. Lee, W. Liang,
 I. Lotan, N. Nair, B. Peters, E. I. Proynov, P. A. Pieniazek, 
 Y. M. Rhee, J. Ritchie, E. Rosta, C. D. Sherrill, 
 A. C. Simmonett, J. E. Subotnik, H. L. Woodcock III,
 W. Zhang, A. T. Bell, A. K. Chakraborty, D. M. Chipman,
 F. J. Keil, A. Warshel, W. J. Hehre, H. F. Schaefer III,
 J. Kong, A. I. Krylov, P. M. W. Gill, M. Head-Gordon,
 Q-Chem, Version 3.1, Q-Chem, Inc., Pittsburgh, PA (2007).

 Additional authors for Version 3.1: 
 Z. Gan, Y. Zhao, N. E. Schultz, D. Truhlar, E. Epifanovsky and M. Oana.

 Additional authors for Version 3.2: 
 R. Baer, B. R. Brooks, D. Casanova, J.-D. Chai, C.-L. Cheng, 
 C. Cramer, D. Crittenden, A. Ghysels, G. Hawkins, E. G. Hohenstein, 
 C. Kelley, W. Kurlancheek, D. Liotard, E. Livshits, P. Manohar, 
 A. Marenich, D. Neuhauser, R. Olson, M. A. Rohrdanz, K. S. Thanthiriwatte, 
 A. J. W. Thom, V. Vanovschi, C. F. Williams, Q. Wu and Z.-Q. You. 


 Intel X86 Linux Version

 Q-chem begins on Wed Apr 24 15:49:34 2013  

 Parallel job on  1  processors
Processing $rem in /usr/local/qchem/config/preferences.

theFileMan(): MAXOPENFILES=974 MAX_SUB_FILE_NUM=16
Maximum size of a physical file is 2.0 GB, maximum size of a tmp-file is 32.0 GB


--------------------------------------------------------------
User input:
--------------------------------------------------------------

$molecule
-1,2
C
X,1,1.
Cl,1,CCl,2,HClX
Cl,1,CCl,2,HClX,3,180.,0
H,1,CH,2,HCX,3,90.,0
H,1,CH,2,HCX,3,-90.,0

CCl=1.79088554
CH=1.08757434
HClX=56.65320917
HCX=124.25124469

$end

$comment
negative
$end

$xc_functional
C PBE   1.00
X wPBE  1.00
$end

$rem
SYMMETRY_DECOMPOSITION	0
exchange 		general
LRC_DFT                 true
BASIS                   g3large
omega			400
mem_static              760
max_scf_cycles          200
scf_final_print         1
sym_ignore              true
$end

--------------------------------------------------------------
 Writing REM_CC_EA            5
 ----------------------------------------------------
       Standard Nuclear Orientation (Angstroms)
    I     Atom         X            Y            Z
 ----------------------------------------------------
    1      C       0.000000     0.000000     0.000000
    2      Cl      1.496032     0.000000     0.984459
    3      Cl     -1.496032     0.000000     0.984459
    4      H       0.000000    -0.898965    -0.612112
    5      H       0.000000     0.898965    -0.612112
 ----------------------------------------------------
 Nuclear Repulsion Energy =   132.7368262598 hartrees
 There are       22 alpha and       21 beta electrons
 Requested basis set is G3large
 There are 60 shells and 194 basis functions

Total QAlloc Memory Limit   2000 MB
Mega-Array Size       743 MB
MEM_STATIC part       760 MB

                       Distance Matrix (Angstroms)
             C (  1)   Cl(  2)   Cl(  3)   H (  4)
   Cl(  2)  1.790886
   Cl(  3)  1.790886  2.992064
   H (  4)  1.087574  2.365436  2.365436
   H (  5)  1.087574  2.365436  2.365436  1.797929
 
 A cutoff of  1.0D-08 yielded   1624 shell pairs
 There are  17199 function pairs ( 23316 Cartesian)
Evaluating contribution to one-electron hamiltonian from nuclear
 Smallest overlap matrix eigenvalue = 1.89E-04
 Multipole matrices computed through 2nd order

  Scale SEOQF with 1.000000e-01/1.000000e-01/1.000000e-01

 Standard Electronic Orientation quadrupole field applied
 Nucleus-field energy     =    -0.0000000008 hartrees
 Guess from superposition of atomic densities
 Warning:  Energy on first SCF cycle will be non-variational
 Long-range K will be added via erf
 Coulomb attenuation parameter = 0.4 bohr**(-1)
 An unrestricted Kohn-Sham SCF calculation will be
 performed using Pulay DIIS extrapolation
 Exchange:  wPBE + LR-HF      Correlation:  PBE
 Using SG-1 standard quadrature grid
 SCF converges when DIIS error is below 1.0E-05
 Requested basis set is G3large
 There are 60 shells and 194 basis functions
 A cutoff of  1.0D-08 yielded   1624 shell pairs
 There are  17199 function pairs ( 23316 Cartesian)
 Warning!  Inaccurate integrated density:
   Number of electrons =    43
   Numerical integral  =    42.000041164111
   Relative error      =    -2.3254856649 %
 ---------------------------------------
  Cycle       Energy         DIIS Error
 ---------------------------------------
    1    -959.7834520341      2.38E-02
    2    -959.3224731371      2.55E-03
    3    -959.3646591694      2.00E-03
    4    -959.3785259192      3.38E-04
    5    -959.3819487700      2.48E-04
    6    -959.3845636042      1.81E-04
    7    -959.3883119030      2.10E-04
    8    -959.3914385183      1.64E-04
    9    -959.3968571134      2.13E-04
   10    -959.3963365774      8.86E-05
   11    -959.3976054991      5.87E-05
   12    -959.3977368406      2.72E-05
   13    -959.3977652536      7.36E-06 Convergence criterion met
 ---------------------------------------
 One-Electron    Energy = -1593.4429058186
 Total Coulomb   Energy =   563.7368444376
 Alpha Exchange  Energy =    -4.4122239091
 Beta  Exchange  Energy =    -4.3306887363
 DFT   Exchange  Energy =   -52.0868949546
 DFT Correlation Energy =    -1.5987225316
 Nuclear Repu.   Energy =   132.7368262590
 Nuclear Attr.   Energy = -2551.4668361865
 Kinetic         Energy =   958.0239303680
 <S^2> = 0.7502
 SCF time:  CPU 181.39 s  wall 185.00 s
 Final Alpha MO Eigenvalues
            1           2           3           4           5           6
    1-100.7493915-100.7492998 -10.0770047  -9.2715374  -9.2714748  -7.0902343
            7           8           9          10          11          12
    1  -7.0901698  -7.0798108  -7.0797453  -7.0796814  -7.0796162  -0.9101841
           13          14          15          16          17          18
    1  -0.8335511  -0.6613165  -0.4757998  -0.4419797  -0.4252553  -0.3152268
           19          20          21          22          23          24
    1  -0.3122054  -0.2946261  -0.2854682   0.0223107   0.1535535   0.1779120
           25          26          27
    1   0.1863094   0.2202750   0.2405633
 Final Beta MO Eigenvalues
            1           2           3           4           5           6
    1-100.7493004-100.7492073 -10.0756591  -9.2714440  -9.2713808  -7.0899280
            7           8           9          10          11          12
    1  -7.0898613  -7.0797591  -7.0796932  -7.0796552  -7.0795896  -0.9088478
           13          14          15          16          17          18
    1  -0.8327241  -0.6579836  -0.4741866  -0.4396001  -0.4227172  -0.3147933
           19          20          21          22          23          24
    1  -0.3114808  -0.2937515  -0.2846761   0.1608393   0.1806097   0.1819619
           25          26
    1   0.1895639   0.2288414
 Analysis of SCF Wavefunction
 
 --------------------------------------------------------------
                    Orbital Energies (a.u.)
 --------------------------------------------------------------
 
 Alpha MOs
 -- Occupied --
*******-100.749 -10.077  -9.272  -9.271  -7.090  -7.090  -7.080
 -7.080  -7.080  -7.080  -0.910  -0.834  -0.661  -0.476  -0.442
 -0.425  -0.315  -0.312  -0.295  -0.285   0.022
 -- Virtual --
  0.154   0.178   0.186   0.220   0.241   0.246   0.253   0.257
  0.264   0.275   0.299   0.307   0.313   0.328   0.363   0.368
  0.456   0.483   0.489   0.510   0.533   0.534   0.569   0.575
  0.594   0.634   0.644   0.662   0.675   0.703   0.710   0.728
  0.776   0.792   0.812   0.837   0.907   0.926   0.951   0.981
  1.119   1.172   1.175   1.179   1.182   1.278   1.286   1.295
  1.322   1.333   1.343   1.343   1.344   1.371   1.371   1.378
  1.379   1.392   1.406   1.483   1.547   1.573   1.599   1.627
  1.629   1.645   1.677   1.702   1.711   1.763   1.803   1.866
  1.874   1.886   1.952   1.974   2.408   2.425   2.468   2.480
  2.503   2.627   2.805   2.861   3.204   3.233   3.243   3.369
  3.463   3.491   3.601   3.629   3.658   3.750   3.783   3.834
  3.958   4.104   4.105   4.374   4.376   4.527   4.557   4.588
  4.600   4.623   4.625   4.635   4.647   4.652   4.674   4.709
  4.770   4.785   4.791   4.849   4.890   5.256   5.263   5.282
  5.284   5.386   5.391   5.436   5.479   5.504   5.897   5.919
  5.941   9.938   9.990  20.724  20.728  20.747  20.756  20.944
 20.989  24.086  27.238  27.240  27.266  27.291  27.305  27.318
 27.327  27.362  27.364  27.388  28.054  28.083  28.186  36.949
 36.950  36.952  36.954  36.955  36.956  36.958  36.959  36.963
 36.963  36.971  36.973  36.975  36.979  40.960  41.017  41.233
 41.240  41.304 215.799 215.879
 
 Beta MOs
 -- Occupied --
*******-100.749 -10.076  -9.271  -9.271  -7.090  -7.090  -7.080
 -7.080  -7.080  -7.080  -0.909  -0.833  -0.658  -0.474  -0.440
 -0.423  -0.315  -0.311  -0.294  -0.285
 -- Virtual --
  0.161   0.181   0.182   0.190   0.229   0.248   0.252   0.256
  0.258   0.270   0.276   0.302   0.313   0.314   0.330   0.364
  0.371   0.455   0.484   0.490   0.511   0.534   0.535   0.570
  0.576   0.595   0.635   0.644   0.662   0.676   0.703   0.711
  0.729   0.774   0.792   0.814   0.835   0.908   0.928   0.952
  0.983   1.119   1.173   1.175   1.180   1.183   1.279   1.287
  1.296   1.323   1.334   1.343   1.344   1.344   1.372   1.372
  1.379   1.380   1.393   1.407   1.484   1.548   1.574   1.599
  1.627   1.630   1.645   1.678   1.703   1.712   1.764   1.804
  1.867   1.875   1.887   1.953   1.975   2.408   2.426   2.468
  2.480   2.504   2.627   2.806   2.861   3.205   3.235   3.244
  3.370   3.466   3.493   3.602   3.630   3.659   3.752   3.785
  3.837   3.961   4.105   4.106   4.374   4.376   4.528   4.557
  4.588   4.600   4.623   4.625   4.635   4.648   4.652   4.674
  4.710   4.771   4.786   4.792   4.850   4.891   5.256   5.263
  5.282   5.284   5.387   5.391   5.437   5.479   5.505   5.899
  5.920   5.941   9.939   9.991  20.724  20.729  20.747  20.756
 20.945  20.989  24.088  27.238  27.240  27.267  27.291  27.305
 27.318  27.327  27.362  27.364  27.389  28.055  28.084  28.187
 36.949  36.950  36.952  36.954  36.955  36.956  36.958  36.960
 36.963  36.963  36.972  36.973  36.976  36.979  40.960  41.018
 41.233  41.240  41.305 215.799 215.879
 --------------------------------------------------------------
 
          Ground-State Mulliken Net Atomic Charges

     Atom                 Charge (a.u.)    Spin (a.u.)
  --------------------------------------------------------
      1 C                     3.969052      -3.536285
      2 Cl                   -0.935031       0.623761
      3 Cl                   -0.934871       0.623546
      4 H                    -1.548701       1.643595
      5 H                    -1.550448       1.645383
  --------------------------------------------------------
  Sum of atomic charges =    -1.000000
  Sum of spin   charges =     1.000000

 -----------------------------------------------------------------
                    Cartesian Multipole Moments
 -----------------------------------------------------------------
    Charge (ESU x 10^10)
                -4.8032
    Dipole Moment (Debye)
         X       0.0009      Y      -0.0047      Z       4.9795
       Tot       4.9795
    Quadrupole Moments (Debye-Ang)
        XX     -49.4262     XY      -0.0003     YY     -55.9158
        XZ      -0.0015     YZ       0.0074     ZZ     -58.6077
    Octapole Moments (Debye-Ang^2)
       XXX       0.0051    XXY      -0.0134    XYY       0.0030
       YYY      -0.0517    XXZ      -3.9923    XYZ      -0.0002
       YYZ       5.9487    XZZ       0.0030    YZZ      -0.0210
       ZZZ      -5.0863
    Hexadecapole Moments (Debye-Ang^3)
      XXXX    -486.6904   XXXY      -0.0021   XXYY    -137.0258
      XYYY      -0.0010   YYYY    -323.8547   XXXZ      -0.0122
      XXYZ       0.0179   XYYZ      -0.0035   YYYZ       0.0640
      XXZZ    -156.4675   XYZZ      -0.0006   YYZZ    -139.1369
      XZZZ      -0.0104   YZZZ       0.0585   ZZZZ    -470.8134
 -----------------------------------------------------------------
 Total job time:  185.32s(wall), 181.65s(cpu) 
 Wed Apr 24 15:52:40 2013

        *************************************************************
        *                                                           *
        *  Thank you very much for using Q-Chem.  Have a nice day.  *
        *                                                           *
        *************************************************************


0 sent ACK to 0 
now end server 0 ... 
 
**********************************************************************
Job 2 of 3 
**********************************************************************
 
Process 0 of 1 is on cl118.stfx.acenet.ca - thread support 1
initial socket setup ...start
initial socket setup ...done 
now start server 0 ... 

cmd = /usr/bin/ssh clhead /usr/local/qchem/bin/get_hostid 1422589730 > /scratch/tmp/5954857.1.short.q/qchem5396/lic.dat
                  Welcome to Q-Chem
     A Quantum Leap Into The Future Of Chemistry

 Y. Shao, L. Fusti-Molnar, Y. Jung, J. Kussmann, C. Ochsenfeld,
 S. T. Brown, A. T. B. Gilbert, L. V. Slipchenko,S. V. Levchenko,
 D. P. O'Neill, R. A. DiStasio Jr., R. C. Lochan, T. Wang,
 G. J. O. Beran, N. A. Besley, J. M. Herbert, C. Y. Lin,
 T. Van Voorhis, S. H. Chien, A. Sodt, R. P. Steele, 
 V. A. Rassolov, P. E. Maslen, P. P. Korambath, R. D. Adamson,
 B. Austin, J. Baker, E. F. C. Byrd, H. Dachsel, R. J. Doerksen,
 A. Dreuw, B. D. Dunietz, A. D. Dutoi, T. R. Furlani,
 S. R. Gwaltney, A. Heyden, S. Hirata, C.-P. Hsu, G. Kedziora,
 R. Z. Khaliullin, P. Klunzinger, A. M. Lee, M. S. Lee, W. Liang,
 I. Lotan, N. Nair, B. Peters, E. I. Proynov, P. A. Pieniazek, 
 Y. M. Rhee, J. Ritchie, E. Rosta, C. D. Sherrill, 
 A. C. Simmonett, J. E. Subotnik, H. L. Woodcock III,
 W. Zhang, A. T. Bell, A. K. Chakraborty, D. M. Chipman,
 F. J. Keil, A. Warshel, W. J. Hehre, H. F. Schaefer III,
 J. Kong, A. I. Krylov, P. M. W. Gill, M. Head-Gordon,
 Q-Chem, Version 3.1, Q-Chem, Inc., Pittsburgh, PA (2007).

 Additional authors for Version 3.1: 
 Z. Gan, Y. Zhao, N. E. Schultz, D. Truhlar, E. Epifanovsky and M. Oana.

 Additional authors for Version 3.2: 
 R. Baer, B. R. Brooks, D. Casanova, J.-D. Chai, C.-L. Cheng, 
 C. Cramer, D. Crittenden, A. Ghysels, G. Hawkins, E. G. Hohenstein, 
 C. Kelley, W. Kurlancheek, D. Liotard, E. Livshits, P. Manohar, 
 A. Marenich, D. Neuhauser, R. Olson, M. A. Rohrdanz, K. S. Thanthiriwatte, 
 A. J. W. Thom, V. Vanovschi, C. F. Williams, Q. Wu and Z.-Q. You. 


 Intel X86 Linux Version

 Q-chem begins on Wed Apr 24 15:52:43 2013  

 Parallel job on  1  processors
Processing $rem in /usr/local/qchem/config/preferences.

theFileMan(): MAXOPENFILES=974 MAX_SUB_FILE_NUM=16
Maximum size of a physical file is 2.0 GB, maximum size of a tmp-file is 32.0 GB


--------------------------------------------------------------
User input:
--------------------------------------------------------------

$molecule
0,1
C
X,1,1.
Cl,1,CCl,2,HClX
Cl,1,CCl,2,HClX,3,180.,0
H,1,CH,2,HCX,3,90.,0
H,1,CH,2,HCX,3,-90.,0

CCl=1.79088554
CH=1.08757434
HClX=56.65320917
HCX=124.25124469

$end

$comment
neutral
$end

$xc_functional
C PBE   1.00
X wPBE  1.00
$end


$rem
SYMMETRY_DECOMPOSITION	0
LRC_DFT                 true
exchange 		general
BASIS                   g3large
omega			400
mem_static              760
max_scf_cycles          200
scf_final_print         1
sym_ignore              true
$end

--------------------------------------------------------------
 Writing REM_CC_EA            5
 ----------------------------------------------------
       Standard Nuclear Orientation (Angstroms)
    I     Atom         X            Y            Z
 ----------------------------------------------------
    1      C       0.000000     0.000000     0.000000
    2      Cl      1.496032     0.000000     0.984459
    3      Cl     -1.496032     0.000000     0.984459
    4      H       0.000000    -0.898965    -0.612112
    5      H       0.000000     0.898965    -0.612112
 ----------------------------------------------------
 Nuclear Repulsion Energy =   132.7368262598 hartrees
 There are       21 alpha and       21 beta electrons
 Requested basis set is G3large
 There are 60 shells and 194 basis functions

Total QAlloc Memory Limit   2000 MB
Mega-Array Size       743 MB
MEM_STATIC part       760 MB

                       Distance Matrix (Angstroms)
             C (  1)   Cl(  2)   Cl(  3)   H (  4)
   Cl(  2)  1.790886
   Cl(  3)  1.790886  2.992064
   H (  4)  1.087574  2.365436  2.365436
   H (  5)  1.087574  2.365436  2.365436  1.797929
 
 A cutoff of  1.0D-08 yielded   1624 shell pairs
 There are  17199 function pairs ( 23316 Cartesian)
Evaluating contribution to one-electron hamiltonian from nuclear
 Smallest overlap matrix eigenvalue = 1.89E-04
 Multipole matrices computed through 2nd order

  Scale SEOQF with 1.000000e-01/1.000000e-01/1.000000e-01

 Standard Electronic Orientation quadrupole field applied
 Nucleus-field energy     =    -0.0000000008 hartrees
 Guess from superposition of atomic densities
 Warning:  Energy on first SCF cycle will be non-variational
 Long-range K will be added via erf
 Coulomb attenuation parameter = 0.4 bohr**(-1)
 A restricted Kohn-Sham SCF calculation will be
 performed using Pulay DIIS extrapolation
 Exchange:  wPBE + LR-HF      Correlation:  PBE
 Using SG-1 standard quadrature grid
 SCF converges when DIIS error is below 1.0E-05
 Requested basis set is G3large
 There are 60 shells and 194 basis functions
 A cutoff of  1.0D-08 yielded   1624 shell pairs
 There are  17199 function pairs ( 23316 Cartesian)
 ---------------------------------------
  Cycle       Energy         DIIS Error
 ---------------------------------------
    1    -959.7834520341      2.38E-02
    2    -959.3759153264      2.97E-03
    3    -959.3915835219      2.97E-03
    4    -959.4249112270      2.51E-04
    5    -959.4256050633      9.23E-05
    6    -959.4256972329      3.06E-05
    7    -959.4257084653      7.70E-06 Convergence criterion met
 ---------------------------------------
 One-Electron    Energy = -1587.4403215932
 Total Coulomb   Energy =   557.6044147016
 Alpha Exchange  Energy =    -4.3328439693
 Beta  Exchange  Energy =    -4.3328439693
 DFT   Exchange  Energy =   -52.0720102661
 DFT Correlation Energy =    -1.5889296280
 Nuclear Repu.   Energy =   132.7368262590
 Nuclear Attr.   Energy = -2545.3536660952
 Kinetic         Energy =   957.9133445020
 SCF time:  CPU 78.33 s  wall 79.97 s
 Final Alpha MO Eigenvalues
            1           2           3           4           5           6
    1-100.8910923-100.8907935 -10.2357083  -9.4131232  -9.4129194  -7.2323840
            7           8           9          10          11          12
    1  -7.2321710  -7.2211114  -7.2209829  -7.2208990  -7.2207703  -1.0547347
           13          14          15          16          17          18
    1  -0.9748300  -0.8104922  -0.6300796  -0.5882117  -0.5670015  -0.4545412
           19          20          21          22          23          24
    1  -0.4530030  -0.4336462  -0.4282919   0.0361255   0.0616688   0.0640168
           25          26
    1   0.0777242   0.1082313
 Analysis of SCF Wavefunction
 
 --------------------------------------------------------------
                    Orbital Energies (a.u.)
 --------------------------------------------------------------
 
 Alpha MOs
 -- Occupied --
*******-100.891 -10.236  -9.413  -9.413  -7.232  -7.232  -7.221
 -7.221  -7.221  -7.221  -1.055  -0.975  -0.810  -0.630  -0.588
 -0.567  -0.455  -0.453  -0.434  -0.428
 -- Virtual --
  0.036   0.062   0.064   0.078   0.108   0.130   0.132   0.146
  0.147   0.150   0.152   0.182   0.186   0.196   0.209   0.223
  0.242   0.318   0.343   0.354   0.374   0.396   0.397   0.433
  0.441   0.462   0.512   0.515   0.516   0.549   0.570   0.579
  0.596   0.632   0.649   0.677   0.689   0.762   0.783   0.807
  0.829   0.978   1.031   1.033   1.034   1.035   1.135   1.139
  1.151   1.174   1.195   1.203   1.206   1.208   1.234   1.236
  1.237   1.242   1.255   1.270   1.342   1.401   1.428   1.455
  1.485   1.485   1.487   1.533   1.555   1.556   1.616   1.661
  1.724   1.734   1.745   1.813   1.828   2.270   2.287   2.329
  2.340   2.361   2.482   2.649   2.708   3.050   3.082   3.086
  3.217   3.307   3.342   3.449   3.475   3.511   3.596   3.629
  3.682   3.805   3.948   3.950   4.216   4.217   4.374   4.412
  4.448   4.460   4.476   4.483   4.494   4.504   4.506   4.533
  4.568   4.627   4.640   4.650   4.706   4.745   5.116   5.122
  5.142   5.144   5.243   5.247   5.294   5.337   5.348   5.738
  5.776   5.796   9.798   9.850  20.583  20.587  20.606  20.615
 20.803  20.847  23.928  27.097  27.099  27.124  27.145  27.164
 27.177  27.185  27.220  27.222  27.244  27.899  27.929  28.028
 36.807  36.809  36.811  36.813  36.814  36.815  36.817  36.818
 36.821  36.821  36.830  36.831  36.833  36.837  40.802  40.859
 41.075  41.082  41.146 215.657 215.737
 --------------------------------------------------------------
 
          Ground-State Mulliken Net Atomic Charges

     Atom                 Charge (a.u.)
  ----------------------------------------
      1 C                     0.362351
      2 Cl                   -0.264032
      3 Cl                   -0.263963
      4 H                     0.082827
      5 H                     0.082817
  ----------------------------------------
  Sum of atomic charges =     0.000000

 -----------------------------------------------------------------
                    Cartesian Multipole Moments
 -----------------------------------------------------------------
    Charge (ESU x 10^10)
                 0.0000
    Dipole Moment (Debye)
         X      -0.0007      Y      -0.0001      Z      -1.7206
       Tot       1.7206
    Quadrupole Moments (Debye-Ang)
        XX     -33.7934     XY      -0.0007     YY     -31.2724
        XZ      -0.0004     YZ      -0.0001     ZZ     -32.2048
    Octapole Moments (Debye-Ang^2)
       XXX      -0.0023    XXY      -0.0015    XYY       0.0004
       YYY      -0.0001    XXZ     -21.2610    XYZ      -0.0018
       YYZ     -26.0397    XZZ       0.0005    YZZ      -0.0007
       ZZZ     -72.9032
    Hexadecapole Moments (Debye-Ang^3)
      XXXX    -361.5076   XXXY      -0.0100   XXYY     -72.1120
      XYYY      -0.0004   YYYY     -41.1281   XXXZ      -0.0012
      XXYZ      -0.0027   XYYZ       0.0005   YYYZ       0.0000
      XXZZ     -85.1298   XYZZ      -0.0030   YYZZ     -38.3751
      XZZZ       0.0026   YZZZ      -0.0009   ZZZZ    -184.8823
 -----------------------------------------------------------------
 Total job time:  80.22s(wall), 78.56s(cpu) 
 Wed Apr 24 15:54:03 2013

        *************************************************************
        *                                                           *
        *  Thank you very much for using Q-Chem.  Have a nice day.  *
        *                                                           *
        *************************************************************


0 sent ACK to 0 
now end server 0 ... 
 
**********************************************************************
Job 3 of 3 
**********************************************************************
 
Process 0 of 1 is on cl118.stfx.acenet.ca - thread support 1
initial socket setup ...start
initial socket setup ...done 
now start server 0 ... 

cmd = /usr/bin/ssh clhead /usr/local/qchem/bin/get_hostid 1955126632 > /scratch/tmp/5954857.1.short.q/qchem5396/lic.dat
                  Welcome to Q-Chem
     A Quantum Leap Into The Future Of Chemistry

 Y. Shao, L. Fusti-Molnar, Y. Jung, J. Kussmann, C. Ochsenfeld,
 S. T. Brown, A. T. B. Gilbert, L. V. Slipchenko,S. V. Levchenko,
 D. P. O'Neill, R. A. DiStasio Jr., R. C. Lochan, T. Wang,
 G. J. O. Beran, N. A. Besley, J. M. Herbert, C. Y. Lin,
 T. Van Voorhis, S. H. Chien, A. Sodt, R. P. Steele, 
 V. A. Rassolov, P. E. Maslen, P. P. Korambath, R. D. Adamson,
 B. Austin, J. Baker, E. F. C. Byrd, H. Dachsel, R. J. Doerksen,
 A. Dreuw, B. D. Dunietz, A. D. Dutoi, T. R. Furlani,
 S. R. Gwaltney, A. Heyden, S. Hirata, C.-P. Hsu, G. Kedziora,
 R. Z. Khaliullin, P. Klunzinger, A. M. Lee, M. S. Lee, W. Liang,
 I. Lotan, N. Nair, B. Peters, E. I. Proynov, P. A. Pieniazek, 
 Y. M. Rhee, J. Ritchie, E. Rosta, C. D. Sherrill, 
 A. C. Simmonett, J. E. Subotnik, H. L. Woodcock III,
 W. Zhang, A. T. Bell, A. K. Chakraborty, D. M. Chipman,
 F. J. Keil, A. Warshel, W. J. Hehre, H. F. Schaefer III,
 J. Kong, A. I. Krylov, P. M. W. Gill, M. Head-Gordon,
 Q-Chem, Version 3.1, Q-Chem, Inc., Pittsburgh, PA (2007).

 Additional authors for Version 3.1: 
 Z. Gan, Y. Zhao, N. E. Schultz, D. Truhlar, E. Epifanovsky and M. Oana.

 Additional authors for Version 3.2: 
 R. Baer, B. R. Brooks, D. Casanova, J.-D. Chai, C.-L. Cheng, 
 C. Cramer, D. Crittenden, A. Ghysels, G. Hawkins, E. G. Hohenstein, 
 C. Kelley, W. Kurlancheek, D. Liotard, E. Livshits, P. Manohar, 
 A. Marenich, D. Neuhauser, R. Olson, M. A. Rohrdanz, K. S. Thanthiriwatte, 
 A. J. W. Thom, V. Vanovschi, C. F. Williams, Q. Wu and Z.-Q. You. 


 Intel X86 Linux Version

 Q-chem begins on Wed Apr 24 15:54:06 2013  

 Parallel job on  1  processors
Processing $rem in /usr/local/qchem/config/preferences.

theFileMan(): MAXOPENFILES=974 MAX_SUB_FILE_NUM=16
Maximum size of a physical file is 2.0 GB, maximum size of a tmp-file is 32.0 GB


--------------------------------------------------------------
User input:
--------------------------------------------------------------

$molecule
1,2
C
X,1,1.
Cl,1,CCl,2,HClX
Cl,1,CCl,2,HClX,3,180.,0
H,1,CH,2,HCX,3,90.,0
H,1,CH,2,HCX,3,-90.,0

CCl=1.79088554
CH=1.08757434
HClX=56.65320917
HCX=124.25124469

$end

$comment
positive
$end

$xc_functional
C PBE   1.00
X wPBE  1.00
$end

$rem
SYMMETRY_DECOMPOSITION	0
LRC_DFT                 true
exchange 		general
BASIS                   g3large
omega			400
mem_static              760
max_scf_cycles          200
scf_final_print         1
sym_ignore              true
$end

--------------------------------------------------------------
 Writing REM_CC_EA            5
 ----------------------------------------------------
       Standard Nuclear Orientation (Angstroms)
    I     Atom         X            Y            Z
 ----------------------------------------------------
    1      C       0.000000     0.000000     0.000000
    2      Cl      1.496032     0.000000     0.984459
    3      Cl     -1.496032     0.000000     0.984459
    4      H       0.000000    -0.898965    -0.612112
    5      H       0.000000     0.898965    -0.612112
 ----------------------------------------------------
 Nuclear Repulsion Energy =   132.7368262598 hartrees
 There are       21 alpha and       20 beta electrons
 Requested basis set is G3large
 There are 60 shells and 194 basis functions

Total QAlloc Memory Limit   2000 MB
Mega-Array Size       743 MB
MEM_STATIC part       760 MB

                       Distance Matrix (Angstroms)
             C (  1)   Cl(  2)   Cl(  3)   H (  4)
   Cl(  2)  1.790886
   Cl(  3)  1.790886  2.992064
   H (  4)  1.087574  2.365436  2.365436
   H (  5)  1.087574  2.365436  2.365436  1.797929
 
 A cutoff of  1.0D-08 yielded   1624 shell pairs
 There are  17199 function pairs ( 23316 Cartesian)
Evaluating contribution to one-electron hamiltonian from nuclear
 Smallest overlap matrix eigenvalue = 1.89E-04
 Multipole matrices computed through 2nd order

  Scale SEOQF with 1.000000e-01/1.000000e-01/1.000000e-01

 Standard Electronic Orientation quadrupole field applied
 Nucleus-field energy     =    -0.0000000008 hartrees
 Guess from superposition of atomic densities
 Warning:  Energy on first SCF cycle will be non-variational
 Long-range K will be added via erf
 Coulomb attenuation parameter = 0.4 bohr**(-1)
 An unrestricted Kohn-Sham SCF calculation will be
 performed using Pulay DIIS extrapolation
 Exchange:  wPBE + LR-HF      Correlation:  PBE
 Using SG-1 standard quadrature grid
 SCF converges when DIIS error is below 1.0E-05
 Requested basis set is G3large
 There are 60 shells and 194 basis functions
 A cutoff of  1.0D-08 yielded   1624 shell pairs
 There are  17199 function pairs ( 23316 Cartesian)
 Warning!  Inaccurate integrated density:
   Number of electrons =    41
   Numerical integral  =    42.000041164111
   Relative error      =     2.4391247905 %
 ---------------------------------------
  Cycle       Energy         DIIS Error
 ---------------------------------------
    1    -959.7834520341      2.38E-02
    2    -958.9012450280      3.70E-03
    3    -958.9322430495      3.86E-03
    4    -958.9923427839      4.15E-04
    5    -958.9939862120      2.07E-04
    6    -958.9945606518      6.47E-05
    7    -958.9948534845      4.00E-05
    8    -958.9949935364      2.90E-05
    9    -958.9950844492      2.06E-05
   10    -958.9951646980      1.75E-05
   11    -958.9952444682      1.55E-05
   12    -958.9953648199      1.23E-05
   13    -958.9954547848      1.01E-05
   14    -958.9954957251      8.88E-06 Convergence criterion met
 ---------------------------------------
 One-Electron    Energy = -1575.9504512001
 Total Coulomb   Energy =   546.1535975330
 Alpha Exchange  Energy =    -4.3497032643
 Beta  Exchange  Energy =    -4.1141417207
 DFT   Exchange  Energy =   -51.9201148827
 DFT Correlation Energy =    -1.5515084492
 Nuclear Repu.   Energy =   132.7368262590
 Nuclear Attr.   Energy = -2533.4271430346
 Kinetic         Energy =   957.4766918345
 <S^2> = 0.7573
 SCF time:  CPU 181.68 s  wall 185.78 s
 Final Alpha MO Eigenvalues
            1           2           3           4           5           6
    1-101.2012921-101.1658418 -10.4935269  -9.7190114  -9.6845352  -7.5374719
            7           8           9          10          11          12
    1  -7.5345267  -7.5235801  -7.5031091  -7.4979110  -7.4901098  -1.3267324
           13          14          15          16          17          18
    1  -1.2492477  -1.0739804  -0.8920107  -0.8495367  -0.8266945  -0.7464028
           19          20          21          22          23          24
    1  -0.7175092  -0.7040795  -0.6885028  -0.1736259  -0.1316328  -0.1095000
           25          26
    1  -0.0795733  -0.0572314
 Final Beta MO Eigenvalues
            1           2           3           4           5           6
    1-101.1978485-101.1635937 -10.4927638  -9.7159347  -9.6825366  -7.5336487
            7           8           9          10          11          12
    1  -7.5271847  -7.5216230  -7.5014362  -7.4923285  -7.4888236  -1.3114946
           13          14          15          16          17          18
    1  -1.2289973  -1.0536305  -0.8633006  -0.8394181  -0.8206030  -0.7086835
           19          20          21          22          23          24
    1  -0.6826897  -0.6440067  -0.4314046  -0.1669287  -0.1266452  -0.1083424
           25
    1  -0.0779225
 Analysis of SCF Wavefunction
 
 --------------------------------------------------------------
                    Orbital Energies (a.u.)
 --------------------------------------------------------------
 
 Alpha MOs
 -- Occupied --
*******-101.166 -10.494  -9.719  -9.685  -7.537  -7.535  -7.524
 -7.503  -7.498  -7.490  -1.327  -1.249  -1.074  -0.892  -0.850
 -0.827  -0.746  -0.718  -0.704  -0.689
 -- Virtual --
 -0.174  -0.132  -0.110  -0.080  -0.057  -0.049  -0.034  -0.017
 -0.012  -0.003   0.000   0.020   0.020   0.030   0.038   0.040
  0.074   0.101   0.121   0.141   0.143   0.161   0.176   0.199
  0.223   0.241   0.309   0.313   0.320   0.343   0.353   0.371
  0.383   0.424   0.428   0.450   0.482   0.537   0.558   0.576
  0.593   0.748   0.789   0.794   0.797   0.799   0.884   0.902
  0.909   0.932   0.939   0.943   0.953   0.958   0.986   0.991
  0.994   0.995   1.016   1.031   1.102   1.161   1.182   1.220
  1.227   1.247   1.263   1.288   1.316   1.331   1.382   1.416
  1.484   1.493   1.507   1.562   1.592   2.008   2.020   2.065
  2.087   2.108   2.228   2.398   2.460   2.795   2.829   2.833
  2.963   3.054   3.091   3.197   3.224   3.257   3.341   3.378
  3.427   3.552   3.692   3.694   3.953   3.960   4.108   4.124
  4.155   4.171   4.190   4.203   4.219   4.228   4.232   4.255
  4.299   4.341   4.370   4.378   4.431   4.481   4.822   4.829
  4.866   4.869   4.960   4.968   5.016   5.065   5.088   5.479
  5.495   5.528   9.510   9.572  20.279  20.292  20.323  20.337
 20.512  20.567  23.670  26.789  26.824  26.833  26.859  26.868
 26.898  26.900  26.913  26.948  26.965  27.637  27.665  27.768
 36.503  36.505  36.507  36.509  36.517  36.522  36.532  36.540
 36.541  36.544  36.546  36.553  36.557  36.565  40.544  40.600
 40.815  40.824  40.887 215.362 215.449
 
 Beta MOs
 -- Occupied --
*******-101.164 -10.493  -9.716  -9.683  -7.534  -7.527  -7.522
 -7.501  -7.492  -7.489  -1.311  -1.229  -1.054  -0.863  -0.839
 -0.821  -0.709  -0.683  -0.644
 -- Virtual --
 -0.431  -0.167  -0.127  -0.108  -0.078  -0.056  -0.047  -0.032
 -0.012  -0.011   0.000   0.001   0.022   0.028   0.032   0.039
  0.042   0.077   0.114   0.128   0.147   0.158   0.173   0.186
  0.216   0.234   0.251   0.312   0.316   0.323   0.346   0.366
  0.376   0.393   0.429   0.434   0.454   0.488   0.544   0.563
  0.578   0.604   0.749   0.797   0.799   0.804   0.804   0.898
  0.910   0.917   0.949   0.951   0.955   0.965   0.971   0.996
  0.999   1.003   1.008   1.026   1.036   1.110   1.167   1.191
  1.227   1.239   1.256   1.271   1.296   1.321   1.337   1.388
  1.428   1.492   1.500   1.511   1.569   1.595   2.021   2.036
  2.084   2.093   2.112   2.233   2.409   2.468   2.800   2.831
  2.841   2.968   3.063   3.091   3.200   3.230   3.259   3.347
  3.379   3.431   3.552   3.701   3.702   3.970   3.974   4.124
  4.150   4.181   4.193   4.214   4.221   4.236   4.244   4.247
  4.273   4.305   4.361   4.386   4.387   4.441   4.488   4.831
  4.837   4.872   4.875   4.969   4.971   5.022   5.067   5.101
  5.493   5.500   5.532   9.516   9.577  20.293  20.296  20.332
 20.339  20.515  20.569  23.671  26.796  26.828  26.836  26.867
 26.869  26.903  26.903  26.919  26.952  26.966  27.637  27.666
 27.772  36.506  36.508  36.510  36.512  36.520  36.523  36.533
 36.542  36.542  36.545  36.548  36.555  36.557  36.566  40.544
 40.602  40.818  40.824  40.889 215.365 215.452
 --------------------------------------------------------------
 
          Ground-State Mulliken Net Atomic Charges

     Atom                 Charge (a.u.)    Spin (a.u.)
  --------------------------------------------------------
      1 C                     0.400611       0.013198
      2 Cl                    0.082659       0.337516
      3 Cl                    0.192281       0.519849
      4 H                     0.161882       0.062959
      5 H                     0.162567       0.066478
  --------------------------------------------------------
  Sum of atomic charges =     1.000000
  Sum of spin   charges =     1.000000

 -----------------------------------------------------------------
                    Cartesian Multipole Moments
 -----------------------------------------------------------------
    Charge (ESU x 10^10)
                 4.8032
    Dipole Moment (Debye)
         X      -0.7311      Y       0.0112      Z       1.7495
       Tot       1.8962
    Quadrupole Moments (Debye-Ang)
        XX     -19.8158     XY      -0.3640     YY     -26.3850
        XZ      -0.7405     YZ      -0.0824     ZZ     -24.4724
    Octapole Moments (Debye-Ang^2)
       XXX      -2.1966    XXY       0.1654    XYY      -0.7881
       YYY       0.0118    XXZ      -8.2792    XYZ       0.1033
       YYZ     -22.8154    XZZ      -0.9798    YZZ      -0.1436
       ZZZ     -61.4785
    Hexadecapole Moments (Debye-Ang^3)
      XXXX    -287.6363   XXXY      -3.1356   XXYY     -59.4236
      XYYY      -0.3272   YYYY     -30.6431   XXXZ      -1.7496
      XXYZ      -0.0358   XYYZ      -0.8374   YYYZ      -0.0700
      XXZZ     -63.7383   XYZZ       0.5505   YYZZ     -30.8058
      XZZZ      -1.6167   YZZZ      -0.2986   ZZZZ    -156.8656
 -----------------------------------------------------------------
 Total job time:  186.33s(wall), 181.91s(cpu) 
 Wed Apr 24 15:57:12 2013

        *************************************************************
        *                                                           *
        *  Thank you very much for using Q-Chem.  Have a nice day.  *
        *                                                           *
        *************************************************************


0 sent ACK to 0 
now end server 0 ... 
