Process 0 of 1 is on cl141.stfx.acenet.ca - thread support 1
initial socket setup ...start
initial socket setup ...done 
now start server 0 ... 

cmd = /usr/bin/ssh clhead /usr/local/qchem/bin/get_hostid 1868091693 > /globalscratch/itamblyn/bnl/g297_b3lyp_neut_g03Large_worked/g2g71049/omega540/qchem24251/lic.dat
                  Welcome to Q-Chem
     A Quantum Leap Into The Future Of Chemistry

 Y. Shao, L. Fusti-Molnar, Y. Jung, J. Kussmann, C. Ochsenfeld,
 S. T. Brown, A. T. B. Gilbert, L. V. Slipchenko,S. V. Levchenko,
 D. P. O'Neill, R. A. DiStasio Jr., R. C. Lochan, T. Wang,
 G. J. O. Beran, N. A. Besley, J. M. Herbert, C. Y. Lin,
 T. Van Voorhis, S. H. Chien, A. Sodt, R. P. Steele, 
 V. A. Rassolov, P. E. Maslen, P. P. Korambath, R. D. Adamson,
 B. Austin, J. Baker, E. F. C. Byrd, H. Dachsel, R. J. Doerksen,
 A. Dreuw, B. D. Dunietz, A. D. Dutoi, T. R. Furlani,
 S. R. Gwaltney, A. Heyden, S. Hirata, C.-P. Hsu, G. Kedziora,
 R. Z. Khaliullin, P. Klunzinger, A. M. Lee, M. S. Lee, W. Liang,
 I. Lotan, N. Nair, B. Peters, E. I. Proynov, P. A. Pieniazek, 
 Y. M. Rhee, J. Ritchie, E. Rosta, C. D. Sherrill, 
 A. C. Simmonett, J. E. Subotnik, H. L. Woodcock III,
 W. Zhang, A. T. Bell, A. K. Chakraborty, D. M. Chipman,
 F. J. Keil, A. Warshel, W. J. Hehre, H. F. Schaefer III,
 J. Kong, A. I. Krylov, P. M. W. Gill, M. Head-Gordon,
 Q-Chem, Version 3.1, Q-Chem, Inc., Pittsburgh, PA (2007).

 Additional authors for Version 3.1: 
 Z. Gan, Y. Zhao, N. E. Schultz, D. Truhlar, E. Epifanovsky and M. Oana.

 Additional authors for Version 3.2: 
 R. Baer, B. R. Brooks, D. Casanova, J.-D. Chai, C.-L. Cheng, 
 C. Cramer, D. Crittenden, A. Ghysels, G. Hawkins, E. G. Hohenstein, 
 C. Kelley, W. Kurlancheek, D. Liotard, E. Livshits, P. Manohar, 
 A. Marenich, D. Neuhauser, R. Olson, M. A. Rohrdanz, K. S. Thanthiriwatte, 
 A. J. W. Thom, V. Vanovschi, C. F. Williams, Q. Wu and Z.-Q. You. 


 Intel X86 Linux Version

 Q-chem begins on Fri Apr 15 15:30:50 2011  

 Parallel job on  1  processors
Processing $rem in /usr/local/qchem/config/preferences.

theFileMan(): MAXOPENFILES=974 MAX_SUB_FILE_NUM=16
Maximum size of a physical file is 2.0 GB, maximum size of a tmp-file is 32.0 GB


--------------------------------------------------------------
User input:
--------------------------------------------------------------

$molecule
-1,2
F
Cl,1,R1

R1=1.66349697

$end

$comment
negative
$end

$xc_functional
   X HF 1.0
   X BNL 1.0
   C LYP 1.0
$end

$rem
SYMMETRY_DECOMPOSITION	0
exchange 		general
BASIS                   g3large
omega			540
separate_jk		true
mem_static              760
max_scf_cycles          200
scf_final_print         1
sym_ignore              true
$end

--------------------------------------------------------------
 Writing REM_CC_EA            2
 ----------------------------------------------------
       Standard Nuclear Orientation (Angstroms)
    I     Atom         X            Y            Z
 ----------------------------------------------------
    1      F       0.000000     0.000000     0.000000
    2      Cl      0.000000     0.000000     1.663497
 ----------------------------------------------------
 Nuclear Repulsion Energy =    48.6710313950 hartrees
 There are       14 alpha and       13 beta electrons
 Requested basis set is G3large
 There are 29 shells and 108 basis functions

Total QAlloc Memory Limit   2000 MB
Mega-Array Size       743 MB
MEM_STATIC part       760 MB

                       Distance Matrix (Angstroms)
             F (  1)
   Cl(  2)  1.663497
 
 A cutoff of  1.0D-08 yielded    404 shell pairs
 There are   5775 function pairs (  8054 Cartesian)
Evaluating contribution to one-electron hamiltonian from nuclear
 Smallest overlap matrix eigenvalue = 5.02E-03
 Multipole matrices computed through 2nd order

  Scale SEOQF with 1.000000e-01/1.000000e-01/1.000000e-01

 Standard Electronic Orientation quadrupole field applied
 Nucleus-field energy     =    -0.0000000050 hartrees
 Guess from superposition of atomic densities
 Warning:  Energy on first SCF cycle will be non-variational
 An unrestricted hybrid HF-DFT SCF calculation will be
 performed using Pulay DIIS extrapolation
 Exchange:     1.0000 Hartree-Fock + 1.0000 BNL
 Correlation:  1.0000 LYP
 Using SG-1 standard quadrature grid
 SCF converges when DIIS error is below 1.0E-05
 Warning!  Inaccurate integrated density:
   Number of electrons =    27
   Numerical integral  =    25.999798557194
   Relative error      =    -3.7044497882 %
 ---------------------------------------
  Cycle       Energy         DIIS Error
 ---------------------------------------
    1    -557.4942624286      3.00E-02
    2    -557.4475515041      6.31E-03
    3    -557.4693057173      6.46E-03
    4    -557.5019642346      7.79E-04
 Info = 9046

 Q-Chem warning in module diagon.C, line 98:

 Call to dsyevd failed in Diagonalize

    5    -557.5028528434      3.08E-04
    6    -557.5031174785      1.08E-04
    7    -557.5032199304      4.70E-05
    8    -557.5032622886      2.17E-05
    9    -557.5032737180      9.22E-06 Convergence criterion met
 ---------------------------------------
 One-Electron    Energy =  -879.1622833671
 Total Coulomb   Energy =   309.3415367244
 Alpha Exchange  Energy =    -3.7305830824
 Beta  Exchange  Energy =    -3.4854710845
 DFT   Exchange  Energy =   -28.0637191632
 DFT Correlation Energy =    -1.0737851352
 Nuclear Repu.   Energy =    48.6710313900
 Nuclear Attr.   Energy = -1436.1087661592
 Kinetic         Energy =   556.9464827921
 <S^2> = 0.7545
 SCF time:  CPU 22.74 s  wall 29.04 s
 Final Alpha MO Eigenvalues
            1           2           3           4           5           6
    1-100.3086652 -24.0463818  -9.1613157  -7.0128647  -6.9980306  -6.9980300
            7           8           9          10          11          12
    1  -1.0924898  -0.7217576  -0.4103548  -0.3444193  -0.3444178  -0.1779465
           13          14          15          16          17          18
    1  -0.1779450  -0.0473026   0.2588751   0.2823204   0.2823210   0.3020475
           19
    1   0.4770112
 Final Beta MO Eigenvalues
            1           2           3           4           5           6
    1-100.3042553 -24.0339755  -9.1565787  -7.0031901  -6.9944809  -6.9944802
            7           8           9          10          11          12
    1  -1.0673228  -0.6885443  -0.3409958  -0.3310429  -0.3310418  -0.1642787
           13          14          15          16          17          18
    1  -0.1642745   0.2433589   0.2595208   0.2801127   0.2801158   0.3644992
 Analysis of SCF Wavefunction
 
 --------------------------------------------------------------
                    Orbital Energies (a.u.)
 --------------------------------------------------------------
 
 Alpha MOs
 -- Occupied --
******* -24.046  -9.161  -7.013  -6.998  -6.998  -1.092  -0.722
 -0.410  -0.344  -0.344  -0.178  -0.178  -0.047
 -- Virtual --
  0.259   0.282   0.282   0.302   0.477   0.517   0.517   0.623
  0.623   0.625   0.688   0.688   0.768   0.810   0.817   0.817
  1.393   1.459   1.459   1.477   1.477   1.479   1.479   1.504
  1.519   1.519   1.615   1.615   1.683   1.735   1.735   1.970
  2.276   2.498   2.498   2.509   2.509   2.619   2.901   2.901
  3.375   4.756   4.756   4.768   4.768   4.797   4.797   4.862
  5.410   5.411   5.423   5.423   5.678   6.552   6.552   6.709
  7.078   7.078   7.079   7.079   7.134   7.134   7.307   9.495
  9.495   9.694   9.694   9.931  10.225  20.884  20.884  21.093
 27.459  27.564  27.580  27.580  27.660  37.219  37.219  37.220
 37.221  37.225  37.225  37.232  50.404  50.467  50.545  50.545
 50.631  56.069  56.069  56.146  67.290 216.471
 
 Beta MOs
 -- Occupied --
******* -24.034  -9.157  -7.003  -6.994  -6.994  -1.067  -0.689
 -0.341  -0.331  -0.331  -0.164  -0.164
 -- Virtual --
  0.243   0.260   0.280   0.280   0.364   0.478   0.519   0.519
  0.626   0.626   0.627   0.708   0.708   0.796   0.819   0.819
  0.827   1.420   1.473   1.473   1.483   1.484   1.489   1.489
  1.521   1.522   1.522   1.631   1.631   1.694   1.742   1.742
  1.986   2.289   2.505   2.505   2.513   2.513   2.642   2.916
  2.916   3.395   4.776   4.776   4.778   4.778   4.822   4.822
  4.888   5.415   5.417   5.434   5.434   5.693   6.566   6.566
  6.739   7.085   7.085   7.094   7.094   7.154   7.154   7.331
  9.510   9.510   9.727   9.727   9.949  10.253  20.888  20.888
 21.106  27.462  27.567  27.588  27.588  27.670  37.221  37.221
 37.224  37.224  37.228  37.228  37.237  50.416  50.479  50.573
 50.573  50.664  56.078  56.078  56.168  67.305 216.476
 --------------------------------------------------------------
 
          Ground-State Mulliken Net Atomic Charges

     Atom                 Charge (a.u.)    Spin (a.u.)
  --------------------------------------------------------
      1 F                    -0.367934       0.164374
      2 Cl                   -0.632066       0.835626
  --------------------------------------------------------
  Sum of atomic charges =    -1.000000
  Sum of spin   charges =     1.000000

 -----------------------------------------------------------------
                    Cartesian Multipole Moments
 -----------------------------------------------------------------
    Charge (ESU x 10^10)
                -4.8032
    Dipole Moment (Debye)
         X       0.0002      Y      -0.0003      Z      -5.4573
       Tot       5.4573
    Quadrupole Moments (Debye-Ang)
        XX     -21.4852     XY      -0.0001     YY     -21.4852
        XZ       0.0010     YZ      -0.0029     ZZ     -33.4579
    Octapole Moments (Debye-Ang^2)
       XXX      -0.0002    XXY       0.0003    XYY      -0.0001
       YYY       0.0010    XXZ     -26.8726    XYZ      -0.0003
       YYZ     -26.8725    XZZ       0.0050    YZZ      -0.0135
       ZZZ    -104.0475
    Hexadecapole Moments (Debye-Ang^3)
      XXXX     -29.3041   XXXY      -0.0005   XXYY      -9.7678
      XYYY      -0.0005   YYYY     -29.3039   XXXZ       0.0025
      XXYZ      -0.0022   XYYZ       0.0008   YYYZ      -0.0067
      XXZZ     -56.9950   XYZZ      -0.0006   YYZZ     -56.9948
      XZZZ       0.0172   YZZZ      -0.0472   ZZZZ    -356.3235
 -----------------------------------------------------------------
 Total job time:  32.62s(wall), 22.86s(cpu) 
 Fri Apr 15 15:31:22 2011

        *************************************************************
        *                                                           *
        *  Thank you very much for using Q-Chem.  Have a nice day.  *
        *                                                           *
        *************************************************************


0 sent ACK to 0 
now end server 0 ... 
 
**********************************************************************
Job 2 of 3 
**********************************************************************
 
Process 0 of 1 is on cl141.stfx.acenet.ca - thread support 1
initial socket setup ...start
initial socket setup ...done 
now start server 0 ... 

cmd = /usr/bin/ssh clhead /usr/local/qchem/bin/get_hostid 1054114106 > /globalscratch/itamblyn/bnl/g297_b3lyp_neut_g03Large_worked/g2g71049/omega540/qchem24251/lic.dat
                  Welcome to Q-Chem
     A Quantum Leap Into The Future Of Chemistry

 Y. Shao, L. Fusti-Molnar, Y. Jung, J. Kussmann, C. Ochsenfeld,
 S. T. Brown, A. T. B. Gilbert, L. V. Slipchenko,S. V. Levchenko,
 D. P. O'Neill, R. A. DiStasio Jr., R. C. Lochan, T. Wang,
 G. J. O. Beran, N. A. Besley, J. M. Herbert, C. Y. Lin,
 T. Van Voorhis, S. H. Chien, A. Sodt, R. P. Steele, 
 V. A. Rassolov, P. E. Maslen, P. P. Korambath, R. D. Adamson,
 B. Austin, J. Baker, E. F. C. Byrd, H. Dachsel, R. J. Doerksen,
 A. Dreuw, B. D. Dunietz, A. D. Dutoi, T. R. Furlani,
 S. R. Gwaltney, A. Heyden, S. Hirata, C.-P. Hsu, G. Kedziora,
 R. Z. Khaliullin, P. Klunzinger, A. M. Lee, M. S. Lee, W. Liang,
 I. Lotan, N. Nair, B. Peters, E. I. Proynov, P. A. Pieniazek, 
 Y. M. Rhee, J. Ritchie, E. Rosta, C. D. Sherrill, 
 A. C. Simmonett, J. E. Subotnik, H. L. Woodcock III,
 W. Zhang, A. T. Bell, A. K. Chakraborty, D. M. Chipman,
 F. J. Keil, A. Warshel, W. J. Hehre, H. F. Schaefer III,
 J. Kong, A. I. Krylov, P. M. W. Gill, M. Head-Gordon,
 Q-Chem, Version 3.1, Q-Chem, Inc., Pittsburgh, PA (2007).

 Additional authors for Version 3.1: 
 Z. Gan, Y. Zhao, N. E. Schultz, D. Truhlar, E. Epifanovsky and M. Oana.

 Additional authors for Version 3.2: 
 R. Baer, B. R. Brooks, D. Casanova, J.-D. Chai, C.-L. Cheng, 
 C. Cramer, D. Crittenden, A. Ghysels, G. Hawkins, E. G. Hohenstein, 
 C. Kelley, W. Kurlancheek, D. Liotard, E. Livshits, P. Manohar, 
 A. Marenich, D. Neuhauser, R. Olson, M. A. Rohrdanz, K. S. Thanthiriwatte, 
 A. J. W. Thom, V. Vanovschi, C. F. Williams, Q. Wu and Z.-Q. You. 


 Intel X86 Linux Version

 Q-chem begins on Fri Apr 15 15:31:27 2011  

 Parallel job on  1  processors
Processing $rem in /usr/local/qchem/config/preferences.

theFileMan(): MAXOPENFILES=974 MAX_SUB_FILE_NUM=16
Maximum size of a physical file is 2.0 GB, maximum size of a tmp-file is 32.0 GB


--------------------------------------------------------------
User input:
--------------------------------------------------------------

$molecule
0,1
F
Cl,1,R1

R1=1.66349697

$end

$comment
neutral
$end

$xc_functional
   X HF 1.0
   X BNL 1.0
   C LYP 1.0
$end

$rem
SYMMETRY_DECOMPOSITION	0
exchange 		general
BASIS                   g3large
omega			540
separate_jk		true
mem_static              760
max_scf_cycles          200
scf_final_print         1
sym_ignore              true
$end

--------------------------------------------------------------
 Writing REM_CC_EA            2
 ----------------------------------------------------
       Standard Nuclear Orientation (Angstroms)
    I     Atom         X            Y            Z
 ----------------------------------------------------
    1      F       0.000000     0.000000     0.000000
    2      Cl      0.000000     0.000000     1.663497
 ----------------------------------------------------
 Nuclear Repulsion Energy =    48.6710313950 hartrees
 There are       13 alpha and       13 beta electrons
 Requested basis set is G3large
 There are 29 shells and 108 basis functions

Total QAlloc Memory Limit   2000 MB
Mega-Array Size       743 MB
MEM_STATIC part       760 MB

                       Distance Matrix (Angstroms)
             F (  1)
   Cl(  2)  1.663497
 
 A cutoff of  1.0D-08 yielded    404 shell pairs
 There are   5775 function pairs (  8054 Cartesian)
Evaluating contribution to one-electron hamiltonian from nuclear
 Smallest overlap matrix eigenvalue = 5.02E-03
 Multipole matrices computed through 2nd order

  Scale SEOQF with 1.000000e-01/1.000000e-01/1.000000e-01

 Standard Electronic Orientation quadrupole field applied
 Nucleus-field energy     =    -0.0000000050 hartrees
 Guess from superposition of atomic densities
 Warning:  Energy on first SCF cycle will be non-variational
 A restricted hybrid HF-DFT SCF calculation will be
 performed using Pulay DIIS extrapolation
 Exchange:     1.0000 Hartree-Fock + 1.0000 BNL
 Correlation:  1.0000 LYP
 Using SG-1 standard quadrature grid
 SCF converges when DIIS error is below 1.0E-05
 ---------------------------------------
  Cycle       Energy         DIIS Error
 ---------------------------------------
    1    -557.4942624286      3.00E-02
    2    -557.4403922361      5.09E-03
    3    -557.4607673524      2.67E-03
 Info = 9046

 Q-Chem warning in module diagon.C, line 98:

 Call to dsyevd failed in Diagonalize

    4    -557.4656080000      8.33E-04
    5    -557.4663209029      3.43E-04
    6    -557.4666086395      1.24E-04
    7    -557.4667175830      5.57E-05
    8    -557.4667548584      1.74E-05
    9    -557.4667583217      4.92E-06 Convergence criterion met
 ---------------------------------------
 One-Electron    Energy =  -870.4949964928
 Total Coulomb   Energy =   300.3663703798
 Alpha Exchange  Energy =    -3.5143555564
 Beta  Exchange  Energy =    -3.5143555564
 DFT   Exchange  Energy =   -27.9344119606
 DFT Correlation Energy =    -1.0460405251
 Nuclear Repu.   Energy =    48.6710313900
 Nuclear Attr.   Energy = -1426.7972549028
 Kinetic         Energy =   556.3022584100
 SCF time:  CPU 21.15 s  wall 29.54 s
 Final Alpha MO Eigenvalues
            1           2           3           4           5           6
    1-100.6648098 -24.3983446  -9.5134898  -7.3700551  -7.3475789  -7.3475785
            7           8           9          10          11          12
    1  -1.4110973  -1.0267873  -0.6837276  -0.6544057  -0.6544048  -0.4863310
           13          14          15          16          17          18
    1  -0.4863308  -0.0292311   0.0744650   0.1108345   0.1108355   0.1273442
 Analysis of SCF Wavefunction
 
 --------------------------------------------------------------
                    Orbital Energies (a.u.)
 --------------------------------------------------------------
 
 Alpha MOs
 -- Occupied --
******* -24.398  -9.513  -7.370  -7.348  -7.348  -1.411  -1.027
 -0.684  -0.654  -0.654  -0.486  -0.486
 -- Virtual --
 -0.029   0.074   0.111   0.111   0.127   0.275   0.304   0.304
  0.352   0.352   0.403   0.422   0.422   0.511   0.563   0.567
  0.567   1.099   1.154   1.154   1.171   1.172   1.190   1.190
  1.211   1.239   1.239   1.315   1.315   1.422   1.464   1.464
  1.678   1.989   2.195   2.195   2.212   2.212   2.300   2.600
  2.600   3.065   4.429   4.429   4.448   4.448   4.466   4.466
  4.531   5.077   5.079   5.082   5.082   5.343   6.236   6.236
  6.386   6.764   6.764   6.770   6.770   6.815   6.815   6.981
  9.176   9.176   9.372   9.372   9.598   9.895  20.537  20.537
 20.741  27.112  27.217  27.227  27.227  27.305  36.864  36.864
 36.867  36.868  36.875  36.876  36.876  50.062  50.125  50.202
 50.202  50.288  55.722  55.722  55.796  66.941 216.116
 --------------------------------------------------------------
 
          Ground-State Mulliken Net Atomic Charges

     Atom                 Charge (a.u.)
  ----------------------------------------
      1 F                    -0.181422
      2 Cl                    0.181422
  ----------------------------------------
  Sum of atomic charges =     0.000000

 -----------------------------------------------------------------
                    Cartesian Multipole Moments
 -----------------------------------------------------------------
    Charge (ESU x 10^10)
                 0.0000
    Dipole Moment (Debye)
         X       0.0000      Y       0.0000      Z       1.2339
       Tot       1.2339
    Quadrupole Moments (Debye-Ang)
        XX     -17.5917     XY       0.0000     YY     -17.5917
        XZ      -0.0001     YZ       0.0000     ZZ     -13.7950
    Octapole Moments (Debye-Ang^2)
       XXX       0.0000    XXY       0.0000    XYY       0.0000
       YYY       0.0000    XXZ     -21.1715    XYZ       0.0000
       YYZ     -21.1715    XZZ      -0.0001    YZZ      -0.0002
       ZZZ     -50.4062
    Hexadecapole Moments (Debye-Ang^3)
      XXXX     -17.4679   XXXY       0.0000   XXYY      -5.8225
      XYYY       0.0000   YYYY     -17.4679   XXXZ      -0.0001
      XXYZ       0.0000   XYYZ       0.0000   YYYZ       0.0000
      XXZZ     -41.0071   XYZZ       0.0001   YYZZ     -41.0071
      XZZZ      -0.0004   YZZZ      -0.0005   ZZZZ    -183.0869
 -----------------------------------------------------------------
 Total job time:  32.93s(wall), 21.28s(cpu) 
 Fri Apr 15 15:32:00 2011

        *************************************************************
        *                                                           *
        *  Thank you very much for using Q-Chem.  Have a nice day.  *
        *                                                           *
        *************************************************************


0 sent ACK to 0 
now end server 0 ... 
 
**********************************************************************
Job 3 of 3 
**********************************************************************
 
Process 0 of 1 is on cl141.stfx.acenet.ca - thread support 1
initial socket setup ...start
initial socket setup ...done 
now start server 0 ... 

cmd = /usr/bin/ssh clhead /usr/local/qchem/bin/get_hostid 1913124652 > /globalscratch/itamblyn/bnl/g297_b3lyp_neut_g03Large_worked/g2g71049/omega540/qchem24251/lic.dat
                  Welcome to Q-Chem
     A Quantum Leap Into The Future Of Chemistry

 Y. Shao, L. Fusti-Molnar, Y. Jung, J. Kussmann, C. Ochsenfeld,
 S. T. Brown, A. T. B. Gilbert, L. V. Slipchenko,S. V. Levchenko,
 D. P. O'Neill, R. A. DiStasio Jr., R. C. Lochan, T. Wang,
 G. J. O. Beran, N. A. Besley, J. M. Herbert, C. Y. Lin,
 T. Van Voorhis, S. H. Chien, A. Sodt, R. P. Steele, 
 V. A. Rassolov, P. E. Maslen, P. P. Korambath, R. D. Adamson,
 B. Austin, J. Baker, E. F. C. Byrd, H. Dachsel, R. J. Doerksen,
 A. Dreuw, B. D. Dunietz, A. D. Dutoi, T. R. Furlani,
 S. R. Gwaltney, A. Heyden, S. Hirata, C.-P. Hsu, G. Kedziora,
 R. Z. Khaliullin, P. Klunzinger, A. M. Lee, M. S. Lee, W. Liang,
 I. Lotan, N. Nair, B. Peters, E. I. Proynov, P. A. Pieniazek, 
 Y. M. Rhee, J. Ritchie, E. Rosta, C. D. Sherrill, 
 A. C. Simmonett, J. E. Subotnik, H. L. Woodcock III,
 W. Zhang, A. T. Bell, A. K. Chakraborty, D. M. Chipman,
 F. J. Keil, A. Warshel, W. J. Hehre, H. F. Schaefer III,
 J. Kong, A. I. Krylov, P. M. W. Gill, M. Head-Gordon,
 Q-Chem, Version 3.1, Q-Chem, Inc., Pittsburgh, PA (2007).

 Additional authors for Version 3.1: 
 Z. Gan, Y. Zhao, N. E. Schultz, D. Truhlar, E. Epifanovsky and M. Oana.

 Additional authors for Version 3.2: 
 R. Baer, B. R. Brooks, D. Casanova, J.-D. Chai, C.-L. Cheng, 
 C. Cramer, D. Crittenden, A. Ghysels, G. Hawkins, E. G. Hohenstein, 
 C. Kelley, W. Kurlancheek, D. Liotard, E. Livshits, P. Manohar, 
 A. Marenich, D. Neuhauser, R. Olson, M. A. Rohrdanz, K. S. Thanthiriwatte, 
 A. J. W. Thom, V. Vanovschi, C. F. Williams, Q. Wu and Z.-Q. You. 


 Intel X86 Linux Version

 Q-chem begins on Fri Apr 15 15:32:04 2011  

 Parallel job on  1  processors
Processing $rem in /usr/local/qchem/config/preferences.

theFileMan(): MAXOPENFILES=974 MAX_SUB_FILE_NUM=16
Maximum size of a physical file is 2.0 GB, maximum size of a tmp-file is 32.0 GB


--------------------------------------------------------------
User input:
--------------------------------------------------------------

$molecule
1,2
F
Cl,1,R1

R1=1.66349697

$end

$comment
positive
$end

$xc_functional
   X HF 1.0
   X BNL 1.0
   C LYP 1.0
$end

$rem
SYMMETRY_DECOMPOSITION	0
exchange 		general
BASIS                   g3large
omega			540
separate_jk		true
mem_static              760
max_scf_cycles          200
scf_final_print         1
sym_ignore              true
$end

--------------------------------------------------------------
 Writing REM_CC_EA            2
 ----------------------------------------------------
       Standard Nuclear Orientation (Angstroms)
    I     Atom         X            Y            Z
 ----------------------------------------------------
    1      F       0.000000     0.000000     0.000000
    2      Cl      0.000000     0.000000     1.663497
 ----------------------------------------------------
 Nuclear Repulsion Energy =    48.6710313950 hartrees
 There are       13 alpha and       12 beta electrons
 Requested basis set is G3large
 There are 29 shells and 108 basis functions

Total QAlloc Memory Limit   2000 MB
Mega-Array Size       743 MB
MEM_STATIC part       760 MB

                       Distance Matrix (Angstroms)
             F (  1)
   Cl(  2)  1.663497
 
 A cutoff of  1.0D-08 yielded    404 shell pairs
 There are   5775 function pairs (  8054 Cartesian)
Evaluating contribution to one-electron hamiltonian from nuclear
 Smallest overlap matrix eigenvalue = 5.02E-03
 Multipole matrices computed through 2nd order

  Scale SEOQF with 1.000000e-01/1.000000e-01/1.000000e-01

 Standard Electronic Orientation quadrupole field applied
 Nucleus-field energy     =    -0.0000000050 hartrees
 Guess from superposition of atomic densities
 Warning:  Energy on first SCF cycle will be non-variational
 An unrestricted hybrid HF-DFT SCF calculation will be
 performed using Pulay DIIS extrapolation
 Exchange:     1.0000 Hartree-Fock + 1.0000 BNL
 Correlation:  1.0000 LYP
 Using SG-1 standard quadrature grid
 SCF converges when DIIS error is below 1.0E-05
 Warning!  Inaccurate integrated density:
   Number of electrons =    25
   Numerical integral  =    25.999798557194
   Relative error      =     3.9991942288 %
 ---------------------------------------
  Cycle       Energy         DIIS Error
 ---------------------------------------
    1    -557.4942624286      3.00E-02
    2    -556.8837747476      8.24E-03
 Info = 9046

 Q-Chem warning in module diagon.C, line 98:

 Call to dsyevd failed in Diagonalize

    3    -556.9577148696      5.43E-03
    4    -556.9770336177      2.37E-03
 Info = 9046

 Q-Chem warning in module diagon.C, line 98:

 Call to dsyevd failed in Diagonalize

    5    -556.9816008089      4.48E-04
    6    -556.9820528239      1.06E-04
    7    -556.9821859140      6.24E-05
    8    -556.9822505040      2.09E-05
    9    -556.9822608683      8.09E-06 Convergence criterion met
 ---------------------------------------
 One-Electron    Energy =  -860.4110488562
 Total Coulomb   Energy =   290.3532359086
 Alpha Exchange  Energy =    -3.5376701472
 Beta  Exchange  Energy =    -3.2669896929
 DFT   Exchange  Energy =   -27.7823051031
 DFT Correlation Energy =    -1.0085143676
 Nuclear Repu.   Energy =    48.6710313900
 Nuclear Attr.   Energy = -1416.0871403089
 Kinetic         Energy =   555.6760914527
 <S^2> = 0.7546
 SCF time:  CPU 23.77 s  wall 35.39 s
 Final Alpha MO Eigenvalues
            1           2           3           4           5           6
    1-101.1113351 -24.7690516  -9.9501199  -7.8017156  -7.8010697  -7.7786566
            7           8           9          10          11          12
    1  -1.7644359  -1.4247973  -1.0366826  -1.0250070  -0.9968398  -0.8964884
           13          14          15          16          17          18
    1  -0.8537537  -0.3801568  -0.1315131  -0.0774839  -0.0724510  -0.0658996
 Final Beta MO Eigenvalues
            1           2           3           4           5           6
    1-101.1044342 -24.7628659  -9.9429333  -7.7968887  -7.7852687  -7.7729234
            7           8           9          10          11          12
    1  -1.7509815  -1.3692542  -1.0240447  -0.9887228  -0.9519978  -0.8397127
           13          14          15          16          17
    1  -0.4845083  -0.3645010  -0.1316656  -0.0746285  -0.0721105
 Analysis of SCF Wavefunction
 
 --------------------------------------------------------------
                    Orbital Energies (a.u.)
 --------------------------------------------------------------
 
 Alpha MOs
 -- Occupied --
******* -24.769  -9.950  -7.802  -7.801  -7.779  -1.764  -1.425
 -1.037  -1.025  -0.997  -0.896  -0.854
 -- Virtual --
 -0.380  -0.132  -0.077  -0.072  -0.066   0.020   0.020   0.030
  0.048   0.058   0.139   0.149   0.174   0.218   0.281   0.291
  0.299   0.734   0.784   0.791   0.793   0.815   0.855   0.856
  0.892   0.897   0.897   0.959   0.982   1.144   1.170   1.181
  1.346   1.679   1.804   1.840   1.888   1.888   1.941   2.261
  2.275   2.721   4.009   4.012   4.013   4.014   4.047   4.081
  4.135   4.649   4.651   4.656   4.682   4.952   5.883   5.898
  6.037   6.424   6.424   6.429   6.429   6.467   6.479   6.631
  8.819   8.819   9.009   9.024   9.193   9.523  20.086  20.110
 20.313  26.668  26.772  26.783  26.800  26.874  36.426  36.428
 36.429  36.432  36.434  36.445  36.448  49.689  49.752  49.826
 49.837  49.918  55.347  55.357  55.427  66.572 215.672
 
 Beta MOs
 -- Occupied --
******* -24.763  -9.943  -7.797  -7.785  -7.773  -1.751  -1.369
 -1.024  -0.989  -0.952  -0.840
 -- Virtual --
 -0.485  -0.365  -0.132  -0.075  -0.072  -0.065   0.050   0.051
  0.051   0.057   0.060   0.152   0.152   0.174   0.227   0.294
  0.299   0.301   0.757   0.813   0.815   0.815   0.821   0.866
  0.867   0.898   0.913   0.914   0.979   0.986   1.149   1.180
  1.183   1.356   1.685   1.839   1.849   1.898   1.899   1.949
  2.273   2.278   2.727   4.045   4.045   4.059   4.059   4.081
  4.089   4.152   4.669   4.671   4.676   4.687   4.960   5.902
  5.904   6.043   6.433   6.433   6.443   6.443   6.478   6.482
  6.638   8.838   8.839   9.028   9.030   9.207   9.533  20.106
 20.118  20.318  26.682  26.787  26.797  26.804  26.881  36.432
 36.434  36.435  36.437  36.441  36.448  36.450  49.706  49.769
 49.842  49.843  49.927  55.360  55.362  55.431  66.579 215.680
 --------------------------------------------------------------
 
          Ground-State Mulliken Net Atomic Charges

     Atom                 Charge (a.u.)    Spin (a.u.)
  --------------------------------------------------------
      1 F                     0.097632       0.144366
      2 Cl                    0.902368       0.855634
  --------------------------------------------------------
  Sum of atomic charges =     1.000000
  Sum of spin   charges =     1.000000

 -----------------------------------------------------------------
                    Cartesian Multipole Moments
 -----------------------------------------------------------------
    Charge (ESU x 10^10)
                 4.8032
    Dipole Moment (Debye)
         X       0.0001      Y      -0.0001      Z       7.6139
       Tot       7.6139
    Quadrupole Moments (Debye-Ang)
        XX     -14.3950     XY      -0.7446     YY     -14.3823
        XZ       0.0005     YZ      -0.0005     ZZ       0.1013
    Octapole Moments (Debye-Ang^2)
       XXX       0.0001    XXY       0.0000    XYY       0.0000
       YYY      -0.0001    XXZ     -16.2763    XYZ      -1.2400
       YYZ     -16.2550    XZZ       0.0020    YZZ      -0.0014
       ZZZ     -21.3232
    Hexadecapole Moments (Debye-Ang^3)
      XXXX     -11.5208   XXXY      -0.5698   XXYY      -3.8343
      XYYY      -0.5698   YYYY     -11.5013   XXXZ       0.0004
      XXYZ      -0.0001   XYYZ       0.0002   YYYZ      -0.0004
      XXZZ     -30.6258   XYZZ      -2.3914   YYZZ     -30.5848
      XZZZ       0.0054   YZZZ      -0.0038   ZZZZ    -114.5009
 -----------------------------------------------------------------
 Total job time:  38.29s(wall), 23.91s(cpu) 
 Fri Apr 15 15:32:42 2011

        *************************************************************
        *                                                           *
        *  Thank you very much for using Q-Chem.  Have a nice day.  *
        *                                                           *
        *************************************************************


0 sent ACK to 0 
now end server 0 ... 
