Process 0 of 1 is on cl205.stfx.acenet.ca - thread support 1
initial socket setup ...start
initial socket setup ...done 
now start server 0 ... 

cmd = /usr/bin/ssh clhead /usr/local/qchem/bin/get_hostid 864495617 > /scratch/tmp/4825500.1.medium.q/qchem25625/lic.dat
                  Welcome to Q-Chem
     A Quantum Leap Into The Future Of Chemistry

 Y. Shao, L. Fusti-Molnar, Y. Jung, J. Kussmann, C. Ochsenfeld,
 S. T. Brown, A. T. B. Gilbert, L. V. Slipchenko,S. V. Levchenko,
 D. P. O'Neill, R. A. DiStasio Jr., R. C. Lochan, T. Wang,
 G. J. O. Beran, N. A. Besley, J. M. Herbert, C. Y. Lin,
 T. Van Voorhis, S. H. Chien, A. Sodt, R. P. Steele, 
 V. A. Rassolov, P. E. Maslen, P. P. Korambath, R. D. Adamson,
 B. Austin, J. Baker, E. F. C. Byrd, H. Dachsel, R. J. Doerksen,
 A. Dreuw, B. D. Dunietz, A. D. Dutoi, T. R. Furlani,
 S. R. Gwaltney, A. Heyden, S. Hirata, C.-P. Hsu, G. Kedziora,
 R. Z. Khaliullin, P. Klunzinger, A. M. Lee, M. S. Lee, W. Liang,
 I. Lotan, N. Nair, B. Peters, E. I. Proynov, P. A. Pieniazek, 
 Y. M. Rhee, J. Ritchie, E. Rosta, C. D. Sherrill, 
 A. C. Simmonett, J. E. Subotnik, H. L. Woodcock III,
 W. Zhang, A. T. Bell, A. K. Chakraborty, D. M. Chipman,
 F. J. Keil, A. Warshel, W. J. Hehre, H. F. Schaefer III,
 J. Kong, A. I. Krylov, P. M. W. Gill, M. Head-Gordon,
 Q-Chem, Version 3.1, Q-Chem, Inc., Pittsburgh, PA (2007).

 Additional authors for Version 3.1: 
 Z. Gan, Y. Zhao, N. E. Schultz, D. Truhlar, E. Epifanovsky and M. Oana.

 Additional authors for Version 3.2: 
 R. Baer, B. R. Brooks, D. Casanova, J.-D. Chai, C.-L. Cheng, 
 C. Cramer, D. Crittenden, A. Ghysels, G. Hawkins, E. G. Hohenstein, 
 C. Kelley, W. Kurlancheek, D. Liotard, E. Livshits, P. Manohar, 
 A. Marenich, D. Neuhauser, R. Olson, M. A. Rohrdanz, K. S. Thanthiriwatte, 
 A. J. W. Thom, V. Vanovschi, C. F. Williams, Q. Wu and Z.-Q. You. 


 Intel X86 Linux Version

 Q-chem begins on Mon Nov 14 18:58:40 2011  

 Parallel job on  1  processors
Processing $rem in /usr/local/qchem/config/preferences.

theFileMan(): MAXOPENFILES=974 MAX_SUB_FILE_NUM=16
Maximum size of a physical file is 2.0 GB, maximum size of a tmp-file is 32.0 GB


--------------------------------------------------------------
User input:
--------------------------------------------------------------

$molecule
-1,1
Cl
O,1,R

R=1.61959205

$end

$comment
negative
$end

$xc_functional
   X HF 1.0
   X BNL 1.0
   C LYP 1.0
$end

$rem
SYMMETRY_DECOMPOSITION	0
exchange 		general
BASIS                   g3large
omega			550
separate_jk		true
mem_static              760
max_scf_cycles          200
scf_final_print         1
sym_ignore              true
$end

--------------------------------------------------------------
 Writing REM_CC_EA            2
 ----------------------------------------------------
       Standard Nuclear Orientation (Angstroms)
    I     Atom         X            Y            Z
 ----------------------------------------------------
    1      Cl      0.000000     0.000000     0.000000
    2      O       0.000000     0.000000     1.619592
 ----------------------------------------------------
 Nuclear Repulsion Energy =    44.4359434024 hartrees
 There are       13 alpha and       13 beta electrons
 Requested basis set is G3large
 There are 29 shells and 108 basis functions

Total QAlloc Memory Limit   2000 MB
Mega-Array Size       743 MB
MEM_STATIC part       760 MB

                       Distance Matrix (Angstroms)
             Cl(  1)
   O (  2)  1.619592
 
 A cutoff of  1.0D-08 yielded    413 shell pairs
 There are   5908 function pairs (  8221 Cartesian)
Evaluating contribution to one-electron hamiltonian from nuclear
 Smallest overlap matrix eigenvalue = 3.44E-03
 Multipole matrices computed through 2nd order

  Scale SEOQF with 1.000000e-01/1.000000e-01/1.000000e-01

 Standard Electronic Orientation quadrupole field applied
 Nucleus-field energy     =    -0.0000000022 hartrees
 Guess from superposition of atomic densities
 Warning:  Energy on first SCF cycle will be non-variational
 A restricted hybrid HF-DFT SCF calculation will be
 performed using Pulay DIIS extrapolation
 Exchange:     1.0000 Hartree-Fock + 1.0000 BNL
 Correlation:  1.0000 LYP
 Using SG-1 standard quadrature grid
 SCF converges when DIIS error is below 1.0E-05
 Warning!  Inaccurate integrated density:
   Number of electrons =    26
   Numerical integral  =    25.000136978023
   Relative error      =    -3.8456270076 %
 ---------------------------------------
  Cycle       Energy         DIIS Error
 ---------------------------------------
    1    -532.9299535559      3.29E-02
    2    -532.9122315346      8.30E-03
    3    -532.9212830792      9.02E-03
    4    -533.0021605256      9.90E-04
    5    -533.0037327036      3.26E-04
    6    -533.0042651508      1.52E-04
    7    -533.0044565829      6.59E-05
    8    -533.0044995582      2.49E-05
    9    -533.0045051876      9.95E-06 Convergence criterion met
 ---------------------------------------
 One-Electron    Energy =  -834.2801853962
 Total Coulomb   Energy =   291.3844229768
 Alpha Exchange  Energy =    -3.4992015676
 Beta  Exchange  Energy =    -3.4992015676
 DFT   Exchange  Energy =   -26.5202061254
 DFT Correlation Energy =    -1.0260769077
 Nuclear Repu.   Energy =    44.4359434002
 Nuclear Attr.   Energy = -1366.2967195708
 Kinetic         Energy =   532.0165341747
 SCF time:  CPU 22.67 s  wall 28.22 s
 Final Alpha MO Eigenvalues
            1           2           3           4           5           6
    1-100.3499929 -18.5693871  -9.2011511  -7.0499754  -7.0378708  -7.0378701
            7           8           9          10          11          12
    1  -0.9223673  -0.6477961  -0.2947872  -0.2883918  -0.2883895  -0.1130805
           13          14          15          16          17          18
    1  -0.1130751   0.2400447   0.2571483   0.2750093   0.2750095   0.3926025
 Analysis of SCF Wavefunction
 
 --------------------------------------------------------------
                    Orbital Energies (a.u.)
 --------------------------------------------------------------
 
 Alpha MOs
 -- Occupied --
******* -18.569  -9.201  -7.050  -7.038  -7.038  -0.922  -0.648
 -0.295  -0.288  -0.288  -0.113  -0.113
 -- Virtual --
  0.240   0.257   0.275   0.275   0.393   0.434   0.473   0.473
  0.581   0.609   0.609   0.686   0.686   0.761   0.807   0.807
  0.826   1.362   1.414   1.429   1.429   1.443   1.443   1.457
  1.457   1.490   1.490   1.503   1.503   1.507   1.627   1.627
  1.930   1.976   2.092   2.092   2.388   2.388   2.634   2.638
  2.638   3.057   4.666   4.707   4.707   4.743   4.743   4.745
  4.745   5.197   5.227   5.227   5.338   5.338   5.370   5.373
  5.534   5.534   5.562   5.562   5.646   5.893   5.893   6.550
  7.243   7.243   7.511   7.511   8.022  10.093  20.860  20.860
 21.117  27.430  27.535  27.569  27.569  27.715  37.190  37.190
 37.192  37.192  37.197  37.197  37.216  44.039  44.123  44.204
 44.204  44.237  46.071  46.071  46.290  50.402 216.486
 --------------------------------------------------------------
 
          Ground-State Mulliken Net Atomic Charges

     Atom                 Charge (a.u.)
  ----------------------------------------
      1 Cl                   -0.240232
      2 O                    -0.759768
  ----------------------------------------
  Sum of atomic charges =    -1.000000

 -----------------------------------------------------------------
                    Cartesian Multipole Moments
 -----------------------------------------------------------------
    Charge (ESU x 10^10)
                -4.8032
    Dipole Moment (Debye)
         X       0.0002      Y       0.0003      Z      -5.0303
       Tot       5.0303
    Quadrupole Moments (Debye-Ang)
        XX     -21.7399     XY       0.0000     YY     -21.7399
        XZ       0.0005     YZ       0.0005     ZZ     -30.4662
    Octapole Moments (Debye-Ang^2)
       XXX      -0.0001    XXY       0.0001    XYY       0.0000
       YYY       0.0004    XXZ     -10.9663    XYZ       0.0001
       YYZ     -10.9663    XZZ       0.0034    YZZ       0.0024
       ZZZ     -50.1737
    Hexadecapole Moments (Debye-Ang^3)
      XXXX     -28.2017   XXXY      -0.0002   XXYY      -9.4002
      XYYY      -0.0002   YYYY     -28.2017   XXXZ       0.0020
      XXYZ       0.0005   XYYZ       0.0007   YYYZ       0.0016
      XXZZ     -29.1003   XYZZ       0.0000   YYZZ     -29.1004
      XZZZ       0.0058   YZZZ       0.0047   ZZZZ    -159.3610
 -----------------------------------------------------------------
 Total job time:  28.39s(wall), 22.79s(cpu) 
 Mon Nov 14 18:59:08 2011

        *************************************************************
        *                                                           *
        *  Thank you very much for using Q-Chem.  Have a nice day.  *
        *                                                           *
        *************************************************************


0 sent ACK to 0 
now end server 0 ... 
 
**********************************************************************
Job 2 of 3 
**********************************************************************
 
Process 0 of 1 is on cl205.stfx.acenet.ca - thread support 1
initial socket setup ...start
initial socket setup ...done 
now start server 0 ... 

cmd = /usr/bin/ssh clhead /usr/local/qchem/bin/get_hostid 1101446966 > /scratch/tmp/4825500.1.medium.q/qchem25625/lic.dat
                  Welcome to Q-Chem
     A Quantum Leap Into The Future Of Chemistry

 Y. Shao, L. Fusti-Molnar, Y. Jung, J. Kussmann, C. Ochsenfeld,
 S. T. Brown, A. T. B. Gilbert, L. V. Slipchenko,S. V. Levchenko,
 D. P. O'Neill, R. A. DiStasio Jr., R. C. Lochan, T. Wang,
 G. J. O. Beran, N. A. Besley, J. M. Herbert, C. Y. Lin,
 T. Van Voorhis, S. H. Chien, A. Sodt, R. P. Steele, 
 V. A. Rassolov, P. E. Maslen, P. P. Korambath, R. D. Adamson,
 B. Austin, J. Baker, E. F. C. Byrd, H. Dachsel, R. J. Doerksen,
 A. Dreuw, B. D. Dunietz, A. D. Dutoi, T. R. Furlani,
 S. R. Gwaltney, A. Heyden, S. Hirata, C.-P. Hsu, G. Kedziora,
 R. Z. Khaliullin, P. Klunzinger, A. M. Lee, M. S. Lee, W. Liang,
 I. Lotan, N. Nair, B. Peters, E. I. Proynov, P. A. Pieniazek, 
 Y. M. Rhee, J. Ritchie, E. Rosta, C. D. Sherrill, 
 A. C. Simmonett, J. E. Subotnik, H. L. Woodcock III,
 W. Zhang, A. T. Bell, A. K. Chakraborty, D. M. Chipman,
 F. J. Keil, A. Warshel, W. J. Hehre, H. F. Schaefer III,
 J. Kong, A. I. Krylov, P. M. W. Gill, M. Head-Gordon,
 Q-Chem, Version 3.1, Q-Chem, Inc., Pittsburgh, PA (2007).

 Additional authors for Version 3.1: 
 Z. Gan, Y. Zhao, N. E. Schultz, D. Truhlar, E. Epifanovsky and M. Oana.

 Additional authors for Version 3.2: 
 R. Baer, B. R. Brooks, D. Casanova, J.-D. Chai, C.-L. Cheng, 
 C. Cramer, D. Crittenden, A. Ghysels, G. Hawkins, E. G. Hohenstein, 
 C. Kelley, W. Kurlancheek, D. Liotard, E. Livshits, P. Manohar, 
 A. Marenich, D. Neuhauser, R. Olson, M. A. Rohrdanz, K. S. Thanthiriwatte, 
 A. J. W. Thom, V. Vanovschi, C. F. Williams, Q. Wu and Z.-Q. You. 


 Intel X86 Linux Version

 Q-chem begins on Mon Nov 14 18:59:11 2011  

 Parallel job on  1  processors
Processing $rem in /usr/local/qchem/config/preferences.

theFileMan(): MAXOPENFILES=974 MAX_SUB_FILE_NUM=16
Maximum size of a physical file is 2.0 GB, maximum size of a tmp-file is 32.0 GB


--------------------------------------------------------------
User input:
--------------------------------------------------------------

$molecule
0,2
Cl
O,1,R

R=1.61959205

$end

$comment
neutral
$end

$xc_functional
   X HF 1.0
   X BNL 1.0
   C LYP 1.0
$end

$rem
SYMMETRY_DECOMPOSITION	0
exchange 		general
BASIS                   g3large
omega			550
separate_jk		true
mem_static              760
max_scf_cycles          200
scf_final_print         1
sym_ignore              true
$end

--------------------------------------------------------------
 Writing REM_CC_EA            2
 ----------------------------------------------------
       Standard Nuclear Orientation (Angstroms)
    I     Atom         X            Y            Z
 ----------------------------------------------------
    1      Cl      0.000000     0.000000     0.000000
    2      O       0.000000     0.000000     1.619592
 ----------------------------------------------------
 Nuclear Repulsion Energy =    44.4359434024 hartrees
 There are       13 alpha and       12 beta electrons
 Requested basis set is G3large
 There are 29 shells and 108 basis functions

Total QAlloc Memory Limit   2000 MB
Mega-Array Size       743 MB
MEM_STATIC part       760 MB

                       Distance Matrix (Angstroms)
             Cl(  1)
   O (  2)  1.619592
 
 A cutoff of  1.0D-08 yielded    413 shell pairs
 There are   5908 function pairs (  8221 Cartesian)
Evaluating contribution to one-electron hamiltonian from nuclear
 Smallest overlap matrix eigenvalue = 3.44E-03
 Multipole matrices computed through 2nd order

  Scale SEOQF with 1.000000e-01/1.000000e-01/1.000000e-01

 Standard Electronic Orientation quadrupole field applied
 Nucleus-field energy     =    -0.0000000022 hartrees
 Guess from superposition of atomic densities
 Warning:  Energy on first SCF cycle will be non-variational
 An unrestricted hybrid HF-DFT SCF calculation will be
 performed using Pulay DIIS extrapolation
 Exchange:     1.0000 Hartree-Fock + 1.0000 BNL
 Correlation:  1.0000 LYP
 Using SG-1 standard quadrature grid
 SCF converges when DIIS error is below 1.0E-05
 ---------------------------------------
  Cycle       Energy         DIIS Error
 ---------------------------------------
    1    -532.9299535559      3.29E-02
    2    -532.8575694909      5.39E-03
    3    -532.8756372274      5.39E-03
    4    -532.9058821747      1.14E-03
    5    -532.9093330370      5.76E-04
    6    -532.9118389789      2.79E-04
    7    -532.9130842932      1.64E-04
    8    -532.9135394377      6.59E-05
    9    -532.9136325427      2.53E-05
   10    -532.9136414821      8.36E-06 Convergence criterion met
 ---------------------------------------
 One-Electron    Energy =  -826.0428923712
 Total Coulomb   Energy =   282.9095339487
 Alpha Exchange  Energy =    -3.5451675506
 Beta  Exchange  Energy =    -3.2548048958
 DFT   Exchange  Energy =   -26.4251214893
 DFT Correlation Energy =    -0.9911325240
 Nuclear Repu.   Energy =    44.4359434002
 Nuclear Attr.   Energy = -1357.8198699701
 Kinetic         Energy =   531.7769775989
 <S^2> = 0.7585
 SCF time:  CPU 28.05 s  wall 32.32 s
 Final Alpha MO Eigenvalues
            1           2           3           4           5           6
    1-100.6664150 -18.9848324  -9.5164606  -7.3664754  -7.3564349  -7.3498288
            7           8           9          10          11          12
    1  -1.2847528  -0.9842662  -0.6536900  -0.6402713  -0.6126964  -0.4856642
           13          14          15          16          17          18
    1  -0.4499808   0.0259881   0.0713184   0.1074440   0.1101815   0.1406584
 Final Beta MO Eigenvalues
            1           2           3           4           5           6
    1-100.6648062 -18.9615749  -9.5147874  -7.3659312  -7.3522046  -7.3484588
            7           8           9          10          11          12
    1  -1.2474577  -0.9458764  -0.6170263  -0.5989579  -0.5424310  -0.4329888
           13          14          15          16          17
    1  -0.0721777   0.0354156   0.0714279   0.1081258   0.1104333
 Analysis of SCF Wavefunction
 
 --------------------------------------------------------------
                    Orbital Energies (a.u.)
 --------------------------------------------------------------
 
 Alpha MOs
 -- Occupied --
******* -18.985  -9.516  -7.366  -7.356  -7.350  -1.285  -0.984
 -0.654  -0.640  -0.613  -0.486  -0.450
 -- Virtual --
  0.026   0.071   0.107   0.110   0.141   0.224   0.248   0.256
  0.343   0.343   0.352   0.411   0.422   0.526   0.556   0.558
  0.567   1.069   1.109   1.116   1.132   1.147   1.147   1.167
  1.168   1.175   1.194   1.228   1.229   1.230   1.316   1.333
  1.611   1.675   1.737   1.739   2.064   2.086   2.304   2.317
  2.337   2.750   4.342   4.384   4.398   4.432   4.432   4.436
  4.436   4.855   4.865   4.895   4.931   4.971   5.054   5.056
  5.132   5.132   5.180   5.185   5.282   5.525   5.553   6.198
  6.814   6.814   7.087   7.134   7.646   9.779  20.542  20.550
 20.802  27.115  27.220  27.250  27.255  27.399  36.874  36.875
 36.876  36.877  36.880  36.884  36.901  43.602  43.683  43.767
 43.799  43.824  45.635  45.666  45.885  49.987 216.170
 
 Beta MOs
 -- Occupied --
******* -18.962  -9.515  -7.366  -7.352  -7.348  -1.247  -0.946
 -0.617  -0.599  -0.542  -0.433
 -- Virtual --
 -0.072   0.035   0.071   0.108   0.110   0.147   0.225   0.259
  0.265   0.349   0.351   0.356   0.422   0.431   0.528   0.563
  0.567   0.568   1.078   1.124   1.139   1.139   1.159   1.159
  1.174   1.174   1.197   1.200   1.232   1.235   1.235   1.334
  1.336   1.636   1.685   1.775   1.775   2.090   2.093   2.317
  2.337   2.342   2.759   4.351   4.396   4.401   4.439   4.439
  4.448   4.448   4.870   4.902   4.906   4.991   4.994   5.063
  5.066   5.183   5.183   5.220   5.220   5.306   5.558   5.563
  6.218   6.890   6.891   7.162   7.162   7.681   9.783  20.548
 20.552  20.803  27.119  27.223  27.253  27.256  27.400  36.876
 36.876  36.878  36.878  36.882  36.885  36.901  43.660  43.744
 43.823  43.826  43.858  45.680  45.684  45.902  50.015 216.172
 --------------------------------------------------------------
 
          Ground-State Mulliken Net Atomic Charges

     Atom                 Charge (a.u.)    Spin (a.u.)
  --------------------------------------------------------
      1 Cl                    0.171461       0.189728
      2 O                    -0.171461       0.810272
  --------------------------------------------------------
  Sum of atomic charges =     0.000000
  Sum of spin   charges =     1.000000

 -----------------------------------------------------------------
                    Cartesian Multipole Moments
 -----------------------------------------------------------------
    Charge (ESU x 10^10)
                 0.0000
    Dipole Moment (Debye)
         X      -0.0001      Y      -0.0001      Z      -1.3582
       Tot       1.3582
    Quadrupole Moments (Debye-Ang)
        XX     -17.6661     XY      -0.6203     YY     -17.8327
        XZ       0.0000     YZ       0.0002     ZZ     -18.9944
    Octapole Moments (Debye-Ang^2)
       XXX       0.0001    XXY       0.0000    XYY       0.0000
       YYY      -0.0001    XXZ      -8.5957    XYZ      -0.5346
       YYZ      -8.7390    XZZ      -0.0016    YZZ      -0.0016
       ZZZ     -30.9901
    Hexadecapole Moments (Debye-Ang^3)
      XXXX     -17.8994   XXXY      -0.4795   XXYY      -6.0091
      XYYY      -0.4795   YYYY     -18.1571   XXXZ      -0.0002
      XXYZ       0.0000   XYYZ      -0.0001   YYYZ      -0.0001
      XXZZ     -20.0353   XYZZ      -1.3535   YYZZ     -20.3986
      XZZZ      -0.0024   YZZZ      -0.0018   ZZZZ    -106.6197
 -----------------------------------------------------------------
 Total job time:  32.46s(wall), 28.17s(cpu) 
 Mon Nov 14 18:59:44 2011

        *************************************************************
        *                                                           *
        *  Thank you very much for using Q-Chem.  Have a nice day.  *
        *                                                           *
        *************************************************************


0 sent ACK to 0 
now end server 0 ... 
 
**********************************************************************
Job 3 of 3 
**********************************************************************
 
Process 0 of 1 is on cl205.stfx.acenet.ca - thread support 1
initial socket setup ...start
initial socket setup ...done 
now start server 0 ... 

cmd = /usr/bin/ssh clhead /usr/local/qchem/bin/get_hostid 1192074557 > /scratch/tmp/4825500.1.medium.q/qchem25625/lic.dat
                  Welcome to Q-Chem
     A Quantum Leap Into The Future Of Chemistry

 Y. Shao, L. Fusti-Molnar, Y. Jung, J. Kussmann, C. Ochsenfeld,
 S. T. Brown, A. T. B. Gilbert, L. V. Slipchenko,S. V. Levchenko,
 D. P. O'Neill, R. A. DiStasio Jr., R. C. Lochan, T. Wang,
 G. J. O. Beran, N. A. Besley, J. M. Herbert, C. Y. Lin,
 T. Van Voorhis, S. H. Chien, A. Sodt, R. P. Steele, 
 V. A. Rassolov, P. E. Maslen, P. P. Korambath, R. D. Adamson,
 B. Austin, J. Baker, E. F. C. Byrd, H. Dachsel, R. J. Doerksen,
 A. Dreuw, B. D. Dunietz, A. D. Dutoi, T. R. Furlani,
 S. R. Gwaltney, A. Heyden, S. Hirata, C.-P. Hsu, G. Kedziora,
 R. Z. Khaliullin, P. Klunzinger, A. M. Lee, M. S. Lee, W. Liang,
 I. Lotan, N. Nair, B. Peters, E. I. Proynov, P. A. Pieniazek, 
 Y. M. Rhee, J. Ritchie, E. Rosta, C. D. Sherrill, 
 A. C. Simmonett, J. E. Subotnik, H. L. Woodcock III,
 W. Zhang, A. T. Bell, A. K. Chakraborty, D. M. Chipman,
 F. J. Keil, A. Warshel, W. J. Hehre, H. F. Schaefer III,
 J. Kong, A. I. Krylov, P. M. W. Gill, M. Head-Gordon,
 Q-Chem, Version 3.1, Q-Chem, Inc., Pittsburgh, PA (2007).

 Additional authors for Version 3.1: 
 Z. Gan, Y. Zhao, N. E. Schultz, D. Truhlar, E. Epifanovsky and M. Oana.

 Additional authors for Version 3.2: 
 R. Baer, B. R. Brooks, D. Casanova, J.-D. Chai, C.-L. Cheng, 
 C. Cramer, D. Crittenden, A. Ghysels, G. Hawkins, E. G. Hohenstein, 
 C. Kelley, W. Kurlancheek, D. Liotard, E. Livshits, P. Manohar, 
 A. Marenich, D. Neuhauser, R. Olson, M. A. Rohrdanz, K. S. Thanthiriwatte, 
 A. J. W. Thom, V. Vanovschi, C. F. Williams, Q. Wu and Z.-Q. You. 


 Intel X86 Linux Version

 Q-chem begins on Mon Nov 14 18:59:47 2011  

 Parallel job on  1  processors
Processing $rem in /usr/local/qchem/config/preferences.

theFileMan(): MAXOPENFILES=974 MAX_SUB_FILE_NUM=16
Maximum size of a physical file is 2.0 GB, maximum size of a tmp-file is 32.0 GB


--------------------------------------------------------------
User input:
--------------------------------------------------------------

$molecule
1,3
Cl
O,1,R

R=1.61959205

$end

$comment
positive
$end

$xc_functional
   X HF 1.0
   X BNL 1.0
   C LYP 1.0
$end

$rem
SYMMETRY_DECOMPOSITION	0
exchange 		general
BASIS                   g3large
omega			550
separate_jk		true
mem_static              760
max_scf_cycles          200
scf_final_print         1
sym_ignore              true
$end

--------------------------------------------------------------
 Writing REM_CC_EA            2
 ----------------------------------------------------
       Standard Nuclear Orientation (Angstroms)
    I     Atom         X            Y            Z
 ----------------------------------------------------
    1      Cl      0.000000     0.000000     0.000000
    2      O       0.000000     0.000000     1.619592
 ----------------------------------------------------
 Nuclear Repulsion Energy =    44.4359434024 hartrees
 There are       13 alpha and       11 beta electrons
 Requested basis set is G3large
 There are 29 shells and 108 basis functions

Total QAlloc Memory Limit   2000 MB
Mega-Array Size       743 MB
MEM_STATIC part       760 MB

                       Distance Matrix (Angstroms)
             Cl(  1)
   O (  2)  1.619592
 
 A cutoff of  1.0D-08 yielded    413 shell pairs
 There are   5908 function pairs (  8221 Cartesian)
Evaluating contribution to one-electron hamiltonian from nuclear
 Smallest overlap matrix eigenvalue = 3.44E-03
 Multipole matrices computed through 2nd order

  Scale SEOQF with 1.000000e-01/1.000000e-01/1.000000e-01

 Standard Electronic Orientation quadrupole field applied
 Nucleus-field energy     =    -0.0000000022 hartrees
 Guess from superposition of atomic densities
 Warning:  Energy on first SCF cycle will be non-variational
 An unrestricted hybrid HF-DFT SCF calculation will be
 performed using Pulay DIIS extrapolation
 Exchange:     1.0000 Hartree-Fock + 1.0000 BNL
 Correlation:  1.0000 LYP
 Using SG-1 standard quadrature grid
 SCF converges when DIIS error is below 1.0E-05
 Warning!  Inaccurate integrated density:
   Number of electrons =    24
   Numerical integral  =    25.000136978023
   Relative error      =     4.1672374084 %
 ---------------------------------------
  Cycle       Energy         DIIS Error
 ---------------------------------------
    1    -532.9299535559      3.29E-02
    2    -532.3787464256      7.56E-03
    3    -532.4660982039      3.82E-03
    4    -532.4786685523      1.26E-03
    5    -532.4814328028      7.65E-04
    6    -532.4835110820      3.35E-04
    7    -532.4847603481      2.00E-04
    8    -532.4853114887      5.97E-05
    9    -532.4854041283      3.11E-05
   10    -532.4854423030      2.13E-05
   11    -532.4854671494      1.64E-05
   12    -532.4854866109      9.06E-06 Convergence criterion met
 ---------------------------------------
 One-Electron    Energy =  -816.6208806274
 Total Coulomb   Energy =   273.4970058534
 Alpha Exchange  Energy =    -3.5781994575
 Beta  Exchange  Energy =    -2.9832760970
 DFT   Exchange  Energy =   -26.2825695477
 DFT Correlation Energy =    -0.9535101348
 Nuclear Repu.   Energy =    44.4359434002
 Nuclear Attr.   Energy = -1347.7894136854
 Kinetic         Energy =   531.1685330580
 <S^2> = 2.0219
 SCF time:  CPU 32.73 s  wall 38.01 s
 Final Alpha MO Eigenvalues
            1           2           3           4           5           6
    1-101.0643191 -19.4245117  -9.9069333  -7.7557367  -7.7464740  -7.7463482
            7           8           9          10          11          12
    1  -1.6733868  -1.3608953  -1.0196526  -1.0194543  -1.0134908  -0.8461833
           13          14          15          16          17          18
    1  -0.8460512  -0.3043393  -0.1260798  -0.0713278  -0.0713104  -0.0591839
 Final Beta MO Eigenvalues
            1           2           3           4           5           6
    1-101.0585976 -19.3817010  -9.9010408  -7.7528731  -7.7370475  -7.7369813
            7           8           9          10          11          12
    1  -1.6054350  -1.2768160  -0.9669890  -0.8789090  -0.8789065  -0.4224025
           13          14          15          16
    1  -0.4220655  -0.2749169  -0.1254275  -0.0700853
 Analysis of SCF Wavefunction
 
 --------------------------------------------------------------
                    Orbital Energies (a.u.)
 --------------------------------------------------------------
 
 Alpha MOs
 -- Occupied --
******* -19.425  -9.907  -7.756  -7.746  -7.746  -1.673  -1.361
 -1.020  -1.019  -1.013  -0.846  -0.846
 -- Virtual --
 -0.304  -0.126  -0.071  -0.071  -0.059   0.016   0.027   0.027
  0.039   0.039   0.121   0.121   0.126   0.258   0.282   0.302
  0.302   0.768   0.786   0.797   0.797   0.806   0.806   0.841
  0.841   0.866   0.866   0.918   0.918   0.930   0.991   0.991
  1.280   1.358   1.382   1.382   1.735   1.735   1.946   1.983
  1.983   2.416   3.975   4.023   4.023   4.056   4.056   4.058
  4.059   4.475   4.489   4.489   4.559   4.559   4.673   4.675
  4.731   4.731   4.798   4.798   4.892   5.156   5.156   5.810
  6.382   6.382   6.700   6.700   7.252   9.399  20.155  20.155
 20.416  26.722  26.827  26.862  26.862  27.009  36.484  36.484
 36.487  36.487  36.492  36.492  36.512  43.147  43.231  43.341
 43.341  43.383  45.208  45.209  45.455  49.550 215.774
 
 Beta MOs
 -- Occupied --
******* -19.382  -9.901  -7.753  -7.737  -7.737  -1.605  -1.277
 -0.967  -0.879  -0.879
 -- Virtual --
 -0.422  -0.422  -0.275  -0.125  -0.070  -0.070  -0.056   0.018
  0.047   0.047   0.064   0.064   0.129   0.140   0.140   0.271
  0.290   0.313   0.313   0.784   0.801   0.825   0.825   0.840
  0.840   0.854   0.854   0.896   0.896   0.934   0.934   0.939
  1.014   1.014   1.322   1.376   1.447   1.447   1.768   1.768
  1.970   2.010   2.010   2.432   3.996   4.043   4.043   4.083
  4.084   4.096   4.096   4.504   4.539   4.539   4.625   4.625
  4.696   4.699   4.822   4.822   4.860   4.860   4.943   5.197
  5.197   5.848   6.520   6.520   6.792   6.792   7.315   9.411
 20.167  20.168  20.419  26.734  26.838  26.869  26.869  27.015
 36.489  36.489  36.491  36.491  36.496  36.496  36.515  43.254
 43.338  43.417  43.417  43.450  45.265  45.265  45.486  49.601
215.780
 --------------------------------------------------------------
 
          Ground-State Mulliken Net Atomic Charges

     Atom                 Charge (a.u.)    Spin (a.u.)
  --------------------------------------------------------
      1 Cl                    0.702289       0.634211
      2 O                     0.297711       1.365789
  --------------------------------------------------------
  Sum of atomic charges =     1.000000
  Sum of spin   charges =     2.000000

 -----------------------------------------------------------------
                    Cartesian Multipole Moments
 -----------------------------------------------------------------
    Charge (ESU x 10^10)
                 4.8032
    Dipole Moment (Debye)
         X      -0.0002      Y       0.0000      Z       1.4888
       Tot       1.4888
    Quadrupole Moments (Debye-Ang)
        XX     -14.7427     XY      -0.0013     YY     -14.7423
        XZ      -0.0021     YZ      -0.0008     ZZ     -10.3903
    Octapole Moments (Debye-Ang^2)
       XXX      -0.0003    XXY       0.0000    XYY      -0.0001
       YYY      -0.0001    XXZ      -7.4824    XYZ       0.0040
       YYZ      -7.4834    XZZ      -0.0029    YZZ      -0.0002
       ZZZ     -16.8081
    Hexadecapole Moments (Debye-Ang^3)
      XXXX     -12.5634   XXXY      -0.0015   XXYY      -4.1875
      XYYY      -0.0015   YYYY     -12.5626   XXXZ      -0.0017
      XXYZ      -0.0002   XYYZ      -0.0006   YYYZ      -0.0006
      XXZZ     -15.6758   XYZZ       0.0054   YYZZ     -15.6771
      XZZZ      -0.0078   YZZZ      -0.0015   ZZZZ     -71.3059
 -----------------------------------------------------------------
 Total job time:  38.14s(wall), 32.85s(cpu) 
 Mon Nov 14 19:00:25 2011

        *************************************************************
        *                                                           *
        *  Thank you very much for using Q-Chem.  Have a nice day.  *
        *                                                           *
        *************************************************************


0 sent ACK to 0 
now end server 0 ... 
