Process 0 of 1 is on cl116.stfx.acenet.ca - thread support 1
initial socket setup ...start
initial socket setup ...done 
now start server 0 ... 

cmd = /usr/bin/ssh clhead /usr/local/qchem/bin/get_hostid 855512118 > /scratch/tmp/6065225.1.short.q/qchem7284/lic.dat
                  Welcome to Q-Chem
     A Quantum Leap Into The Future Of Chemistry

 Y. Shao, L. Fusti-Molnar, Y. Jung, J. Kussmann, C. Ochsenfeld,
 S. T. Brown, A. T. B. Gilbert, L. V. Slipchenko,S. V. Levchenko,
 D. P. O'Neill, R. A. DiStasio Jr., R. C. Lochan, T. Wang,
 G. J. O. Beran, N. A. Besley, J. M. Herbert, C. Y. Lin,
 T. Van Voorhis, S. H. Chien, A. Sodt, R. P. Steele, 
 V. A. Rassolov, P. E. Maslen, P. P. Korambath, R. D. Adamson,
 B. Austin, J. Baker, E. F. C. Byrd, H. Dachsel, R. J. Doerksen,
 A. Dreuw, B. D. Dunietz, A. D. Dutoi, T. R. Furlani,
 S. R. Gwaltney, A. Heyden, S. Hirata, C.-P. Hsu, G. Kedziora,
 R. Z. Khaliullin, P. Klunzinger, A. M. Lee, M. S. Lee, W. Liang,
 I. Lotan, N. Nair, B. Peters, E. I. Proynov, P. A. Pieniazek, 
 Y. M. Rhee, J. Ritchie, E. Rosta, C. D. Sherrill, 
 A. C. Simmonett, J. E. Subotnik, H. L. Woodcock III,
 W. Zhang, A. T. Bell, A. K. Chakraborty, D. M. Chipman,
 F. J. Keil, A. Warshel, W. J. Hehre, H. F. Schaefer III,
 J. Kong, A. I. Krylov, P. M. W. Gill, M. Head-Gordon,
 Q-Chem, Version 3.1, Q-Chem, Inc., Pittsburgh, PA (2007).

 Additional authors for Version 3.1: 
 Z. Gan, Y. Zhao, N. E. Schultz, D. Truhlar, E. Epifanovsky and M. Oana.

 Additional authors for Version 3.2: 
 R. Baer, B. R. Brooks, D. Casanova, J.-D. Chai, C.-L. Cheng, 
 C. Cramer, D. Crittenden, A. Ghysels, G. Hawkins, E. G. Hohenstein, 
 C. Kelley, W. Kurlancheek, D. Liotard, E. Livshits, P. Manohar, 
 A. Marenich, D. Neuhauser, R. Olson, M. A. Rohrdanz, K. S. Thanthiriwatte, 
 A. J. W. Thom, V. Vanovschi, C. F. Williams, Q. Wu and Z.-Q. You. 


 Intel X86 Linux Version

 Q-chem begins on Mon Jul  8 16:57:04 2013  

 Parallel job on  1  processors
Processing $rem in /usr/local/qchem/config/preferences.

theFileMan(): MAXOPENFILES=974 MAX_SUB_FILE_NUM=16
Maximum size of a physical file is 2.0 GB, maximum size of a tmp-file is 32.0 GB


--------------------------------------------------------------
User input:
--------------------------------------------------------------

$molecule
-1,2
C          0.00153        0.00000       -0.00170
N          0.02691        0.00000        1.45040
H          0.98841        0.00000       -0.48072
H          0.49984       -0.81525        1.81295
H          0.49984        0.81525        1.81295
H         -0.54295       -0.87642       -0.35515
H         -0.54295        0.87642       -0.35515
$end

$comment
negative
$end

$xc_functional
C PBE   1.00
X wPBE  1.00
$end

$rem
SYMMETRY_DECOMPOSITION	0
exchange 		general
LRC_DFT                 true
BASIS                   g3large
omega			370
mem_static              760
max_scf_cycles          200
scf_final_print         1
sym_ignore              true
$end

--------------------------------------------------------------
 Writing REM_CC_EA            7
 ----------------------------------------------------
       Standard Nuclear Orientation (Angstroms)
    I     Atom         X            Y            Z
 ----------------------------------------------------
    1      C       0.001530     0.000000    -0.001700
    2      N       0.026910     0.000000     1.450400
    3      H       0.988410     0.000000    -0.480720
    4      H       0.499840    -0.815250     1.812950
    5      H       0.499840     0.815250     1.812950
    6      H      -0.542950    -0.876420    -0.355150
    7      H      -0.542950     0.876420    -0.355150
 ----------------------------------------------------
 Nuclear Repulsion Energy =    42.1716120230 hartrees
 There are       10 alpha and        9 beta electrons
 Requested basis set is G3large
 There are 50 shells and 134 basis functions

Total QAlloc Memory Limit   2000 MB
Mega-Array Size       743 MB
MEM_STATIC part       760 MB

                       Distance Matrix (Angstroms)
             C (  1)   N (  2)   H (  3)   H (  4)   H (  5)   H (  6)
   N (  2)  1.452322
   H (  3)  1.096992  2.157245
   H (  4)  2.050829  1.009821  2.482792
   H (  5)  2.050829  1.009821  2.482792  1.630500
   H (  6)  1.090641  2.086352  1.768882  2.406618  2.941057
   H (  7)  1.090641  2.086352  1.768882  2.941057  2.406618  1.752840

 
 A cutoff of  1.0D-08 yielded   1263 shell pairs
 There are   9135 function pairs ( 10882 Cartesian)
Evaluating contribution to one-electron hamiltonian from nuclear
 Smallest overlap matrix eigenvalue = 4.94E-04
 Multipole matrices computed through 2nd order

  Scale SEOQF with 1.000000e-01/1.000000e-01/1.000000e-01

 Standard Electronic Orientation quadrupole field applied
 Nucleus-field energy     =    -0.0000000021 hartrees
 Guess from superposition of atomic densities
 Warning:  Energy on first SCF cycle will be non-variational
 Long-range K will be added via erf
 Coulomb attenuation parameter = 0.37 bohr**(-1)
 An unrestricted Kohn-Sham SCF calculation will be
 performed using Pulay DIIS extrapolation
 Exchange:  wPBE + LR-HF      Correlation:  PBE
 Using SG-1 standard quadrature grid
 SCF converges when DIIS error is below 1.0E-05
 Requested basis set is G3large
 There are 50 shells and 134 basis functions
 A cutoff of  1.0D-08 yielded   1263 shell pairs
 There are   9135 function pairs ( 10882 Cartesian)
 Warning!  Inaccurate integrated density:
   Number of electrons =    19
   Numerical integral  =    18.000022500592
   Relative error      =    -5.2630394706 %
 ---------------------------------------
  Cycle       Energy         DIIS Error
 ---------------------------------------
    1     -96.1229337036      3.73E-02
    2     -95.7161718869      5.05E-03
    3     -95.7480654950      4.80E-03
    4     -95.7913501461      4.15E-04
    5     -95.7935054678      2.19E-04
    6     -95.7942246209      9.06E-05
    7     -95.7945361360      4.48E-05
    8     -95.7946929408      2.78E-05
    9     -95.7947851044      2.04E-05
   10     -95.7948578066      1.33E-05
   11     -95.7948970131      7.04E-06 Convergence criterion met
 ---------------------------------------
 One-Electron    Energy =  -214.5051941445
 Total Coulomb   Energy =    90.7727159318
 Alpha Exchange  Energy =    -1.7377189237
 Beta  Exchange  Energy =    -1.6732868047
 DFT   Exchange  Energy =   -10.2408616934
 DFT Correlation Energy =    -0.5821633995
 Nuclear Repu.   Energy =    42.1716120209
 Nuclear Attr.   Energy =  -309.9665084265
 Kinetic         Energy =    95.4613142820
 <S^2> = 0.7501
 SCF time:  CPU 53.45 s  wall 53.83 s
 Final Alpha MO Eigenvalues
            1           2           3           4           5           6
    1 -14.0134393  -9.9511400  -0.8615409  -0.6456015  -0.4688073  -0.4143428
            7           8           9          10          11          12
    1  -0.3781963  -0.3355731  -0.2060226   0.0286219   0.1419315   0.1471918
           13          14          15
    1   0.1617078   0.1909894   0.2263628
 Final Beta MO Eigenvalues
            1           2           3           4           5           6
    1 -14.0130963  -9.9507179  -0.8608171  -0.6439365  -0.4681483  -0.4125793
            7           8           9          10          11          12
    1  -0.3774041  -0.3350993  -0.2055564   0.1364026   0.1563493   0.1587468
           13          14
    1   0.1755010   0.1912048
 Analysis of SCF Wavefunction
 
 --------------------------------------------------------------
                    Orbital Energies (a.u.)
 --------------------------------------------------------------
 
 Alpha MOs
 -- Occupied --
-14.013  -9.951  -0.862  -0.646  -0.469  -0.414  -0.378  -0.336
 -0.206   0.029
 -- Virtual --
  0.142   0.147   0.162   0.191   0.226   0.266   0.268   0.285
  0.326   0.345   0.356   0.398   0.400   0.413   0.425   0.452
  0.464   0.515   0.657   0.663   0.721   0.738   0.783   0.804
  0.824   0.838   0.842   0.870   0.896   0.901   0.976   1.007
  1.104   1.115   1.170   1.175   1.269   1.328   1.329   1.364
  1.423   1.439   1.482   1.523   1.534   1.579   1.646   1.685
  1.698   1.730   1.768   1.887   1.895   1.978   2.120   2.123
  2.600   2.633   2.724   2.903   2.984   3.176   3.249   3.265
  3.282   3.355   3.379   3.471   3.498   3.530   3.589   3.618
  3.684   3.704   3.897   3.936   3.945   4.031   4.037   4.114
  4.132   4.153   4.293   4.366   4.378   4.478   4.498   4.529
  4.582   4.680   4.877   4.884   5.015   5.038   5.129   5.155
  5.390   5.441   5.516   5.604   5.757   5.874   5.948   6.011
  6.373   6.701  24.454  28.177  28.216  28.232  35.771  37.681
 38.318  38.384  40.715  40.798  40.836  40.861  40.945  41.078
 41.187  41.312  41.357  41.401
 
 Beta MOs
 -- Occupied --
-14.013  -9.951  -0.861  -0.644  -0.468  -0.413  -0.377  -0.335
 -0.206
 -- Virtual --
  0.136   0.156   0.159   0.176   0.191   0.224   0.263   0.263
  0.287   0.325   0.344   0.355   0.396   0.399   0.411   0.424
  0.449   0.460   0.513   0.654   0.661   0.719   0.737   0.782
  0.803   0.824   0.836   0.842   0.868   0.896   0.899   0.975
  1.006   1.105   1.116   1.171   1.175   1.270   1.329   1.329
  1.364   1.423   1.439   1.483   1.524   1.535   1.579   1.646
  1.684   1.698   1.730   1.768   1.887   1.896   1.979   2.120
  2.123   2.600   2.633   2.724   2.903   2.984   3.176   3.249
  3.266   3.282   3.356   3.380   3.471   3.498   3.531   3.590
  3.619   3.684   3.704   3.897   3.937   3.945   4.032   4.038
  4.114   4.132   4.153   4.294   4.366   4.378   4.478   4.498
  4.530   4.582   4.680   4.877   4.884   5.016   5.039   5.130
  5.155   5.391   5.441   5.517   5.606   5.758   5.875   5.949
  6.013   6.374   6.702  24.455  28.178  28.216  28.233  35.771
 37.681  38.318  38.384  40.716  40.798  40.836  40.862  40.946
 41.078  41.187  41.313  41.358  41.401
 --------------------------------------------------------------
 
          Ground-State Mulliken Net Atomic Charges

     Atom                 Charge (a.u.)    Spin (a.u.)
  --------------------------------------------------------
      1 C                     3.204615      -3.426441
      2 N                    -0.649119       0.317323
      3 H                    -1.363799       1.445486
      4 H                    -0.403404       0.568317
      5 H                    -0.403200       0.568066
      6 H                    -0.693177       0.764290
      7 H                    -0.691917       0.762959
  --------------------------------------------------------
  Sum of atomic charges =    -1.000000
  Sum of spin   charges =     1.000000

 -----------------------------------------------------------------
                    Cartesian Multipole Moments
 -----------------------------------------------------------------
    Charge (ESU x 10^10)
                -4.8032
    Dipole Moment (Debye)
         X      -3.5036      Y       0.0053      Z      -2.0072
       Tot       4.0378
    Quadrupole Moments (Debye-Ang)
        XX     -41.7897     XY      -0.0014     YY     -36.9823
        XZ       0.0102     YZ      -0.0020     ZZ     -43.9010
    Octapole Moments (Debye-Ang^2)
       XXX     -55.4603    XXY       0.0195    XYY     -14.2859
       YYY       0.0616    XXZ     -17.3292    XYZ       0.0015
       YYZ     -17.6326    XZZ     -19.7568    YZZ       0.0207
       ZZZ     -58.5027
    Hexadecapole Moments (Debye-Ang^3)
      XXXX    -347.6699   XXXY      -0.0123   XXYY    -106.7621
      XYYY      -0.0161   YYYY    -302.7905   XXXZ     -28.6291
      XXYZ      -0.0050   XYYZ     -12.1974   YYYZ      -0.0112
      XXZZ    -151.3272   XYZZ      -0.0033   YYZZ    -139.3529
      XZZZ     -32.1986   YZZZ      -0.0120   ZZZZ    -517.5730
 -----------------------------------------------------------------
 Total job time:  53.98s(wall), 53.59s(cpu) 
 Mon Jul  8 16:57:58 2013

        *************************************************************
        *                                                           *
        *  Thank you very much for using Q-Chem.  Have a nice day.  *
        *                                                           *
        *************************************************************


0 sent ACK to 0 
now end server 0 ... 
 
**********************************************************************
Job 2 of 3 
**********************************************************************
 
Process 0 of 1 is on cl116.stfx.acenet.ca - thread support 1
initial socket setup ...start
initial socket setup ...done 
now start server 0 ... 

cmd = /usr/bin/ssh clhead /usr/local/qchem/bin/get_hostid 703534716 > /scratch/tmp/6065225.1.short.q/qchem7284/lic.dat
                  Welcome to Q-Chem
     A Quantum Leap Into The Future Of Chemistry

 Y. Shao, L. Fusti-Molnar, Y. Jung, J. Kussmann, C. Ochsenfeld,
 S. T. Brown, A. T. B. Gilbert, L. V. Slipchenko,S. V. Levchenko,
 D. P. O'Neill, R. A. DiStasio Jr., R. C. Lochan, T. Wang,
 G. J. O. Beran, N. A. Besley, J. M. Herbert, C. Y. Lin,
 T. Van Voorhis, S. H. Chien, A. Sodt, R. P. Steele, 
 V. A. Rassolov, P. E. Maslen, P. P. Korambath, R. D. Adamson,
 B. Austin, J. Baker, E. F. C. Byrd, H. Dachsel, R. J. Doerksen,
 A. Dreuw, B. D. Dunietz, A. D. Dutoi, T. R. Furlani,
 S. R. Gwaltney, A. Heyden, S. Hirata, C.-P. Hsu, G. Kedziora,
 R. Z. Khaliullin, P. Klunzinger, A. M. Lee, M. S. Lee, W. Liang,
 I. Lotan, N. Nair, B. Peters, E. I. Proynov, P. A. Pieniazek, 
 Y. M. Rhee, J. Ritchie, E. Rosta, C. D. Sherrill, 
 A. C. Simmonett, J. E. Subotnik, H. L. Woodcock III,
 W. Zhang, A. T. Bell, A. K. Chakraborty, D. M. Chipman,
 F. J. Keil, A. Warshel, W. J. Hehre, H. F. Schaefer III,
 J. Kong, A. I. Krylov, P. M. W. Gill, M. Head-Gordon,
 Q-Chem, Version 3.1, Q-Chem, Inc., Pittsburgh, PA (2007).

 Additional authors for Version 3.1: 
 Z. Gan, Y. Zhao, N. E. Schultz, D. Truhlar, E. Epifanovsky and M. Oana.

 Additional authors for Version 3.2: 
 R. Baer, B. R. Brooks, D. Casanova, J.-D. Chai, C.-L. Cheng, 
 C. Cramer, D. Crittenden, A. Ghysels, G. Hawkins, E. G. Hohenstein, 
 C. Kelley, W. Kurlancheek, D. Liotard, E. Livshits, P. Manohar, 
 A. Marenich, D. Neuhauser, R. Olson, M. A. Rohrdanz, K. S. Thanthiriwatte, 
 A. J. W. Thom, V. Vanovschi, C. F. Williams, Q. Wu and Z.-Q. You. 


 Intel X86 Linux Version

 Q-chem begins on Mon Jul  8 16:58:01 2013  

 Parallel job on  1  processors
Processing $rem in /usr/local/qchem/config/preferences.

theFileMan(): MAXOPENFILES=974 MAX_SUB_FILE_NUM=16
Maximum size of a physical file is 2.0 GB, maximum size of a tmp-file is 32.0 GB


--------------------------------------------------------------
User input:
--------------------------------------------------------------

$molecule
0,1
C          0.00153        0.00000       -0.00170
N          0.02691        0.00000        1.45040
H          0.98841        0.00000       -0.48072
H          0.49984       -0.81525        1.81295
H          0.49984        0.81525        1.81295
H         -0.54295       -0.87642       -0.35515
H         -0.54295        0.87642       -0.35515
$end

$comment
neutral
$end

$xc_functional
C PBE   1.00
X wPBE  1.00
$end


$rem
SYMMETRY_DECOMPOSITION	0
LRC_DFT                 true
exchange 		general
BASIS                   g3large
omega			370
mem_static              760
max_scf_cycles          200
scf_final_print         1
sym_ignore              true
$end

--------------------------------------------------------------
 Writing REM_CC_EA            7
 ----------------------------------------------------
       Standard Nuclear Orientation (Angstroms)
    I     Atom         X            Y            Z
 ----------------------------------------------------
    1      C       0.001530     0.000000    -0.001700
    2      N       0.026910     0.000000     1.450400
    3      H       0.988410     0.000000    -0.480720
    4      H       0.499840    -0.815250     1.812950
    5      H       0.499840     0.815250     1.812950
    6      H      -0.542950    -0.876420    -0.355150
    7      H      -0.542950     0.876420    -0.355150
 ----------------------------------------------------
 Nuclear Repulsion Energy =    42.1716120230 hartrees
 There are        9 alpha and        9 beta electrons
 Requested basis set is G3large
 There are 50 shells and 134 basis functions

Total QAlloc Memory Limit   2000 MB
Mega-Array Size       743 MB
MEM_STATIC part       760 MB

                       Distance Matrix (Angstroms)
             C (  1)   N (  2)   H (  3)   H (  4)   H (  5)   H (  6)
   N (  2)  1.452322
   H (  3)  1.096992  2.157245
   H (  4)  2.050829  1.009821  2.482792
   H (  5)  2.050829  1.009821  2.482792  1.630500
   H (  6)  1.090641  2.086352  1.768882  2.406618  2.941057
   H (  7)  1.090641  2.086352  1.768882  2.941057  2.406618  1.752840

 
 A cutoff of  1.0D-08 yielded   1263 shell pairs
 There are   9135 function pairs ( 10882 Cartesian)
Evaluating contribution to one-electron hamiltonian from nuclear
 Smallest overlap matrix eigenvalue = 4.94E-04
 Multipole matrices computed through 2nd order

  Scale SEOQF with 1.000000e-01/1.000000e-01/1.000000e-01

 Standard Electronic Orientation quadrupole field applied
 Nucleus-field energy     =    -0.0000000021 hartrees
 Guess from superposition of atomic densities
 Warning:  Energy on first SCF cycle will be non-variational
 Long-range K will be added via erf
 Coulomb attenuation parameter = 0.37 bohr**(-1)
 A restricted Kohn-Sham SCF calculation will be
 performed using Pulay DIIS extrapolation
 Exchange:  wPBE + LR-HF      Correlation:  PBE
 Using SG-1 standard quadrature grid
 SCF converges when DIIS error is below 1.0E-05
 Requested basis set is G3large
 There are 50 shells and 134 basis functions
 A cutoff of  1.0D-08 yielded   1263 shell pairs
 There are   9135 function pairs ( 10882 Cartesian)
 ---------------------------------------
  Cycle       Energy         DIIS Error
 ---------------------------------------
    1     -96.1229337036      3.73E-02
    2     -95.7858356092      4.41E-03
    3     -95.8038889961      3.65E-03
    4     -95.8265578354      3.68E-04
    5     -95.8268489322      1.19E-04
    6     -95.8268872770      4.05E-05
    7     -95.8268907757      8.83E-06 Convergence criterion met
 ---------------------------------------
 One-Electron    Energy =  -211.9409830798
 Total Coulomb   Energy =    88.1019687086
 Alpha Exchange  Energy =    -1.6745176605
 Beta  Exchange  Energy =    -1.6745176605
 DFT   Exchange  Energy =   -10.2353490287
 DFT Correlation Energy =    -0.5751040758
 Nuclear Repu.   Energy =    42.1716120209
 Nuclear Attr.   Energy =  -307.3448250793
 Kinetic         Energy =    95.4038419996
 SCF time:  CPU 26.98 s  wall 27.36 s
 Final Alpha MO Eigenvalues
            1           2           3           4           5           6
    1 -14.1580975 -10.0968536  -1.0060467  -0.7895752  -0.6130657  -0.5590216
            7           8           9          10          11          12
    1  -0.5219345  -0.4790333  -0.3490064   0.0373431   0.0589906   0.0641486
           13          14
    1   0.0738028   0.0964221
 Analysis of SCF Wavefunction
 
 --------------------------------------------------------------
                    Orbital Energies (a.u.)
 --------------------------------------------------------------
 
 Alpha MOs
 -- Occupied --
-14.158 -10.097  -1.006  -0.790  -0.613  -0.559  -0.522  -0.479
 -0.349
 -- Virtual --
  0.037   0.059   0.064   0.074   0.096   0.121   0.154   0.155
  0.176   0.204   0.227   0.237   0.265   0.267   0.282   0.292
  0.323   0.336   0.383   0.521   0.527   0.584   0.602   0.645
  0.667   0.684   0.698   0.700   0.732   0.756   0.766   0.837
  0.871   0.961   0.973   1.029   1.035   1.126   1.185   1.187
  1.223   1.279   1.298   1.339   1.381   1.391   1.437   1.505
  1.542   1.556   1.588   1.627   1.743   1.754   1.835   1.978
  1.982   2.458   2.489   2.581   2.757   2.840   3.032   3.105
  3.121   3.138   3.210   3.236   3.327   3.354   3.385   3.445
  3.473   3.539   3.560   3.753   3.791   3.801   3.887   3.893
  3.970   3.988   4.008   4.148   4.222   4.232   4.332   4.354
  4.385   4.437   4.535   4.733   4.739   4.870   4.894   4.985
  5.011   5.247   5.297   5.373   5.461   5.614   5.728   5.805
  5.868   6.229   6.556  24.309  28.032  28.070  28.087  35.626
 37.537  38.173  38.239  40.571  40.653  40.692  40.717  40.801
 40.932  41.041  41.167  41.212  41.255
 --------------------------------------------------------------
 
          Ground-State Mulliken Net Atomic Charges

     Atom                 Charge (a.u.)
  ----------------------------------------
      1 C                    -0.217975
      2 N                    -0.329175
      3 H                     0.063238
      4 H                     0.160990
      5 H                     0.160985
      6 H                     0.081033
      7 H                     0.080905
  ----------------------------------------
  Sum of atomic charges =     0.000000

 -----------------------------------------------------------------
                    Cartesian Multipole Moments
 -----------------------------------------------------------------
    Charge (ESU x 10^10)
                 0.0000
    Dipole Moment (Debye)
         X       1.2904      Y      -0.0002      Z      -0.3816
       Tot       1.3457
    Quadrupole Moments (Debye-Ang)
        XX     -14.9319     XY       0.0002     YY     -12.5464
        XZ       3.0743     YZ       0.0001     ZZ     -14.8827
    Octapole Moments (Debye-Ang^2)
       XXX      -1.1616    XXY      -0.0002    XYY      -0.2186
       YYY      -0.0006    XXZ     -10.8327    XYZ      -0.0004
       YYZ      -6.8143    XZZ       5.4337    YZZ       0.0000
       ZZZ     -28.6607
    Hexadecapole Moments (Debye-Ang^3)
      XXXX     -26.1709   XXXY       0.0006   XXYY      -7.9208
      XYYY       0.0007   YYYY     -23.7431   XXXZ      -2.1838
      XXYZ       0.0002   XYYZ       1.4835   YYYZ       0.0006
      XXZZ     -25.2621   XYZZ      -0.0001   YYZZ     -18.2278
      XZZZ       9.2779   YZZZ       0.0007   ZZZZ    -115.0071
 -----------------------------------------------------------------
 Total job time:  27.61s(wall), 27.10s(cpu) 
 Mon Jul  8 16:58:28 2013

        *************************************************************
        *                                                           *
        *  Thank you very much for using Q-Chem.  Have a nice day.  *
        *                                                           *
        *************************************************************


0 sent ACK to 0 
now end server 0 ... 
 
**********************************************************************
Job 3 of 3 
**********************************************************************
 
Process 0 of 1 is on cl116.stfx.acenet.ca - thread support 1
initial socket setup ...start
initial socket setup ...done 
now start server 0 ... 

cmd = /usr/bin/ssh clhead /usr/local/qchem/bin/get_hostid 934093877 > /scratch/tmp/6065225.1.short.q/qchem7284/lic.dat
                  Welcome to Q-Chem
     A Quantum Leap Into The Future Of Chemistry

 Y. Shao, L. Fusti-Molnar, Y. Jung, J. Kussmann, C. Ochsenfeld,
 S. T. Brown, A. T. B. Gilbert, L. V. Slipchenko,S. V. Levchenko,
 D. P. O'Neill, R. A. DiStasio Jr., R. C. Lochan, T. Wang,
 G. J. O. Beran, N. A. Besley, J. M. Herbert, C. Y. Lin,
 T. Van Voorhis, S. H. Chien, A. Sodt, R. P. Steele, 
 V. A. Rassolov, P. E. Maslen, P. P. Korambath, R. D. Adamson,
 B. Austin, J. Baker, E. F. C. Byrd, H. Dachsel, R. J. Doerksen,
 A. Dreuw, B. D. Dunietz, A. D. Dutoi, T. R. Furlani,
 S. R. Gwaltney, A. Heyden, S. Hirata, C.-P. Hsu, G. Kedziora,
 R. Z. Khaliullin, P. Klunzinger, A. M. Lee, M. S. Lee, W. Liang,
 I. Lotan, N. Nair, B. Peters, E. I. Proynov, P. A. Pieniazek, 
 Y. M. Rhee, J. Ritchie, E. Rosta, C. D. Sherrill, 
 A. C. Simmonett, J. E. Subotnik, H. L. Woodcock III,
 W. Zhang, A. T. Bell, A. K. Chakraborty, D. M. Chipman,
 F. J. Keil, A. Warshel, W. J. Hehre, H. F. Schaefer III,
 J. Kong, A. I. Krylov, P. M. W. Gill, M. Head-Gordon,
 Q-Chem, Version 3.1, Q-Chem, Inc., Pittsburgh, PA (2007).

 Additional authors for Version 3.1: 
 Z. Gan, Y. Zhao, N. E. Schultz, D. Truhlar, E. Epifanovsky and M. Oana.

 Additional authors for Version 3.2: 
 R. Baer, B. R. Brooks, D. Casanova, J.-D. Chai, C.-L. Cheng, 
 C. Cramer, D. Crittenden, A. Ghysels, G. Hawkins, E. G. Hohenstein, 
 C. Kelley, W. Kurlancheek, D. Liotard, E. Livshits, P. Manohar, 
 A. Marenich, D. Neuhauser, R. Olson, M. A. Rohrdanz, K. S. Thanthiriwatte, 
 A. J. W. Thom, V. Vanovschi, C. F. Williams, Q. Wu and Z.-Q. You. 


 Intel X86 Linux Version

 Q-chem begins on Mon Jul  8 16:58:31 2013  

 Parallel job on  1  processors
Processing $rem in /usr/local/qchem/config/preferences.

theFileMan(): MAXOPENFILES=974 MAX_SUB_FILE_NUM=16
Maximum size of a physical file is 2.0 GB, maximum size of a tmp-file is 32.0 GB


--------------------------------------------------------------
User input:
--------------------------------------------------------------

$molecule
1,2
C          0.00153        0.00000       -0.00170
N          0.02691        0.00000        1.45040
H          0.98841        0.00000       -0.48072
H          0.49984       -0.81525        1.81295
H          0.49984        0.81525        1.81295
H         -0.54295       -0.87642       -0.35515
H         -0.54295        0.87642       -0.35515
$end

$comment
positive
$end

$xc_functional
C PBE   1.00
X wPBE  1.00
$end

$rem
SYMMETRY_DECOMPOSITION	0
LRC_DFT                 true
exchange 		general
BASIS                   g3large
omega			370
mem_static              760
max_scf_cycles          200
scf_final_print         1
sym_ignore              true
$end

--------------------------------------------------------------
 Writing REM_CC_EA            7
 ----------------------------------------------------
       Standard Nuclear Orientation (Angstroms)
    I     Atom         X            Y            Z
 ----------------------------------------------------
    1      C       0.001530     0.000000    -0.001700
    2      N       0.026910     0.000000     1.450400
    3      H       0.988410     0.000000    -0.480720
    4      H       0.499840    -0.815250     1.812950
    5      H       0.499840     0.815250     1.812950
    6      H      -0.542950    -0.876420    -0.355150
    7      H      -0.542950     0.876420    -0.355150
 ----------------------------------------------------
 Nuclear Repulsion Energy =    42.1716120230 hartrees
 There are        9 alpha and        8 beta electrons
 Requested basis set is G3large
 There are 50 shells and 134 basis functions

Total QAlloc Memory Limit   2000 MB
Mega-Array Size       743 MB
MEM_STATIC part       760 MB

                       Distance Matrix (Angstroms)
             C (  1)   N (  2)   H (  3)   H (  4)   H (  5)   H (  6)
   N (  2)  1.452322
   H (  3)  1.096992  2.157245
   H (  4)  2.050829  1.009821  2.482792
   H (  5)  2.050829  1.009821  2.482792  1.630500
   H (  6)  1.090641  2.086352  1.768882  2.406618  2.941057
   H (  7)  1.090641  2.086352  1.768882  2.941057  2.406618  1.752840

 
 A cutoff of  1.0D-08 yielded   1263 shell pairs
 There are   9135 function pairs ( 10882 Cartesian)
Evaluating contribution to one-electron hamiltonian from nuclear
 Smallest overlap matrix eigenvalue = 4.94E-04
 Multipole matrices computed through 2nd order

  Scale SEOQF with 1.000000e-01/1.000000e-01/1.000000e-01

 Standard Electronic Orientation quadrupole field applied
 Nucleus-field energy     =    -0.0000000021 hartrees
 Guess from superposition of atomic densities
 Warning:  Energy on first SCF cycle will be non-variational
 Long-range K will be added via erf
 Coulomb attenuation parameter = 0.37 bohr**(-1)
 An unrestricted Kohn-Sham SCF calculation will be
 performed using Pulay DIIS extrapolation
 Exchange:  wPBE + LR-HF      Correlation:  PBE
 Using SG-1 standard quadrature grid
 SCF converges when DIIS error is below 1.0E-05
 Requested basis set is G3large
 There are 50 shells and 134 basis functions
 A cutoff of  1.0D-08 yielded   1263 shell pairs
 There are   9135 function pairs ( 10882 Cartesian)
 Warning!  Inaccurate integrated density:
   Number of electrons =    17
   Numerical integral  =    18.000022500592
   Relative error      =     5.8824852976 %
 ---------------------------------------
  Cycle       Energy         DIIS Error
 ---------------------------------------
    1     -96.1229337036      3.73E-02
    2     -95.4367992482      3.04E-03
    3     -95.4642740779      1.69E-03
    4     -95.4703423374      6.61E-04
    5     -95.4717396816      1.53E-04
    6     -95.4720750564      1.08E-04
    7     -95.4722807580      4.36E-05
    8     -95.4723442708      1.32E-05
    9     -95.4723515896      4.43E-06 Convergence criterion met
 ---------------------------------------
 One-Electron    Energy =  -206.1777827444
 Total Coulomb   Energy =    82.3669064959
 Alpha Exchange  Energy =    -1.6912847696
 Beta  Exchange  Energy =    -1.4940058898
 DFT   Exchange  Energy =   -10.1104260100
 DFT Correlation Energy =    -0.5373706926
 Nuclear Repu.   Energy =    42.1716120209
 Nuclear Attr.   Energy =  -301.2825481380
 Kinetic         Energy =    95.1047653936
 <S^2> = 0.7546
 SCF time:  CPU 43.21 s  wall 43.58 s
 Final Alpha MO Eigenvalues
            1           2           3           4           5           6
    1 -14.5777228 -10.3730771  -1.3710383  -1.0905636  -0.9561954  -0.8912576
            7           8           9          10          11          12
    1  -0.8424632  -0.7553737  -0.7336088  -0.1369849  -0.0925050  -0.0921076
           13          14
    1  -0.0728323  -0.0478703
 Final Beta MO Eigenvalues
            1           2           3           4           5           6
    1 -14.5599783 -10.3728509  -1.3335224  -1.0762584  -0.9424703  -0.8601515
            7           8           9          10          11          12
    1  -0.7882774  -0.7512146  -0.3565564  -0.1337590  -0.0907492  -0.0903915
           13
    1  -0.0711960
 Analysis of SCF Wavefunction
 
 --------------------------------------------------------------
                    Orbital Energies (a.u.)
 --------------------------------------------------------------
 
 Alpha MOs
 -- Occupied --
-14.578 -10.373  -1.371  -1.091  -0.956  -0.891  -0.842  -0.755
 -0.734
 -- Virtual --
 -0.137  -0.093  -0.092  -0.073  -0.048  -0.043  -0.023  -0.016
  0.004   0.015   0.023   0.031   0.054   0.054   0.064   0.081
  0.097   0.126   0.158   0.295   0.301   0.340   0.364   0.401
  0.419   0.435   0.443   0.448   0.469   0.499   0.507   0.580
  0.596   0.704   0.725   0.732   0.757   0.854   0.930   0.931
  0.952   1.034   1.048   1.084   1.111   1.116   1.150   1.230
  1.293   1.307   1.311   1.385   1.421   1.440   1.525   1.661
  1.675   2.181   2.208   2.317   2.449   2.533   2.762   2.805
  2.808   2.844   2.923   2.971   3.040   3.058   3.082   3.133
  3.152   3.218   3.247   3.437   3.461   3.476   3.535   3.567
  3.665   3.695   3.717   3.806   3.925   3.930   4.050   4.072
  4.085   4.154   4.203   4.412   4.415   4.563   4.564   4.631
  4.664   4.840   4.890   4.980   5.074   5.247   5.446   5.526
  5.535   5.868   6.197  24.032  27.754  27.794  27.812  35.209
 37.098  37.763  37.827  40.135  40.245  40.266  40.284  40.389
 40.656  40.762  40.890  40.933  40.980
 
 Beta MOs
 -- Occupied --
-14.560 -10.373  -1.334  -1.076  -0.942  -0.860  -0.788  -0.751
 -- Virtual --
 -0.357  -0.134  -0.091  -0.090  -0.071  -0.046  -0.041  -0.020
 -0.015   0.010   0.022   0.028   0.036   0.056   0.060   0.071
  0.084   0.105   0.132   0.162   0.302   0.305   0.344   0.368
  0.411   0.431   0.442   0.447   0.455   0.492   0.506   0.515
  0.597   0.603   0.706   0.738   0.762   0.772   0.861   0.933
  0.936   0.965   1.038   1.052   1.089   1.115   1.132   1.165
  1.245   1.301   1.309   1.320   1.393   1.449   1.465   1.544
  1.686   1.687   2.186   2.221   2.323   2.460   2.544   2.768
  2.808   2.827   2.852   2.936   2.973   3.043   3.071   3.094
  3.150   3.180   3.229   3.272   3.454   3.480   3.494   3.579
  3.585   3.690   3.702   3.726   3.835   3.940   3.952   4.063
  4.085   4.100   4.165   4.229   4.426   4.435   4.577   4.580
  4.670   4.681   4.905   4.954   5.040   5.127   5.275   5.462
  5.532   5.554   5.889   6.215  24.032  27.754  27.795  27.812
 35.230  37.147  37.776  37.839  40.179  40.253  40.295  40.324
 40.401  40.657  40.762  40.891  40.934  40.980
 --------------------------------------------------------------
 
          Ground-State Mulliken Net Atomic Charges

     Atom                 Charge (a.u.)    Spin (a.u.)
  --------------------------------------------------------
      1 C                    -0.202207       0.002810
      2 N                     0.202779       0.869979
      3 H                     0.190420       0.106433
      4 H                     0.248346      -0.005765
      5 H                     0.248263      -0.006033
      6 H                     0.156181       0.016144
      7 H                     0.156218       0.016431
  --------------------------------------------------------
  Sum of atomic charges =     1.000000
  Sum of spin   charges =     1.000000

 -----------------------------------------------------------------
                    Cartesian Multipole Moments
 -----------------------------------------------------------------
    Charge (ESU x 10^10)
                 4.8032
    Dipole Moment (Debye)
         X       1.4527      Y       0.0002      Z       4.4408
       Tot       4.6723
    Quadrupole Moments (Debye-Ang)
        XX     -10.3337     XY      -0.0010     YY      -9.2205
        XZ       2.4801     YZ      -0.0001     ZZ      -2.2786
    Octapole Moments (Debye-Ang^2)
       XXX      -0.1006    XXY      -0.0002    XYY      -0.2080
       YYY       0.0002    XXZ      -7.1080    XYZ      -0.0010
       YYZ      -3.9891    XZZ       4.7879    YZZ       0.0003
       ZZZ      -6.2666
    Hexadecapole Moments (Debye-Ang^3)
      XXXX     -16.0645   XXXY      -0.0009   XXYY      -4.8629
      XYYY      -0.0009   YYYY     -16.4627   XXXZ      -2.7528
      XXYZ      -0.0006   XYYZ       2.3184   YYYZ      -0.0004
      XXZZ     -14.3548   XYZZ      -0.0023   YYZZ      -9.9170
      XZZZ       6.5316   YZZZ       0.0008   ZZZZ     -58.7790
 -----------------------------------------------------------------
 Total job time:  43.72s(wall), 43.33s(cpu) 
 Mon Jul  8 16:59:15 2013

        *************************************************************
        *                                                           *
        *  Thank you very much for using Q-Chem.  Have a nice day.  *
        *                                                           *
        *************************************************************


0 sent ACK to 0 
now end server 0 ... 
