Process 0 of 1 is on cl142.stfx.acenet.ca - thread support 1
initial socket setup ...start
initial socket setup ...done 
now start server 0 ... 

cmd = /usr/bin/ssh clhead /usr/local/qchem/bin/get_hostid 121947436 > /globalscratch/itamblyn/bnl/g297_b3lyp_neut_g03Large/g2g71029/omega900/qchem12219/lic.dat
                  Welcome to Q-Chem
     A Quantum Leap Into The Future Of Chemistry

 Y. Shao, L. Fusti-Molnar, Y. Jung, J. Kussmann, C. Ochsenfeld,
 S. T. Brown, A. T. B. Gilbert, L. V. Slipchenko,S. V. Levchenko,
 D. P. O'Neill, R. A. DiStasio Jr., R. C. Lochan, T. Wang,
 G. J. O. Beran, N. A. Besley, J. M. Herbert, C. Y. Lin,
 T. Van Voorhis, S. H. Chien, A. Sodt, R. P. Steele, 
 V. A. Rassolov, P. E. Maslen, P. P. Korambath, R. D. Adamson,
 B. Austin, J. Baker, E. F. C. Byrd, H. Dachsel, R. J. Doerksen,
 A. Dreuw, B. D. Dunietz, A. D. Dutoi, T. R. Furlani,
 S. R. Gwaltney, A. Heyden, S. Hirata, C.-P. Hsu, G. Kedziora,
 R. Z. Khaliullin, P. Klunzinger, A. M. Lee, M. S. Lee, W. Liang,
 I. Lotan, N. Nair, B. Peters, E. I. Proynov, P. A. Pieniazek, 
 Y. M. Rhee, J. Ritchie, E. Rosta, C. D. Sherrill, 
 A. C. Simmonett, J. E. Subotnik, H. L. Woodcock III,
 W. Zhang, A. T. Bell, A. K. Chakraborty, D. M. Chipman,
 F. J. Keil, A. Warshel, W. J. Hehre, H. F. Schaefer III,
 J. Kong, A. I. Krylov, P. M. W. Gill, M. Head-Gordon,
 Q-Chem, Version 3.1, Q-Chem, Inc., Pittsburgh, PA (2007).

 Additional authors for Version 3.1: 
 Z. Gan, Y. Zhao, N. E. Schultz, D. Truhlar, E. Epifanovsky and M. Oana.

 Additional authors for Version 3.2: 
 R. Baer, B. R. Brooks, D. Casanova, J.-D. Chai, C.-L. Cheng, 
 C. Cramer, D. Crittenden, A. Ghysels, G. Hawkins, E. G. Hohenstein, 
 C. Kelley, W. Kurlancheek, D. Liotard, E. Livshits, P. Manohar, 
 A. Marenich, D. Neuhauser, R. Olson, M. A. Rohrdanz, K. S. Thanthiriwatte, 
 A. J. W. Thom, V. Vanovschi, C. F. Williams, Q. Wu and Z.-Q. You. 


 Intel X86 Linux Version

 Q-chem begins on Mon Apr 11 17:40:44 2011  

 Parallel job on  1  processors
Processing $rem in /usr/local/qchem/config/preferences.

theFileMan(): MAXOPENFILES=974 MAX_SUB_FILE_NUM=16
Maximum size of a physical file is 2.0 GB, maximum size of a tmp-file is 32.0 GB


--------------------------------------------------------------
User input:
--------------------------------------------------------------

$molecule
-1,1
C
O,1,CO
H,1,CH,2,HCO

CO=1.18271512
CH=1.12830969
HCO=123.65060441

$end

$comment
negative
$end

$xc_functional
   X HF 1.0
   X BNL 1.0
   C LYP 1.0
$end

$rem
SYMMETRY_DECOMPOSITION	0
exchange 		general
BASIS                   g3large
omega			900
separate_jk		true
mem_static              760
max_scf_cycles          200
scf_final_print         1
sym_ignore              true
$end

--------------------------------------------------------------
 Writing REM_CC_EA            3
 ----------------------------------------------------
       Standard Nuclear Orientation (Angstroms)
    I     Atom         X            Y            Z
 ----------------------------------------------------
    1      C       0.000000     0.000000     0.000000
    2      O       0.000000     0.000000     1.182715
    3      H       0.939241     0.000000    -0.625227
 ----------------------------------------------------
 Nuclear Repulsion Energy =    26.3683319341 hartrees
 There are        8 alpha and        8 beta electrons
 Requested basis set is G3large
 There are 26 shells and 94 basis functions

Total QAlloc Memory Limit   2000 MB
Mega-Array Size       743 MB
MEM_STATIC part       760 MB

                       Distance Matrix (Angstroms)
             C (  1)   O (  2)
   O (  2)  1.182715
   H (  3)  1.128310  2.037358
 
 A cutoff of  1.0D-08 yielded    347 shell pairs
 There are   4563 function pairs (  5830 Cartesian)
Evaluating contribution to one-electron hamiltonian from nuclear
 Smallest overlap matrix eigenvalue = 1.08E-03
 Multipole matrices computed through 2nd order

  Scale SEOQF with 1.000000e-01/1.000000e-01/1.000000e-01

 Standard Electronic Orientation quadrupole field applied
 Nucleus-field energy     =    -0.0000000012 hartrees
 Guess from superposition of atomic densities
 Warning:  Energy on first SCF cycle will be non-variational
 A restricted hybrid HF-DFT SCF calculation will be
 performed using Pulay DIIS extrapolation
 Exchange:     1.0000 Hartree-Fock + 1.0000 BNL
 Correlation:  1.0000 LYP
 Using SG-1 standard quadrature grid
 SCF converges when DIIS error is below 1.0E-05
 Warning!  Inaccurate integrated density:
   Number of electrons =    16
   Numerical integral  =    15.000038108890
   Relative error      =    -6.2497618194 %
 ---------------------------------------
  Cycle       Energy         DIIS Error
 ---------------------------------------
    1    -113.1719417991      4.74E-02
    2    -112.8267124878      1.04E-02
    3    -112.8781615346      1.02E-02
    4    -112.9551286066      1.20E-03
    5    -112.9608948876      6.94E-04
    6    -112.9641857354      4.61E-04
    7    -112.9668084326      2.79E-04
    8    -112.9682130479      1.12E-04
    9    -112.9684215653      3.35E-05
   10    -112.9684341944      9.24E-06 Convergence criterion met
 ---------------------------------------
 One-Electron    Energy =  -211.4686664868
 Total Coulomb   Energy =    85.7377940396
 Alpha Exchange  Energy =    -2.8535131525
 Beta  Exchange  Energy =    -2.8535131525
 DFT   Exchange  Energy =    -7.3601611653
 DFT Correlation Energy =    -0.5387062097
 Nuclear Repu.   Energy =    26.3683319328
 Nuclear Attr.   Energy =  -324.1036359209
 Kinetic         Energy =   112.6349694340
 SCF time:  CPU 15.56 s  wall 50.24 s
 Final Alpha MO Eigenvalues
            1           2           3           4           5           6
    1 -18.7788403 -10.0482752  -1.0772567  -0.5230663  -0.3987112  -0.3168376
            7           8           9          10          11          12
    1  -0.3131503  -0.0318984   0.1808475   0.2487746   0.2498988   0.2806808
           13
    1   0.3309748
 Analysis of SCF Wavefunction
 
 --------------------------------------------------------------
                    Orbital Energies (a.u.)
 --------------------------------------------------------------
 
 Alpha MOs
 -- Occupied --
-18.779 -10.048  -1.077  -0.523  -0.399  -0.317  -0.313  -0.032
 -- Virtual --
  0.181   0.249   0.250   0.281   0.331   0.384   0.435   0.462
  0.485   0.488   0.563   0.726   0.840   0.911   0.919   0.986
  1.016   1.088   1.209   1.223   1.335   1.356   1.397   1.453
  1.496   1.572   1.793   1.844   1.939   2.084   2.135   2.417
  2.576   2.862   2.906   3.137   3.325   3.334   3.355   3.457
  3.539   3.577   3.725   3.744   3.776   3.926   4.044   4.079
  4.195   4.578   4.591   4.779   5.444   5.490   5.571   5.603
  5.618   5.900   5.988   6.268   6.853   6.988   7.357   7.372
  7.397   7.709   7.802   8.114  25.032  27.784  28.043  28.745
 41.355  41.558  41.634  41.731  41.772  44.198  44.272  44.368
 44.407  44.461  46.351  46.392  47.146  50.829
 --------------------------------------------------------------
 
          Ground-State Mulliken Net Atomic Charges

     Atom                 Charge (a.u.)
  ----------------------------------------
      1 C                    -0.605805
      2 O                    -0.342125
      3 H                    -0.052070
  ----------------------------------------
  Sum of atomic charges =    -1.000000

 -----------------------------------------------------------------
                    Cartesian Multipole Moments
 -----------------------------------------------------------------
    Charge (ESU x 10^10)
                -4.8032
    Dipole Moment (Debye)
         X       1.3030      Y       0.0017      Z      -1.3662
       Tot       1.8879
    Quadrupole Moments (Debye-Ang)
        XX     -19.2102     XY      -0.0036     YY     -14.6813
        XZ      -1.0006     YZ      -0.0004     ZZ     -20.7052
    Octapole Moments (Debye-Ang^2)
       XXX      -2.5773    XXY       0.0012    XYY       0.5473
       YYY       0.0090    XXZ      -2.4678    XYZ       0.0024
       YYZ      -4.9377    XZZ      -0.1805    YZZ       0.0023
       ZZZ     -21.6700
    Hexadecapole Moments (Debye-Ang^3)
      XXXX     -54.9376   XXXY      -0.0153   XXYY     -12.0922
      XYYY      -0.0142   YYYY     -21.7568   XXXZ       2.1587
      XXYZ       0.0001   XYYZ      -0.2491   YYYZ      -0.0021
      XXZZ     -23.8677   XYZZ      -0.0046   YYZZ     -16.8746
      XZZZ      -0.2253   YZZZ      -0.0013   ZZZZ     -88.3021
 -----------------------------------------------------------------
 Total job time:  54.91s(wall), 15.65s(cpu) 
 Mon Apr 11 17:41:39 2011

        *************************************************************
        *                                                           *
        *  Thank you very much for using Q-Chem.  Have a nice day.  *
        *                                                           *
        *************************************************************


0 sent ACK to 0 
now end server 0 ... 
 
**********************************************************************
Job 2 of 3 
**********************************************************************
 
Process 0 of 1 is on cl142.stfx.acenet.ca - thread support 1
initial socket setup ...start
initial socket setup ...done 
now start server 0 ... 

cmd = /usr/bin/ssh clhead /usr/local/qchem/bin/get_hostid 893598758 > /globalscratch/itamblyn/bnl/g297_b3lyp_neut_g03Large/g2g71029/omega900/qchem12219/lic.dat
                  Welcome to Q-Chem
     A Quantum Leap Into The Future Of Chemistry

 Y. Shao, L. Fusti-Molnar, Y. Jung, J. Kussmann, C. Ochsenfeld,
 S. T. Brown, A. T. B. Gilbert, L. V. Slipchenko,S. V. Levchenko,
 D. P. O'Neill, R. A. DiStasio Jr., R. C. Lochan, T. Wang,
 G. J. O. Beran, N. A. Besley, J. M. Herbert, C. Y. Lin,
 T. Van Voorhis, S. H. Chien, A. Sodt, R. P. Steele, 
 V. A. Rassolov, P. E. Maslen, P. P. Korambath, R. D. Adamson,
 B. Austin, J. Baker, E. F. C. Byrd, H. Dachsel, R. J. Doerksen,
 A. Dreuw, B. D. Dunietz, A. D. Dutoi, T. R. Furlani,
 S. R. Gwaltney, A. Heyden, S. Hirata, C.-P. Hsu, G. Kedziora,
 R. Z. Khaliullin, P. Klunzinger, A. M. Lee, M. S. Lee, W. Liang,
 I. Lotan, N. Nair, B. Peters, E. I. Proynov, P. A. Pieniazek, 
 Y. M. Rhee, J. Ritchie, E. Rosta, C. D. Sherrill, 
 A. C. Simmonett, J. E. Subotnik, H. L. Woodcock III,
 W. Zhang, A. T. Bell, A. K. Chakraborty, D. M. Chipman,
 F. J. Keil, A. Warshel, W. J. Hehre, H. F. Schaefer III,
 J. Kong, A. I. Krylov, P. M. W. Gill, M. Head-Gordon,
 Q-Chem, Version 3.1, Q-Chem, Inc., Pittsburgh, PA (2007).

 Additional authors for Version 3.1: 
 Z. Gan, Y. Zhao, N. E. Schultz, D. Truhlar, E. Epifanovsky and M. Oana.

 Additional authors for Version 3.2: 
 R. Baer, B. R. Brooks, D. Casanova, J.-D. Chai, C.-L. Cheng, 
 C. Cramer, D. Crittenden, A. Ghysels, G. Hawkins, E. G. Hohenstein, 
 C. Kelley, W. Kurlancheek, D. Liotard, E. Livshits, P. Manohar, 
 A. Marenich, D. Neuhauser, R. Olson, M. A. Rohrdanz, K. S. Thanthiriwatte, 
 A. J. W. Thom, V. Vanovschi, C. F. Williams, Q. Wu and Z.-Q. You. 


 Intel X86 Linux Version

 Q-chem begins on Mon Apr 11 17:41:45 2011  

 Parallel job on  1  processors
Processing $rem in /usr/local/qchem/config/preferences.

theFileMan(): MAXOPENFILES=974 MAX_SUB_FILE_NUM=16
Maximum size of a physical file is 2.0 GB, maximum size of a tmp-file is 32.0 GB


--------------------------------------------------------------
User input:
--------------------------------------------------------------

$molecule
0,2
C
O,1,CO
H,1,CH,2,HCO

CO=1.18271512
CH=1.12830969
HCO=123.65060441

$end

$comment
neutral
$end

$xc_functional
   X HF 1.0
   X BNL 1.0
   C LYP 1.0
$end

$rem
SYMMETRY_DECOMPOSITION	0
exchange 		general
BASIS                   g3large
omega			900
separate_jk		true
mem_static              760
max_scf_cycles          200
scf_final_print         1
sym_ignore              true
$end

--------------------------------------------------------------
 Writing REM_CC_EA            3
 ----------------------------------------------------
       Standard Nuclear Orientation (Angstroms)
    I     Atom         X            Y            Z
 ----------------------------------------------------
    1      C       0.000000     0.000000     0.000000
    2      O       0.000000     0.000000     1.182715
    3      H       0.939241     0.000000    -0.625227
 ----------------------------------------------------
 Nuclear Repulsion Energy =    26.3683319341 hartrees
 There are        8 alpha and        7 beta electrons
 Requested basis set is G3large
 There are 26 shells and 94 basis functions

Total QAlloc Memory Limit   2000 MB
Mega-Array Size       743 MB
MEM_STATIC part       760 MB

                       Distance Matrix (Angstroms)
             C (  1)   O (  2)
   O (  2)  1.182715
   H (  3)  1.128310  2.037358
 
 A cutoff of  1.0D-08 yielded    347 shell pairs
 There are   4563 function pairs (  5830 Cartesian)
Evaluating contribution to one-electron hamiltonian from nuclear
 Smallest overlap matrix eigenvalue = 1.08E-03
 Multipole matrices computed through 2nd order

  Scale SEOQF with 1.000000e-01/1.000000e-01/1.000000e-01

 Standard Electronic Orientation quadrupole field applied
 Nucleus-field energy     =    -0.0000000012 hartrees
 Guess from superposition of atomic densities
 Warning:  Energy on first SCF cycle will be non-variational
 An unrestricted hybrid HF-DFT SCF calculation will be
 performed using Pulay DIIS extrapolation
 Exchange:     1.0000 Hartree-Fock + 1.0000 BNL
 Correlation:  1.0000 LYP
 Using SG-1 standard quadrature grid
 SCF converges when DIIS error is below 1.0E-05
 ---------------------------------------
  Cycle       Energy         DIIS Error
 ---------------------------------------
    1    -113.1719417991      4.74E-02
    2    -112.8859858661      7.62E-03
    3    -112.9098122418      8.04E-03
    4    -112.9632275108      9.17E-04
    5    -112.9678794164      4.56E-04
    6    -112.9706017014      2.74E-04
    7    -112.9721895236      1.74E-04
    8    -112.9730901046      1.05E-04
    9    -112.9734947143      4.15E-05
   10    -112.9735454190      1.72E-05
   11    -112.9735523967      7.11E-06 Convergence criterion met
 ---------------------------------------
 One-Electron    Energy =  -206.8935688371
 Total Coulomb   Energy =    80.8853016413
 Alpha Exchange  Energy =    -2.9304887071
 Beta  Exchange  Energy =    -2.5748428347
 DFT   Exchange  Energy =    -7.3205242972
 DFT Correlation Energy =    -0.5077612947
 Nuclear Repu.   Energy =    26.3683319328
 Nuclear Attr.   Energy =  -319.2145524226
 Kinetic         Energy =   112.3209835855
 <S^2> = 0.7577
 SCF time:  CPU 19.62 s  wall 53.63 s
 Final Alpha MO Eigenvalues
            1           2           3           4           5           6
    1 -19.1043941 -10.3858980  -1.3908063  -0.8478321  -0.7145865  -0.6534801
            7           8           9          10          11          12
    1  -0.6121649  -0.4008326   0.0382788   0.0481454   0.0879528   0.1028673
           13
    1   0.1288553
 Final Beta MO Eigenvalues
            1           2           3           4           5           6
    1 -19.0955414 -10.3741653  -1.3712559  -0.8004428  -0.6785666  -0.6053983
            7           8           9          10          11          12
    1  -0.5587399   0.0226773   0.0361169   0.0556289   0.0871568   0.1190348
 Analysis of SCF Wavefunction
 
 --------------------------------------------------------------
                    Orbital Energies (a.u.)
 --------------------------------------------------------------
 
 Alpha MOs
 -- Occupied --
-19.104 -10.386  -1.391  -0.848  -0.715  -0.653  -0.612  -0.401
 -- Virtual --
  0.038   0.048   0.088   0.103   0.129   0.156   0.234   0.250
  0.286   0.294   0.354   0.471   0.566   0.634   0.643   0.693
  0.727   0.790   0.920   0.935   1.053   1.099   1.121   1.182
  1.230   1.280   1.502   1.549   1.659   1.794   1.841   2.130
  2.274   2.552   2.616   2.820   2.996   3.013   3.029   3.134
  3.219   3.237   3.382   3.400   3.442   3.606   3.713   3.771
  3.862   4.254   4.264   4.448   5.121   5.190   5.251   5.298
  5.312   5.602   5.682   5.947   6.546   6.666   7.037   7.052
  7.088   7.409   7.486   7.807  24.697  27.450  27.699  28.413
 41.016  41.221  41.295  41.396  41.433  43.867  43.941  44.047
 44.075  44.136  46.031  46.060  46.825  50.504
 
 Beta MOs
 -- Occupied --
-19.096 -10.374  -1.371  -0.800  -0.679  -0.605  -0.559
 -- Virtual --
  0.023   0.036   0.056   0.087   0.119   0.138   0.159   0.249
  0.252   0.287   0.299   0.356   0.485   0.595   0.651   0.656
  0.710   0.746   0.819   0.937   0.944   1.065   1.104   1.126
  1.195   1.233   1.305   1.511   1.562   1.667   1.810   1.858
  2.134   2.295   2.576   2.629   2.832   3.021   3.030   3.048
  3.151   3.235   3.268   3.414   3.436   3.466   3.627   3.735
  3.779   3.888   4.269   4.288   4.474   5.144   5.197   5.277
  5.314   5.327   5.607   5.695   5.968   6.553   6.687   7.064
  7.078   7.100   7.416   7.511   7.820  24.710  27.458  27.717
 28.420  41.030  41.233  41.308  41.404  41.447  43.887  43.961
 44.055  44.096  44.149  46.036  46.077  46.831  50.514
 --------------------------------------------------------------
 
          Ground-State Mulliken Net Atomic Charges

     Atom                 Charge (a.u.)    Spin (a.u.)
  --------------------------------------------------------
      1 C                     0.052868       0.611615
      2 O                    -0.176696       0.220168
      3 H                     0.123829       0.168217
  --------------------------------------------------------
  Sum of atomic charges =     0.000000
  Sum of spin   charges =     1.000000

 -----------------------------------------------------------------
                    Cartesian Multipole Moments
 -----------------------------------------------------------------
    Charge (ESU x 10^10)
                 0.0000
    Dipole Moment (Debye)
         X       1.0583      Y      -0.0004      Z      -1.9110
       Tot       2.1845
    Quadrupole Moments (Debye-Ang)
        XX     -11.1238     XY      -0.0001     YY     -10.9469
        XZ      -0.7362     YZ      -0.0002     ZZ     -13.7353
    Octapole Moments (Debye-Ang^2)
       XXX      -0.5459    XXY      -0.0002    XYY      -0.4638
       YYY      -0.0009    XXZ      -6.4435    XYZ      -0.0005
       YYZ      -5.8219    XZZ       0.0071    YZZ      -0.0004
       ZZZ     -20.6826
    Hexadecapole Moments (Debye-Ang^3)
      XXXX     -14.4977   XXXY       0.0003   XXYY      -4.2274
      XYYY       0.0002   YYYY      -9.7444   XXXZ       0.3390
      XXYZ      -0.0001   XYYZ       0.3401   YYYZ      -0.0002
      XXZZ     -12.2313   XYZZ      -0.0008   YYZZ     -11.2978
      XZZZ       0.6959   YZZZ      -0.0005   ZZZZ     -61.7539
 -----------------------------------------------------------------
 Total job time:  58.22s(wall), 19.72s(cpu) 
 Mon Apr 11 17:42:43 2011

        *************************************************************
        *                                                           *
        *  Thank you very much for using Q-Chem.  Have a nice day.  *
        *                                                           *
        *************************************************************


0 sent ACK to 0 
now end server 0 ... 
 
**********************************************************************
Job 3 of 3 
**********************************************************************
 
Process 0 of 1 is on cl142.stfx.acenet.ca - thread support 1
initial socket setup ...start
initial socket setup ...done 
now start server 0 ... 

cmd = /usr/bin/ssh clhead /usr/local/qchem/bin/get_hostid 1057943475 > /globalscratch/itamblyn/bnl/g297_b3lyp_neut_g03Large/g2g71029/omega900/qchem12219/lic.dat
                  Welcome to Q-Chem
     A Quantum Leap Into The Future Of Chemistry

 Y. Shao, L. Fusti-Molnar, Y. Jung, J. Kussmann, C. Ochsenfeld,
 S. T. Brown, A. T. B. Gilbert, L. V. Slipchenko,S. V. Levchenko,
 D. P. O'Neill, R. A. DiStasio Jr., R. C. Lochan, T. Wang,
 G. J. O. Beran, N. A. Besley, J. M. Herbert, C. Y. Lin,
 T. Van Voorhis, S. H. Chien, A. Sodt, R. P. Steele, 
 V. A. Rassolov, P. E. Maslen, P. P. Korambath, R. D. Adamson,
 B. Austin, J. Baker, E. F. C. Byrd, H. Dachsel, R. J. Doerksen,
 A. Dreuw, B. D. Dunietz, A. D. Dutoi, T. R. Furlani,
 S. R. Gwaltney, A. Heyden, S. Hirata, C.-P. Hsu, G. Kedziora,
 R. Z. Khaliullin, P. Klunzinger, A. M. Lee, M. S. Lee, W. Liang,
 I. Lotan, N. Nair, B. Peters, E. I. Proynov, P. A. Pieniazek, 
 Y. M. Rhee, J. Ritchie, E. Rosta, C. D. Sherrill, 
 A. C. Simmonett, J. E. Subotnik, H. L. Woodcock III,
 W. Zhang, A. T. Bell, A. K. Chakraborty, D. M. Chipman,
 F. J. Keil, A. Warshel, W. J. Hehre, H. F. Schaefer III,
 J. Kong, A. I. Krylov, P. M. W. Gill, M. Head-Gordon,
 Q-Chem, Version 3.1, Q-Chem, Inc., Pittsburgh, PA (2007).

 Additional authors for Version 3.1: 
 Z. Gan, Y. Zhao, N. E. Schultz, D. Truhlar, E. Epifanovsky and M. Oana.

 Additional authors for Version 3.2: 
 R. Baer, B. R. Brooks, D. Casanova, J.-D. Chai, C.-L. Cheng, 
 C. Cramer, D. Crittenden, A. Ghysels, G. Hawkins, E. G. Hohenstein, 
 C. Kelley, W. Kurlancheek, D. Liotard, E. Livshits, P. Manohar, 
 A. Marenich, D. Neuhauser, R. Olson, M. A. Rohrdanz, K. S. Thanthiriwatte, 
 A. J. W. Thom, V. Vanovschi, C. F. Williams, Q. Wu and Z.-Q. You. 


 Intel X86 Linux Version

 Q-chem begins on Mon Apr 11 17:42:48 2011  

 Parallel job on  1  processors
Processing $rem in /usr/local/qchem/config/preferences.

theFileMan(): MAXOPENFILES=974 MAX_SUB_FILE_NUM=16
Maximum size of a physical file is 2.0 GB, maximum size of a tmp-file is 32.0 GB


--------------------------------------------------------------
User input:
--------------------------------------------------------------

$molecule
1,1
C
O,1,CO
H,1,CH,2,HCO

CO=1.18271512
CH=1.12830969
HCO=123.65060441

$end

$comment
positive
$end

$xc_functional
   X HF 1.0
   X BNL 1.0
   C LYP 1.0
$end

$rem
SYMMETRY_DECOMPOSITION	0
exchange 		general
BASIS                   g3large
omega			900
separate_jk		true
mem_static              760
max_scf_cycles          200
scf_final_print         1
sym_ignore              true
$end

--------------------------------------------------------------
 Writing REM_CC_EA            3
 ----------------------------------------------------
       Standard Nuclear Orientation (Angstroms)
    I     Atom         X            Y            Z
 ----------------------------------------------------
    1      C       0.000000     0.000000     0.000000
    2      O       0.000000     0.000000     1.182715
    3      H       0.939241     0.000000    -0.625227
 ----------------------------------------------------
 Nuclear Repulsion Energy =    26.3683319341 hartrees
 There are        7 alpha and        7 beta electrons
 Requested basis set is G3large
 There are 26 shells and 94 basis functions

Total QAlloc Memory Limit   2000 MB
Mega-Array Size       743 MB
MEM_STATIC part       760 MB

                       Distance Matrix (Angstroms)
             C (  1)   O (  2)
   O (  2)  1.182715
   H (  3)  1.128310  2.037358
 
 A cutoff of  1.0D-08 yielded    347 shell pairs
 There are   4563 function pairs (  5830 Cartesian)
Evaluating contribution to one-electron hamiltonian from nuclear
 Smallest overlap matrix eigenvalue = 1.08E-03
 Multipole matrices computed through 2nd order

  Scale SEOQF with 1.000000e-01/1.000000e-01/1.000000e-01

 Standard Electronic Orientation quadrupole field applied
 Nucleus-field energy     =    -0.0000000012 hartrees
 Guess from superposition of atomic densities
 Warning:  Energy on first SCF cycle will be non-variational
 A restricted hybrid HF-DFT SCF calculation will be
 performed using Pulay DIIS extrapolation
 Exchange:     1.0000 Hartree-Fock + 1.0000 BNL
 Correlation:  1.0000 LYP
 Using SG-1 standard quadrature grid
 SCF converges when DIIS error is below 1.0E-05
 Warning!  Inaccurate integrated density:
   Number of electrons =    14
   Numerical integral  =    15.000038108890
   Relative error      =     7.1431293492 %
 ---------------------------------------
  Cycle       Energy         DIIS Error
 ---------------------------------------
    1    -113.1719417991      4.74E-02
    2    -112.4823823808      8.90E-03
    3    -112.5194035773      9.57E-03
    4    -112.5885241911      2.00E-03
    5    -112.5925998578      5.28E-04
    6    -112.5937304943      2.21E-04
    7    -112.5940505704      7.52E-05
    8    -112.5940837872      2.86E-05
    9    -112.5940897843      1.11E-05
   10    -112.5940910490      2.60E-06 Convergence criterion met
 ---------------------------------------
 One-Electron    Energy =  -201.1633750423
 Total Coulomb   Energy =    75.0981201385
 Alpha Exchange  Energy =    -2.6006882393
 Beta  Exchange  Energy =    -2.6006882393
 DFT   Exchange  Energy =    -7.2148887767
 DFT Correlation Energy =    -0.4809028228
 Nuclear Repu.   Energy =    26.3683319328
 Nuclear Attr.   Energy =  -312.8029331669
 Kinetic         Energy =   111.6395581246
 SCF time:  CPU 15.38 s  wall 45.71 s
 Final Alpha MO Eigenvalues
            1           2           3           4           5           6
    1 -19.5268046 -10.8150346  -1.7682390  -1.1893864  -1.0632485  -0.9826883
            7           8           9          10          11          12
    1  -0.9651774  -0.3591120  -0.2724100  -0.1420381  -0.1007648  -0.0801441
 Analysis of SCF Wavefunction
 
 --------------------------------------------------------------
                    Orbital Energies (a.u.)
 --------------------------------------------------------------
 
 Alpha MOs
 -- Occupied --
-19.527 -10.815  -1.768  -1.189  -1.063  -0.983  -0.965
 -- Virtual --
 -0.359  -0.272  -0.142  -0.101  -0.080  -0.075  -0.017   0.003
  0.041   0.074   0.085   0.121   0.209   0.299   0.340   0.349
  0.379   0.426   0.481   0.606   0.615   0.737   0.809   0.814
  0.883   0.922   0.966   1.171   1.225   1.333   1.457   1.504
  1.785   1.933   2.213   2.276   2.446   2.627   2.647   2.660
  2.767   2.850   2.863   3.005   3.028   3.059   3.239   3.338
  3.406   3.485   3.870   3.904   4.084   4.748   4.817   4.872
  4.930   4.944   5.235   5.311   5.570   6.169   6.282   6.655
  6.670   6.707   7.035   7.107   7.429  24.275  27.024  27.270
 27.987  40.586  40.793  40.865  40.968  41.004  43.451  43.525
 43.634  43.658  43.721  45.613  45.638  46.407  50.086
 --------------------------------------------------------------
 
          Ground-State Mulliken Net Atomic Charges

     Atom                 Charge (a.u.)
  ----------------------------------------
      1 C                     0.436907
      2 O                     0.219191
      3 H                     0.343902
  ----------------------------------------
  Sum of atomic charges =     1.000000

 -----------------------------------------------------------------
                    Cartesian Multipole Moments
 -----------------------------------------------------------------
    Charge (ESU x 10^10)
                 4.8032
    Dipole Moment (Debye)
         X       1.3270      Y       0.0000      Z      -0.8889
       Tot       1.5971
    Quadrupole Moments (Debye-Ang)
        XX      -7.0783     XY       0.0000     YY      -9.0555
        XZ      -0.9824     YZ       0.0000     ZZ      -8.0911
    Octapole Moments (Debye-Ang^2)
       XXX       0.9052    XXY       0.0000    XYY      -0.4849
       YYY       0.0000    XXZ      -6.7064    XYZ       0.0000
       YYZ      -5.3648    XZZ       0.5439    YZZ       0.0000
       ZZZ     -15.2014
    Hexadecapole Moments (Debye-Ang^3)
      XXXX      -6.4367   XXXY       0.0000   XXYY      -2.6082
      XYYY       0.0000   YYYY      -6.7034   XXXZ      -0.6554
      XXYZ       0.0000   XYYZ       0.3237   YYYZ       0.0000
      XXZZ      -8.1551   XYZZ       0.0000   YYZZ      -8.9994
      XZZZ       0.5356   YZZZ       0.0001   ZZZZ     -45.3642
 -----------------------------------------------------------------
 Total job time:  51.20s(wall), 15.48s(cpu) 
 Mon Apr 11 17:43:39 2011

        *************************************************************
        *                                                           *
        *  Thank you very much for using Q-Chem.  Have a nice day.  *
        *                                                           *
        *************************************************************


0 sent ACK to 0 
now end server 0 ... 
