Process 0 of 1 is on cl209.stfx.acenet.ca - thread support 1
initial socket setup ...start
initial socket setup ...done 
now start server 0 ... 

cmd = /usr/bin/ssh clhead /usr/local/qchem/bin/get_hostid 644693404 > /scratch/tmp/4825485.1.medium.q/qchem23155/lic.dat
                  Welcome to Q-Chem
     A Quantum Leap Into The Future Of Chemistry

 Y. Shao, L. Fusti-Molnar, Y. Jung, J. Kussmann, C. Ochsenfeld,
 S. T. Brown, A. T. B. Gilbert, L. V. Slipchenko,S. V. Levchenko,
 D. P. O'Neill, R. A. DiStasio Jr., R. C. Lochan, T. Wang,
 G. J. O. Beran, N. A. Besley, J. M. Herbert, C. Y. Lin,
 T. Van Voorhis, S. H. Chien, A. Sodt, R. P. Steele, 
 V. A. Rassolov, P. E. Maslen, P. P. Korambath, R. D. Adamson,
 B. Austin, J. Baker, E. F. C. Byrd, H. Dachsel, R. J. Doerksen,
 A. Dreuw, B. D. Dunietz, A. D. Dutoi, T. R. Furlani,
 S. R. Gwaltney, A. Heyden, S. Hirata, C.-P. Hsu, G. Kedziora,
 R. Z. Khaliullin, P. Klunzinger, A. M. Lee, M. S. Lee, W. Liang,
 I. Lotan, N. Nair, B. Peters, E. I. Proynov, P. A. Pieniazek, 
 Y. M. Rhee, J. Ritchie, E. Rosta, C. D. Sherrill, 
 A. C. Simmonett, J. E. Subotnik, H. L. Woodcock III,
 W. Zhang, A. T. Bell, A. K. Chakraborty, D. M. Chipman,
 F. J. Keil, A. Warshel, W. J. Hehre, H. F. Schaefer III,
 J. Kong, A. I. Krylov, P. M. W. Gill, M. Head-Gordon,
 Q-Chem, Version 3.1, Q-Chem, Inc., Pittsburgh, PA (2007).

 Additional authors for Version 3.1: 
 Z. Gan, Y. Zhao, N. E. Schultz, D. Truhlar, E. Epifanovsky and M. Oana.

 Additional authors for Version 3.2: 
 R. Baer, B. R. Brooks, D. Casanova, J.-D. Chai, C.-L. Cheng, 
 C. Cramer, D. Crittenden, A. Ghysels, G. Hawkins, E. G. Hohenstein, 
 C. Kelley, W. Kurlancheek, D. Liotard, E. Livshits, P. Manohar, 
 A. Marenich, D. Neuhauser, R. Olson, M. A. Rohrdanz, K. S. Thanthiriwatte, 
 A. J. W. Thom, V. Vanovschi, C. F. Williams, Q. Wu and Z.-Q. You. 


 Intel X86 Linux Version

 Q-chem begins on Mon Nov 14 18:55:24 2011  

 Parallel job on  1  processors
Processing $rem in /usr/local/qchem/config/preferences.

theFileMan(): MAXOPENFILES=974 MAX_SUB_FILE_NUM=16
Maximum size of a physical file is 2.0 GB, maximum size of a tmp-file is 32.0 GB


--------------------------------------------------------------
User input:
--------------------------------------------------------------

$molecule
-1,2
P
P,1,PP

PP=1.90449329

$end

$comment
negative
$end

$xc_functional
   X HF 1.0
   X BNL 1.0
   C LYP 1.0
$end

$rem
SYMMETRY_DECOMPOSITION	0
exchange 		general
BASIS                   g3large
omega			1990
separate_jk		true
mem_static              760
max_scf_cycles          200
scf_final_print         1
sym_ignore              true
$end

--------------------------------------------------------------
 Writing REM_CC_EA            2
 ----------------------------------------------------
       Standard Nuclear Orientation (Angstroms)
    I     Atom         X            Y            Z
 ----------------------------------------------------
    1      P       0.000000     0.000000     0.000000
    2      P       0.000000     0.000000     1.904493
 ----------------------------------------------------
 Nuclear Repulsion Energy =    62.5178744683 hartrees
 There are       16 alpha and       15 beta electrons
 Requested basis set is G3large
 There are 38 shells and 132 basis functions

Total QAlloc Memory Limit   2000 MB
Mega-Array Size       743 MB
MEM_STATIC part       760 MB

                       Distance Matrix (Angstroms)
             P (  1)
   P (  2)  1.904493
 
 A cutoff of  1.0D-08 yielded    691 shell pairs
 There are   8636 function pairs ( 12433 Cartesian)
Evaluating contribution to one-electron hamiltonian from nuclear
 Smallest overlap matrix eigenvalue = 5.30E-04
 Multipole matrices computed through 2nd order

  Scale SEOQF with 1.000000e-01/1.000000e-01/1.000000e-01

 Standard Electronic Orientation quadrupole field applied
 Nucleus-field energy     =    -0.0000000058 hartrees
 Guess from superposition of atomic densities
 Warning:  Energy on first SCF cycle will be non-variational
 An unrestricted hybrid HF-DFT SCF calculation will be
 performed using Pulay DIIS extrapolation
 Exchange:     1.0000 Hartree-Fock + 1.0000 BNL
 Correlation:  1.0000 LYP
 Using SG-1 standard quadrature grid
 SCF converges when DIIS error is below 1.0E-05
 Warning!  Inaccurate integrated density:
   Number of electrons =    31
   Numerical integral  =    30.000000428379
   Relative error      =    -3.2258050697 %
 ---------------------------------------
  Cycle       Energy         DIIS Error
 ---------------------------------------
    1    -680.9017658188      2.92E-02
    2    -680.9061186138      2.10E-03
    3    -680.9281718627      9.76E-04
    4    -680.9310495714      2.46E-04
    5    -680.9316989422      6.38E-05
    6    -680.9318124221      1.67E-05
    7    -680.9318317082      5.93E-06 Convergence criterion met
 ---------------------------------------
 One-Electron    Energy = -1075.4430558012
 Total Coulomb   Energy =   376.8124695819
 Alpha Exchange  Energy =   -10.5812049074
 Beta  Exchange  Energy =   -10.2405291501
 DFT   Exchange  Energy =   -22.7631414884
 DFT Correlation Energy =    -1.2342444055
 Nuclear Repu.   Energy =    62.5178744625
 Nuclear Attr.   Energy = -1754.5247744268
 Kinetic         Energy =   679.0817186256
 <S^2> = 0.7743
 SCF time:  CPU 32.98 s  wall 45.03 s
 Final Alpha MO Eigenvalues
            1           2           3           4           5           6
    1 -76.8446145 -76.8446105  -6.9758609  -6.9751326  -5.0400697  -5.0398785
            7           8           9          10          11          12
    1  -5.0398635  -5.0396197  -5.0373486  -5.0349166  -0.6908661  -0.4227169
           13          14          15          16          17          18
    1  -0.2186401  -0.2095819  -0.1690742  -0.0562203   0.1854179   0.1862402
           19          20          21
    1   0.2026977   0.2167354   0.2202896
 Final Beta MO Eigenvalues
            1           2           3           4           5           6
    1 -76.8422667 -76.8422617  -6.9735213  -6.9727505  -5.0380909  -5.0378295
            7           8           9          10          11          12
    1  -5.0361291  -5.0336670  -5.0299150  -5.0296532  -0.6722274  -0.3722062
           13          14          15          16          17          18
    1  -0.1934838  -0.1659776  -0.1444392   0.1843629   0.1874805   0.1983137
           19          20
    1   0.2007036   0.2157973
 Analysis of SCF Wavefunction
 
 --------------------------------------------------------------
                    Orbital Energies (a.u.)
 --------------------------------------------------------------
 
 Alpha MOs
 -- Occupied --
-76.845 -76.845  -6.976  -6.975  -5.040  -5.040  -5.040  -5.040
 -5.037  -5.035  -0.691  -0.423  -0.219  -0.210  -0.169  -0.056
 -- Virtual --
  0.185   0.186   0.203   0.217   0.220   0.243   0.252   0.266
  0.290   0.395   0.447   0.447   0.482   0.493   0.509   0.544
  0.585   0.585   0.617   0.617   0.618   0.626   0.626   0.759
  0.760   0.881   0.931   0.996   0.996   1.044   1.044   1.094
  1.097   1.155   1.155   1.194   1.197   1.275   1.276   1.307
  1.307   1.337   1.337   1.342   1.385   1.385   1.478   1.520
  1.526   1.575   1.581   1.776   1.839   1.840   2.102   2.106
  2.254   2.325   3.232   3.238   3.247   3.378   3.378   3.379
  3.379   3.418   3.418   3.507   3.507   3.732   3.741   3.832
  4.554   4.561   4.562   4.564   4.614   4.616   4.660   4.898
  4.906   5.531   7.555   7.750  13.694  13.697  13.828  13.831
 13.913  14.100  22.156  22.179  22.205  22.274  22.275  22.277
 22.298  22.424  22.427  22.623  29.116  29.128  29.128  29.135
 29.136  29.136  29.139  29.143  29.144  29.152  29.153  29.171
 29.175  29.213 164.999 165.065
 
 Beta MOs
 -- Occupied --
-76.842 -76.842  -6.974  -6.973  -5.038  -5.038  -5.036  -5.034
 -5.030  -5.030  -0.672  -0.372  -0.193  -0.166  -0.144
 -- Virtual --
  0.184   0.187   0.198   0.201   0.216   0.219   0.250   0.268
  0.284   0.288   0.401   0.456   0.457   0.492   0.505   0.513
  0.547   0.606   0.607   0.619   0.627   0.627   0.640   0.642
  0.760   0.773   0.886   0.932   1.000   1.000   1.045   1.045
  1.095   1.109   1.162   1.162   1.196   1.204   1.274   1.290
  1.324   1.325   1.341   1.352   1.356   1.389   1.390   1.480
  1.520   1.536   1.576   1.590   1.780   1.840   1.857   2.102
  2.119   2.254   2.325   3.235   3.238   3.253   3.383   3.383
  3.387   3.387   3.426   3.426   3.512   3.512   3.732   3.747
  3.835   4.554   4.564   4.564   4.566   4.617   4.619   4.661
  4.898   4.909   5.533   7.558   7.753  13.697  13.706  13.831
 13.840  13.914  14.101  22.161  22.184  22.208  22.276  22.280
 22.281  22.303  22.425  22.431  22.625  29.117  29.130  29.130
 29.137  29.138  29.138  29.142  29.145  29.146  29.154  29.154
 29.172  29.177  29.214 165.001 165.067
 --------------------------------------------------------------
 
          Ground-State Mulliken Net Atomic Charges

     Atom                 Charge (a.u.)    Spin (a.u.)
  --------------------------------------------------------
      1 P                    -0.499998       0.499987
      2 P                    -0.500002       0.500013
  --------------------------------------------------------
  Sum of atomic charges =    -1.000000
  Sum of spin   charges =     1.000000

 -----------------------------------------------------------------
                    Cartesian Multipole Moments
 -----------------------------------------------------------------
    Charge (ESU x 10^10)
                -4.8032
    Dipole Moment (Debye)
         X       0.0000      Y       0.0000      Z      -4.5739
       Tot       4.5739
    Quadrupole Moments (Debye-Ang)
        XX     -33.8168     XY       2.0903     YY     -33.7069
        XZ       0.0000     YZ       0.0000     ZZ     -43.5917
    Octapole Moments (Debye-Ang^2)
       XXX       0.0001    XXY       0.0000    XYY       0.0000
       YYY       0.0001    XXZ     -32.2019    XYZ       1.9905
       YYZ     -32.0974    XZZ      -0.0001    YZZ       0.0001
       ZZZ    -116.2352
    Hexadecapole Moments (Debye-Ang^3)
      XXXX     -74.2290   XXXY       4.5872   XXYY     -24.6777
      XYYY       4.5860   YYYY     -73.7471   XXXZ       0.0000
      XXYZ       0.0001   XYYZ       0.0000   YYYZ       0.0002
      XXZZ     -87.9156   XYZZ       8.6734   YYZZ     -87.4599
      XZZZ      -0.0004   YZZZ       0.0001   ZZZZ    -481.3268
 -----------------------------------------------------------------
 Total job time:  45.22s(wall), 33.13s(cpu) 
 Mon Nov 14 18:56:09 2011

        *************************************************************
        *                                                           *
        *  Thank you very much for using Q-Chem.  Have a nice day.  *
        *                                                           *
        *************************************************************


0 sent ACK to 0 
now end server 0 ... 
 
**********************************************************************
Job 2 of 3 
**********************************************************************
 
Process 0 of 1 is on cl209.stfx.acenet.ca - thread support 1
initial socket setup ...start
initial socket setup ...done 
now start server 0 ... 

cmd = /usr/bin/ssh clhead /usr/local/qchem/bin/get_hostid 774010599 > /scratch/tmp/4825485.1.medium.q/qchem23155/lic.dat
                  Welcome to Q-Chem
     A Quantum Leap Into The Future Of Chemistry

 Y. Shao, L. Fusti-Molnar, Y. Jung, J. Kussmann, C. Ochsenfeld,
 S. T. Brown, A. T. B. Gilbert, L. V. Slipchenko,S. V. Levchenko,
 D. P. O'Neill, R. A. DiStasio Jr., R. C. Lochan, T. Wang,
 G. J. O. Beran, N. A. Besley, J. M. Herbert, C. Y. Lin,
 T. Van Voorhis, S. H. Chien, A. Sodt, R. P. Steele, 
 V. A. Rassolov, P. E. Maslen, P. P. Korambath, R. D. Adamson,
 B. Austin, J. Baker, E. F. C. Byrd, H. Dachsel, R. J. Doerksen,
 A. Dreuw, B. D. Dunietz, A. D. Dutoi, T. R. Furlani,
 S. R. Gwaltney, A. Heyden, S. Hirata, C.-P. Hsu, G. Kedziora,
 R. Z. Khaliullin, P. Klunzinger, A. M. Lee, M. S. Lee, W. Liang,
 I. Lotan, N. Nair, B. Peters, E. I. Proynov, P. A. Pieniazek, 
 Y. M. Rhee, J. Ritchie, E. Rosta, C. D. Sherrill, 
 A. C. Simmonett, J. E. Subotnik, H. L. Woodcock III,
 W. Zhang, A. T. Bell, A. K. Chakraborty, D. M. Chipman,
 F. J. Keil, A. Warshel, W. J. Hehre, H. F. Schaefer III,
 J. Kong, A. I. Krylov, P. M. W. Gill, M. Head-Gordon,
 Q-Chem, Version 3.1, Q-Chem, Inc., Pittsburgh, PA (2007).

 Additional authors for Version 3.1: 
 Z. Gan, Y. Zhao, N. E. Schultz, D. Truhlar, E. Epifanovsky and M. Oana.

 Additional authors for Version 3.2: 
 R. Baer, B. R. Brooks, D. Casanova, J.-D. Chai, C.-L. Cheng, 
 C. Cramer, D. Crittenden, A. Ghysels, G. Hawkins, E. G. Hohenstein, 
 C. Kelley, W. Kurlancheek, D. Liotard, E. Livshits, P. Manohar, 
 A. Marenich, D. Neuhauser, R. Olson, M. A. Rohrdanz, K. S. Thanthiriwatte, 
 A. J. W. Thom, V. Vanovschi, C. F. Williams, Q. Wu and Z.-Q. You. 


 Intel X86 Linux Version

 Q-chem begins on Mon Nov 14 18:56:13 2011  

 Parallel job on  1  processors
Processing $rem in /usr/local/qchem/config/preferences.

theFileMan(): MAXOPENFILES=974 MAX_SUB_FILE_NUM=16
Maximum size of a physical file is 2.0 GB, maximum size of a tmp-file is 32.0 GB


--------------------------------------------------------------
User input:
--------------------------------------------------------------

$molecule
0,1
P
P,1,PP

PP=1.90449329

$end

$comment
neutral
$end

$xc_functional
   X HF 1.0
   X BNL 1.0
   C LYP 1.0
$end

$rem
SYMMETRY_DECOMPOSITION	0
exchange 		general
BASIS                   g3large
omega			1990
separate_jk		true
mem_static              760
max_scf_cycles          200
scf_final_print         1
sym_ignore              true
$end

--------------------------------------------------------------
 Writing REM_CC_EA            2
 ----------------------------------------------------
       Standard Nuclear Orientation (Angstroms)
    I     Atom         X            Y            Z
 ----------------------------------------------------
    1      P       0.000000     0.000000     0.000000
    2      P       0.000000     0.000000     1.904493
 ----------------------------------------------------
 Nuclear Repulsion Energy =    62.5178744683 hartrees
 There are       15 alpha and       15 beta electrons
 Requested basis set is G3large
 There are 38 shells and 132 basis functions

Total QAlloc Memory Limit   2000 MB
Mega-Array Size       743 MB
MEM_STATIC part       760 MB

                       Distance Matrix (Angstroms)
             P (  1)
   P (  2)  1.904493
 
 A cutoff of  1.0D-08 yielded    691 shell pairs
 There are   8636 function pairs ( 12433 Cartesian)
Evaluating contribution to one-electron hamiltonian from nuclear
 Smallest overlap matrix eigenvalue = 5.30E-04
 Multipole matrices computed through 2nd order

  Scale SEOQF with 1.000000e-01/1.000000e-01/1.000000e-01

 Standard Electronic Orientation quadrupole field applied
 Nucleus-field energy     =    -0.0000000058 hartrees
 Guess from superposition of atomic densities
 Warning:  Energy on first SCF cycle will be non-variational
 A restricted hybrid HF-DFT SCF calculation will be
 performed using Pulay DIIS extrapolation
 Exchange:     1.0000 Hartree-Fock + 1.0000 BNL
 Correlation:  1.0000 LYP
 Using SG-1 standard quadrature grid
 SCF converges when DIIS error is below 1.0E-05
 ---------------------------------------
  Cycle       Energy         DIIS Error
 ---------------------------------------
    1    -680.9017658188      2.92E-02
    2    -680.8923963271      1.45E-03
    3    -680.8996445390      4.24E-04
    4    -680.9004586441      1.42E-04
    5    -680.9005139778      2.94E-05
    6    -680.9005185403      5.90E-06 Convergence criterion met
 ---------------------------------------
 One-Electron    Energy = -1067.9509250798
 Total Coulomb   Energy =   369.0871399769
 Alpha Exchange  Energy =   -10.2950521326
 Beta  Exchange  Energy =   -10.2950521326
 DFT   Exchange  Energy =   -22.7509884229
 DFT Correlation Energy =    -1.2135152118
 Nuclear Repu.   Energy =    62.5178744625
 Nuclear Attr.   Energy = -1746.7440045050
 Kinetic         Energy =   678.7930794252
 SCF time:  CPU 23.92 s  wall 41.89 s
 Final Alpha MO Eigenvalues
            1           2           3           4           5           6
    1 -77.1051418 -77.1051307  -7.2339777  -7.2331866  -5.2964620  -5.2964620
            7           8           9          10          11          12
    1  -5.2962043  -5.2962043  -5.2941755  -5.2917482  -0.9215924  -0.6317907
           13          14          15          16          17          18
    1  -0.4378407  -0.3984869  -0.3984866  -0.0108782  -0.0108781   0.0572076
           19          20
    1   0.0618974   0.0798213
 Analysis of SCF Wavefunction
 
 --------------------------------------------------------------
                    Orbital Energies (a.u.)
 --------------------------------------------------------------
 
 Alpha MOs
 -- Occupied --
-77.105 -77.105  -7.234  -7.233  -5.296  -5.296  -5.296  -5.296
 -5.294  -5.292  -0.922  -0.632  -0.438  -0.398  -0.398
 -- Virtual --
 -0.011  -0.011   0.057   0.062   0.080   0.080   0.097   0.118
  0.118   0.151   0.206   0.240   0.240   0.289   0.289   0.319
  0.355   0.389   0.389   0.425   0.428   0.428   0.441   0.441
  0.560   0.560   0.668   0.713   0.778   0.778   0.823   0.823
  0.872   0.872   0.938   0.938   0.970   0.984   1.059   1.059
  1.074   1.074   1.105   1.105   1.122   1.165   1.165   1.256
  1.295   1.295   1.348   1.348   1.539   1.609   1.609   1.872
  1.872   2.021   2.093   2.988   3.000   3.000   3.129   3.129
  3.132   3.132   3.168   3.168   3.262   3.262   3.492   3.492
  3.588   4.306   4.307   4.307   4.309   4.359   4.362   4.411
  4.651   4.651   5.282   7.302   7.498  13.441  13.441  13.575
 13.575  13.658  13.845  21.898  21.921  21.949  22.017  22.019
 22.019  22.040  22.169  22.169  22.367  28.860  28.870  28.870
 28.876  28.876  28.879  28.879  28.885  28.886  28.894  28.895
 28.916  28.916  28.956 164.739 164.805
 --------------------------------------------------------------
 
          Ground-State Mulliken Net Atomic Charges

     Atom                 Charge (a.u.)
  ----------------------------------------
      1 P                     0.000024
      2 P                    -0.000024
  ----------------------------------------
  Sum of atomic charges =     0.000000

 -----------------------------------------------------------------
                    Cartesian Multipole Moments
 -----------------------------------------------------------------
    Charge (ESU x 10^10)
                 0.0000
    Dipole Moment (Debye)
         X       0.0000      Y       0.0000      Z       0.0000
       Tot       0.0000
    Quadrupole Moments (Debye-Ang)
        XX     -26.5033     XY       0.0000     YY     -26.5032
        XZ       0.0000     YZ       0.0000     ZZ     -24.8345
    Octapole Moments (Debye-Ang^2)
       XXX       0.0000    XXY       0.0000    XYY       0.0000
       YYY       0.0001    XXZ     -25.2377    XYZ       0.0000
       YYZ     -25.2377    XZZ       0.0001    YZZ       0.0000
       ZZZ     -70.9457
    Hexadecapole Moments (Debye-Ang^3)
      XXXX     -43.3899   XXXY       0.0000   XXYY     -14.4633
      XYYY       0.0000   YYYY     -43.3899   XXXZ       0.0001
      XXYZ       0.0000   XYYZ       0.0000   YYYZ       0.0001
      XXZZ     -59.3381   XYZZ       0.0000   YYZZ     -59.3381
      XZZZ       0.0001   YZZZ      -0.0001   ZZZZ    -319.3294
 -----------------------------------------------------------------
 Total job time:  42.73s(wall), 24.06s(cpu) 
 Mon Nov 14 18:56:55 2011

        *************************************************************
        *                                                           *
        *  Thank you very much for using Q-Chem.  Have a nice day.  *
        *                                                           *
        *************************************************************


0 sent ACK to 0 
now end server 0 ... 
 
**********************************************************************
Job 3 of 3 
**********************************************************************
 
Process 0 of 1 is on cl209.stfx.acenet.ca - thread support 1
initial socket setup ...start
initial socket setup ...done 
now start server 0 ... 

cmd = /usr/bin/ssh clhead /usr/local/qchem/bin/get_hostid 1973326634 > /scratch/tmp/4825485.1.medium.q/qchem23155/lic.dat
                  Welcome to Q-Chem
     A Quantum Leap Into The Future Of Chemistry

 Y. Shao, L. Fusti-Molnar, Y. Jung, J. Kussmann, C. Ochsenfeld,
 S. T. Brown, A. T. B. Gilbert, L. V. Slipchenko,S. V. Levchenko,
 D. P. O'Neill, R. A. DiStasio Jr., R. C. Lochan, T. Wang,
 G. J. O. Beran, N. A. Besley, J. M. Herbert, C. Y. Lin,
 T. Van Voorhis, S. H. Chien, A. Sodt, R. P. Steele, 
 V. A. Rassolov, P. E. Maslen, P. P. Korambath, R. D. Adamson,
 B. Austin, J. Baker, E. F. C. Byrd, H. Dachsel, R. J. Doerksen,
 A. Dreuw, B. D. Dunietz, A. D. Dutoi, T. R. Furlani,
 S. R. Gwaltney, A. Heyden, S. Hirata, C.-P. Hsu, G. Kedziora,
 R. Z. Khaliullin, P. Klunzinger, A. M. Lee, M. S. Lee, W. Liang,
 I. Lotan, N. Nair, B. Peters, E. I. Proynov, P. A. Pieniazek, 
 Y. M. Rhee, J. Ritchie, E. Rosta, C. D. Sherrill, 
 A. C. Simmonett, J. E. Subotnik, H. L. Woodcock III,
 W. Zhang, A. T. Bell, A. K. Chakraborty, D. M. Chipman,
 F. J. Keil, A. Warshel, W. J. Hehre, H. F. Schaefer III,
 J. Kong, A. I. Krylov, P. M. W. Gill, M. Head-Gordon,
 Q-Chem, Version 3.1, Q-Chem, Inc., Pittsburgh, PA (2007).

 Additional authors for Version 3.1: 
 Z. Gan, Y. Zhao, N. E. Schultz, D. Truhlar, E. Epifanovsky and M. Oana.

 Additional authors for Version 3.2: 
 R. Baer, B. R. Brooks, D. Casanova, J.-D. Chai, C.-L. Cheng, 
 C. Cramer, D. Crittenden, A. Ghysels, G. Hawkins, E. G. Hohenstein, 
 C. Kelley, W. Kurlancheek, D. Liotard, E. Livshits, P. Manohar, 
 A. Marenich, D. Neuhauser, R. Olson, M. A. Rohrdanz, K. S. Thanthiriwatte, 
 A. J. W. Thom, V. Vanovschi, C. F. Williams, Q. Wu and Z.-Q. You. 


 Intel X86 Linux Version

 Q-chem begins on Mon Nov 14 18:57:01 2011  

 Parallel job on  1  processors
Processing $rem in /usr/local/qchem/config/preferences.

theFileMan(): MAXOPENFILES=974 MAX_SUB_FILE_NUM=16
Maximum size of a physical file is 2.0 GB, maximum size of a tmp-file is 32.0 GB


--------------------------------------------------------------
User input:
--------------------------------------------------------------

$molecule
1,2
P
P,1,PP

PP=1.90449329

$end

$comment
positive
$end

$xc_functional
   X HF 1.0
   X BNL 1.0
   C LYP 1.0
$end

$rem
SYMMETRY_DECOMPOSITION	0
exchange 		general
BASIS                   g3large
omega			1990
separate_jk		true
mem_static              760
max_scf_cycles          200
scf_final_print         1
sym_ignore              true
$end

--------------------------------------------------------------
 Writing REM_CC_EA            2
 ----------------------------------------------------
       Standard Nuclear Orientation (Angstroms)
    I     Atom         X            Y            Z
 ----------------------------------------------------
    1      P       0.000000     0.000000     0.000000
    2      P       0.000000     0.000000     1.904493
 ----------------------------------------------------
 Nuclear Repulsion Energy =    62.5178744683 hartrees
 There are       15 alpha and       14 beta electrons
 Requested basis set is G3large
 There are 38 shells and 132 basis functions

Total QAlloc Memory Limit   2000 MB
Mega-Array Size       743 MB
MEM_STATIC part       760 MB

                       Distance Matrix (Angstroms)
             P (  1)
   P (  2)  1.904493
 
 A cutoff of  1.0D-08 yielded    691 shell pairs
 There are   8636 function pairs ( 12433 Cartesian)
Evaluating contribution to one-electron hamiltonian from nuclear
 Smallest overlap matrix eigenvalue = 5.30E-04
 Multipole matrices computed through 2nd order

  Scale SEOQF with 1.000000e-01/1.000000e-01/1.000000e-01

 Standard Electronic Orientation quadrupole field applied
 Nucleus-field energy     =    -0.0000000058 hartrees
 Guess from superposition of atomic densities
 Warning:  Energy on first SCF cycle will be non-variational
 An unrestricted hybrid HF-DFT SCF calculation will be
 performed using Pulay DIIS extrapolation
 Exchange:     1.0000 Hartree-Fock + 1.0000 BNL
 Correlation:  1.0000 LYP
 Using SG-1 standard quadrature grid
 SCF converges when DIIS error is below 1.0E-05
 Warning!  Inaccurate integrated density:
   Number of electrons =    29
   Numerical integral  =    30.000000428379
   Relative error      =     3.4482773392 %
 ---------------------------------------
  Cycle       Energy         DIIS Error
 ---------------------------------------
    1    -680.9017658188      2.92E-02
    2    -680.4506174295      2.86E-03
    3    -680.4907690688      1.07E-03
    4    -680.4941346525      2.92E-04
    5    -680.4948713778      8.90E-05
    6    -680.4950789539      2.45E-05
    7    -680.4950958752      3.75E-06 Convergence criterion met
 ---------------------------------------
 One-Electron    Energy = -1058.9126846836
 Total Coulomb   Energy =   360.1443043254
 Alpha Exchange  Energy =   -10.3646379489
 Beta  Exchange  Energy =    -9.9663541472
 DFT   Exchange  Energy =   -22.7329485892
 DFT Correlation Energy =    -1.1806492943
 Nuclear Repu.   Energy =    62.5178744625
 Nuclear Attr.   Energy = -1737.3476580294
 Kinetic         Energy =   678.4349733458
 <S^2> = 0.7768
 SCF time:  CPU 33.33 s  wall 36.62 s
 Final Alpha MO Eigenvalues
            1           2           3           4           5           6
    1 -77.4230534 -77.4230370  -7.5470796  -7.5462421  -5.6162185  -5.6136822
            7           8           9          10          11          12
    1  -5.6067759  -5.6067758  -5.6065142  -5.6065141  -1.2289378  -0.9374950
           13          14          15          16          17          18
    1  -0.7586074  -0.6674685  -0.6674677  -0.2635472  -0.2635471  -0.1071782
           19          20
    1  -0.1014257  -0.0670826
 Final Beta MO Eigenvalues
            1           2           3           4           5           6
    1 -77.4198016 -77.4197806  -7.5439588  -7.5433792  -5.6049505  -5.6049505
            7           8           9          10          11          12
    1  -5.6047266  -5.6047265  -5.6003980  -5.5980277  -1.1657309  -0.8379398
           13          14          15          16          17          18
    1  -0.6634109  -0.6634107  -0.3776349  -0.2513726  -0.2513723  -0.0989311
           19
    1  -0.0973588
 Analysis of SCF Wavefunction
 
 --------------------------------------------------------------
                    Orbital Energies (a.u.)
 --------------------------------------------------------------
 
 Alpha MOs
 -- Occupied --
-77.423 -77.423  -7.547  -7.546  -5.616  -5.614  -5.607  -5.607
 -5.607  -5.607  -1.229  -0.937  -0.759  -0.667  -0.667
 -- Virtual --
 -0.264  -0.264  -0.107  -0.101  -0.067  -0.067  -0.058  -0.036
 -0.021  -0.021   0.014   0.014   0.026   0.048   0.048   0.107
  0.157   0.162   0.162   0.218   0.218   0.220   0.244   0.244
  0.334   0.334   0.429   0.464   0.547   0.547   0.580   0.580
  0.606   0.606   0.697   0.706   0.706   0.744   0.802   0.802
  0.804   0.804   0.838   0.839   0.869   0.924   0.924   0.995
  1.030   1.030   1.083   1.083   1.239   1.346   1.346   1.603
  1.603   1.736   1.811   2.678   2.695   2.695   2.838   2.838
  2.851   2.851   2.891   2.891   2.967   2.967   3.186   3.186
  3.275   4.000   4.000   4.013   4.016   4.066   4.069   4.097
  4.347   4.347   4.981   6.997   7.186  13.134  13.134  13.267
 13.267  13.339  13.526  21.590  21.613  21.630  21.703  21.703
 21.709  21.732  21.853  21.853  22.048  28.543  28.558  28.558
 28.569  28.569  28.570  28.570  28.573  28.574  28.582  28.583
 28.601  28.601  28.639 164.423 164.489
 
 Beta MOs
 -- Occupied --
-77.420 -77.420  -7.544  -7.543  -5.605  -5.605  -5.605  -5.605
 -5.600  -5.598  -1.166  -0.838  -0.663  -0.663
 -- Virtual --
 -0.378  -0.251  -0.251  -0.099  -0.097  -0.066  -0.066  -0.053
 -0.023  -0.023  -0.008   0.013   0.013   0.028   0.073   0.073
  0.129   0.163   0.163   0.175   0.222   0.222   0.233   0.243
  0.243   0.339   0.339   0.436   0.469   0.546   0.546   0.582
  0.582   0.620   0.620   0.706   0.706   0.717   0.757   0.807
  0.807   0.816   0.816   0.839   0.839   0.875   0.924   0.925
  1.013   1.040   1.040   1.084   1.084   1.263   1.346   1.346
  1.604   1.604   1.745   1.818   2.695   2.709   2.709   2.845
  2.845   2.851   2.851   2.891   2.891   2.973   2.973   3.195
  3.195   3.286   4.004   4.004   4.013   4.016   4.066   4.069
  4.103   4.349   4.349   4.984   7.002   7.192  13.135  13.135
 13.269  13.269  13.353  13.539  21.592  21.615  21.639  21.709
 21.709  21.711  21.734  21.859  21.859  22.057  28.547  28.560
 28.560  28.570  28.570  28.571  28.571  28.575  28.576  28.584
 28.585  28.604  28.604  28.643 164.426 164.492
 --------------------------------------------------------------
 
          Ground-State Mulliken Net Atomic Charges

     Atom                 Charge (a.u.)    Spin (a.u.)
  --------------------------------------------------------
      1 P                     0.500000       0.499966
      2 P                     0.500000       0.500034
  --------------------------------------------------------
  Sum of atomic charges =     1.000000
  Sum of spin   charges =     1.000000

 -----------------------------------------------------------------
                    Cartesian Multipole Moments
 -----------------------------------------------------------------
    Charge (ESU x 10^10)
                 4.8032
    Dipole Moment (Debye)
         X       0.0000      Y       0.0000      Z       4.5739
       Tot       4.5739
    Quadrupole Moments (Debye-Ang)
        XX     -22.5041     XY       0.0000     YY     -22.5041
        XZ       0.0000     YZ       0.0000     ZZ      -6.1048
    Octapole Moments (Debye-Ang^2)
       XXX       0.0000    XXY       0.0000    XYY       0.0000
       YYY      -0.0001    XXZ     -21.4295    XYZ       0.0000
       YYZ     -21.4295    XZZ      -0.0001    YZZ      -0.0003
       ZZZ     -25.7346
    Hexadecapole Moments (Debye-Ang^3)
      XXXX     -31.0806   XXXY       0.0000   XXYY     -10.3602
      XYYY       0.0000   YYYY     -31.0806   XXXZ       0.0000
      XXYZ       0.0000   XYYZ       0.0000   YYYZ      -0.0001
      XXZZ     -45.6897   XYZZ       0.0000   YYZZ     -45.6897
      XZZZ      -0.0003   YZZZ      -0.0007   ZZZZ    -167.6458
 -----------------------------------------------------------------
 Total job time:  36.79s(wall), 33.48s(cpu) 
 Mon Nov 14 18:57:38 2011

        *************************************************************
        *                                                           *
        *  Thank you very much for using Q-Chem.  Have a nice day.  *
        *                                                           *
        *************************************************************


0 sent ACK to 0 
now end server 0 ... 
