Process 0 of 1 is on cl247.stfx.acenet.ca - thread support 1
initial socket setup ...start
initial socket setup ...done 
now start server 0 ... 

cmd = /usr/bin/ssh clhead /usr/local/qchem/bin/get_hostid 2001394256 > /scratch/tmp/4506591.1.long.q/qchem23608/lic.dat
                  Welcome to Q-Chem
     A Quantum Leap Into The Future Of Chemistry

 Y. Shao, L. Fusti-Molnar, Y. Jung, J. Kussmann, C. Ochsenfeld,
 S. T. Brown, A. T. B. Gilbert, L. V. Slipchenko,S. V. Levchenko,
 D. P. O'Neill, R. A. DiStasio Jr., R. C. Lochan, T. Wang,
 G. J. O. Beran, N. A. Besley, J. M. Herbert, C. Y. Lin,
 T. Van Voorhis, S. H. Chien, A. Sodt, R. P. Steele, 
 V. A. Rassolov, P. E. Maslen, P. P. Korambath, R. D. Adamson,
 B. Austin, J. Baker, E. F. C. Byrd, H. Dachsel, R. J. Doerksen,
 A. Dreuw, B. D. Dunietz, A. D. Dutoi, T. R. Furlani,
 S. R. Gwaltney, A. Heyden, S. Hirata, C.-P. Hsu, G. Kedziora,
 R. Z. Khaliullin, P. Klunzinger, A. M. Lee, M. S. Lee, W. Liang,
 I. Lotan, N. Nair, B. Peters, E. I. Proynov, P. A. Pieniazek, 
 Y. M. Rhee, J. Ritchie, E. Rosta, C. D. Sherrill, 
 A. C. Simmonett, J. E. Subotnik, H. L. Woodcock III,
 W. Zhang, A. T. Bell, A. K. Chakraborty, D. M. Chipman,
 F. J. Keil, A. Warshel, W. J. Hehre, H. F. Schaefer III,
 J. Kong, A. I. Krylov, P. M. W. Gill, M. Head-Gordon,
 Q-Chem, Version 3.1, Q-Chem, Inc., Pittsburgh, PA (2007).

 Additional authors for Version 3.1: 
 Z. Gan, Y. Zhao, N. E. Schultz, D. Truhlar, E. Epifanovsky and M. Oana.

 Additional authors for Version 3.2: 
 R. Baer, B. R. Brooks, D. Casanova, J.-D. Chai, C.-L. Cheng, 
 C. Cramer, D. Crittenden, A. Ghysels, G. Hawkins, E. G. Hohenstein, 
 C. Kelley, W. Kurlancheek, D. Liotard, E. Livshits, P. Manohar, 
 A. Marenich, D. Neuhauser, R. Olson, M. A. Rohrdanz, K. S. Thanthiriwatte, 
 A. J. W. Thom, V. Vanovschi, C. F. Williams, Q. Wu and Z.-Q. You. 


 Intel X86 Linux Version

 Q-chem begins on Thu Apr 21 23:22:45 2011  

 Parallel job on  1  processors
Processing $rem in /usr/local/qchem/config/preferences.

theFileMan(): MAXOPENFILES=974 MAX_SUB_FILE_NUM=16
Maximum size of a physical file is 2.0 GB, maximum size of a tmp-file is 32.0 GB


--------------------------------------------------------------
User input:
--------------------------------------------------------------

$molecule
0,3
O
S,1,OS

OS=1.51776141

$end

$comment
neutral
$end

$xc_functional
   X HF 1.0
   X BNL 1.0
   C LYP 1.0
$end

$rem
SYMMETRY_DECOMPOSITION	0
exchange 		general
BASIS                   g3large
omega			530 
JOBTYPE                 opt
separate_jk		true
mem_static              760
max_scf_cycles          200
scf_final_print         1
sym_ignore              true
$end


--------------------------------------------------------------
 Writing REM_CC_EA            2
 ----------------------------------------------------
       Standard Nuclear Orientation (Angstroms)
    I     Atom         X            Y            Z
 ----------------------------------------------------
    1      O       0.000000     0.000000     0.000000
    2      S       0.000000     0.000000     1.517761
 ----------------------------------------------------
 Nuclear Repulsion Energy =    44.6280176424 hartrees
 There are       13 alpha and       11 beta electrons
 Requested basis set is G3large
 There are 29 shells and 108 basis functions

Total QAlloc Memory Limit   2000 MB
Mega-Array Size       743 MB
MEM_STATIC part       760 MB
 A cutoff of  1.0D-11 yielded    421 shell pairs
 There are   5942 function pairs (  8261 Cartesian)
Evaluating contribution to one-electron hamiltonian from nuclear
 Smallest overlap matrix eigenvalue = 1.93E-03
 Multipole matrices computed through 2nd order

  Scale SEOQF with 1.000000e-01/1.000000e-01/1.000000e-01

 Standard Electronic Orientation quadrupole field applied
 Nucleus-field energy     =    -0.0000000039 hartrees
 Guess from superposition of atomic densities
 Warning:  Energy on first SCF cycle will be non-variational
 An unrestricted hybrid HF-DFT SCF calculation will be
 performed using Pulay DIIS extrapolation
 Exchange:     1.0000 Hartree-Fock + 1.0000 BNL
 Correlation:  1.0000 LYP
 Using SG-1 standard quadrature grid
 SCF converges when DIIS error is below 1.0E-08
 ---------------------------------------
  Cycle       Energy         DIIS Error
 ---------------------------------------
    1    -471.1359438564      3.75E-02
    2    -471.0480678064      5.30E-03
    3    -471.0543613793      6.04E-03
    4    -471.0956151103      1.11E-03
    5    -471.0980963174      2.78E-04
    6    -471.0992234831      1.46E-04
    7    -471.0996815049      8.87E-05
    8    -471.0999622721      4.12E-05
    9    -471.1000317102      1.48E-05
   10    -471.1000386234      5.71E-06
   11    -471.1000395717      2.39E-06
   12    -471.1000397531      4.15E-07
   13    -471.1000397577      1.62E-07
   14    -471.1000397582      5.14E-08
   15    -471.1000397584      1.66E-08
   16    -471.1000397584      7.24E-09 Convergence criterion met
 ---------------------------------------
 One-Electron    Energy =  -741.1701669105
 Total Coulomb   Energy =   257.2670402650
 Alpha Exchange  Energy =    -3.4134572383
 Beta  Exchange  Energy =    -2.8888010507
 DFT   Exchange  Energy =   -24.5831907395
 DFT Correlation Energy =    -0.9394817229
 Nuclear Repu.   Energy =    44.6280176384
 Nuclear Attr.   Energy = -1211.1732582721
 Kinetic         Energy =   470.0030913616
 <S^2> = 2.0165
 SCF time:  CPU 48.04 s  wall 48.77 s
 Final Alpha MO Eigenvalues
            1           2           3           4           5           6
    1 -88.0780782 -18.9290229  -8.0186014  -6.0597485  -6.0597485  -6.0594475
            7           8           9          10          11          12
    1  -1.2580676  -0.8703657  -0.6139293  -0.6139293  -0.6032228  -0.4095109
           13          14          15          16          17          18
    1  -0.4095109   0.0531536   0.0584282   0.0913572   0.0913572   0.1628938
 Final Beta MO Eigenvalues
            1           2           3           4           5           6
    1 -88.0703313 -18.9059947  -8.0103707  -6.0545129  -6.0470541  -6.0470541
            7           8           9          10          11          12
    1  -1.2192751  -0.7815157  -0.5655958  -0.5221648  -0.5221647  -0.0354204
           13          14          15          16
    1  -0.0354204   0.0553424   0.0593851   0.0945659
 Analysis of SCF Wavefunction
 
 --------------------------------------------------------------
                    Orbital Energies (a.u.)
 --------------------------------------------------------------
 
 Alpha MOs
 -- Occupied --
-88.078 -18.929  -8.019  -6.060  -6.060  -6.059  -1.258  -0.870
 -0.614  -0.614  -0.603  -0.410  -0.410
 -- Virtual --
  0.053   0.058   0.091   0.091   0.163   0.239   0.259   0.259
  0.282   0.282   0.320   0.389   0.389   0.450   0.469   0.469
  0.580   0.923   0.923   0.962   0.962   0.991   1.034   1.034
  1.037   1.037   1.058   1.116   1.132   1.132   1.181   1.181
  1.393   1.631   1.764   1.764   1.811   1.811   2.172   2.172
  2.174   2.646   3.503   3.503   3.522   3.522   3.528   3.528
  3.637   4.554   4.557   4.584   4.584   4.698   4.959   4.959
  5.143   5.143   5.192   5.192   5.396   5.652   5.652   6.234
  6.861   6.861   7.208   7.208   7.451   8.741  17.034  17.034
 17.491  23.437  23.549  23.632  23.632  23.805  30.931  30.931
 30.937  30.937  30.957  30.957  31.009  43.642  43.726  43.840
 43.840  43.864  45.690  45.690  46.119  50.030 189.558
 
 Beta MOs
 -- Occupied --
-88.070 -18.906  -8.010  -6.055  -6.047  -6.047  -1.219  -0.782
 -0.566  -0.522  -0.522
 -- Virtual --
 -0.035  -0.035   0.055   0.059   0.095   0.095   0.180   0.241
  0.269   0.269   0.321   0.321   0.322   0.417   0.417   0.457
  0.491   0.491   0.595   0.938   0.938   0.983   0.983   0.997
  1.057   1.057   1.076   1.081   1.082   1.131   1.150   1.150
  1.207   1.207   1.413   1.654   1.803   1.803   1.842   1.842
  2.183   2.194   2.194   2.667   3.531   3.531   3.559   3.559
  3.584   3.584   3.661   4.578   4.581   4.599   4.599   4.717
  5.010   5.010   5.192   5.192   5.227   5.227   5.423   5.681
  5.681   6.260   6.936   6.936   7.256   7.256   7.486   8.758
 17.051  17.051  17.496  23.453  23.565  23.642  23.642  23.813
 30.939  30.939  30.942  30.943  30.961  30.961  31.013  43.700
 43.784  43.881  43.881  43.898  45.720  45.720  46.136  50.057
189.567
 --------------------------------------------------------------
 
          Ground-State Mulliken Net Atomic Charges

     Atom                 Charge (a.u.)    Spin (a.u.)
  --------------------------------------------------------
      1 O                    -0.341730       0.688849
      2 S                     0.341730       1.311151
  --------------------------------------------------------
  Sum of atomic charges =     0.000000
  Sum of spin   charges =     2.000000

 -----------------------------------------------------------------
                    Cartesian Multipole Moments
 -----------------------------------------------------------------
    Charge (ESU x 10^10)
                 0.0000
    Dipole Moment (Debye)
         X       0.0000      Y       0.0000      Z       1.9963
       Tot       1.9963
    Quadrupole Moments (Debye-Ang)
        XX     -17.7105     XY       0.0000     YY     -17.7105
        XZ       0.0000     YZ       0.0000     ZZ     -14.6682
    Octapole Moments (Debye-Ang^2)
       XXX       0.0000    XXY       0.0000    XYY       0.0000
       YYY       0.0000    XXZ     -18.7066    XYZ       0.0000
       YYZ     -18.7066    XZZ       0.0000    YZZ       0.0000
       ZZZ     -49.2628
    Hexadecapole Moments (Debye-Ang^3)
      XXXX     -20.0639   XXXY       0.0000   XXYY      -6.6877
      XYYY       0.0000   YYYY     -20.0639   XXXZ       0.0000
      XXYZ       0.0000   XYYZ       0.0000   YYYZ       0.0000
      XXZZ     -35.5457   XYZZ       0.0000   YYZZ     -35.5457
      XZZZ       0.0000   YZZZ       0.0000   ZZZZ    -172.4350
 -----------------------------------------------------------------
 Calculating analytic gradient of the SCF energy
 Gradient of AOints
            1           2
    1  -0.0000007   0.0000007
    2   0.0000006  -0.0000006
    3  18.3246929 -18.3246929
 Gradient of XC Energy
            1           2
    1   0.0000000  -0.0000000
    2  -0.0000000   0.0000000
    3  -0.3179294   0.3179294
 Gradient of SCF Energy
            1           2
    1   0.0000000  -0.0000000
    2  -0.0000000   0.0000000
    3  -0.0727724   0.0727724
 Max gradient component =       7.277E-02
 RMS gradient           =       4.202E-02
 Gradient time:  CPU 13.07 s  wall 13.21 s
 Geometry Optimization Parameters
   NAtoms,    NIC,     NZ,  NCons,   NDum,   NFix, NCnnct, MaxDiis
        2       5       2       0       0       0       0       0


** GEOMETRY OPTIMIZATION IN DELOCALIZED INTERNAL COORDINATES **
   Searching for a Minimum

   Optimization Cycle:   1

                       Coordinates (Angstroms)
     ATOM              X           Y           Z
    1  O           0.000000    0.000000    0.000000
    2  S           0.000000    0.000000    1.517761
   Point Group: c1    Number of degrees of freedom:   0


   Energy is   -471.100039758


 Attempting to Generate Delocalized Internal Coordinates

  ***ERROR*** Wrong Number of Internal Coordinates
              Should be:   0  Found:   1
**WARNING** Problems with Internal Coordinates
  Switching to Cartesian Coordinates

 Translations and Rotations Projected Out of Hessian

  1 Hessian modes will be used to form the next step
  Hessian Eigenvalues:
     1.000000

 Minimum Search - Taking Simple RFO Step
 Searching for Lamda that Minimizes Along All modes
 Value Taken    Lamda =  -0.01048178
 Step Taken.  Stepsize is  0.101848

                             Maximum     Tolerance    Cnvgd?
         Gradient           0.072772      0.000300      NO
         Displacement       0.072017      0.001200      NO
         Energy change     *********      0.000001      NO

 Writing REM_CC_EA            2
 ----------------------------------------------------
       Standard Nuclear Orientation (Angstroms)
    I     Atom         X            Y            Z
 ----------------------------------------------------
    1      O       0.000000     0.000000     0.038110
    2      S       0.000000     0.000000     1.479651
 ----------------------------------------------------
 Nuclear Repulsion Energy =    46.9876788347 hartrees
 There are       13 alpha and       11 beta electrons
 Applying Cartesian multipole field
    Component          Value
    ---------          -----
     (2,0,0)        1.00000E-11
     (0,2,0)        2.00000E-11
     (0,0,2)       -3.00000E-11
 Nucleus-field energy     =    -0.0000000038 hartrees
 Requested basis set is G3large
 There are 29 shells and 108 basis functions
 A cutoff of  1.0D-11 yielded    424 shell pairs
 There are   5949 function pairs (  8269 Cartesian)
Evaluating contribution to one-electron hamiltonian from nuclear
 Smallest overlap matrix eigenvalue = 1.58E-03
 Multipole matrices computed through 2nd order
 Guess MOs from SCF MO coefficient file
Reading MOs from coefficient file
Reading MOs from coefficient file
 An unrestricted hybrid HF-DFT SCF calculation will be
 performed using Pulay DIIS extrapolation
 Exchange:     1.0000 Hartree-Fock + 1.0000 BNL
 Correlation:  1.0000 LYP
 Using SG-1 standard quadrature grid
 SCF converges when DIIS error is below 1.0E-08
 Warning!  Inaccurate integrated density:
   Number of electrons =    24
   Numerical integral  =    24.032597803113
   Relative error      =     0.1358241796 %
 ---------------------------------------
  Cycle       Energy         DIIS Error
 ---------------------------------------
    1    -471.1880972301      4.92E-03
    2    -471.1042275447      7.11E-04
    3    -471.1048015176      3.52E-04
    4    -471.1048953148      1.08E-04
    5    -471.1049118614      6.65E-05
    6    -471.1049197711      1.09E-05
    7    -471.1049210202      5.87E-06
    8    -471.1049213637      3.14E-06
    9    -471.1049214396      7.72E-07
   10    -471.1049214445      1.04E-07
   11    -471.1049214450      2.81E-08
   12    -471.1049214451      2.94E-09 Convergence criterion met
 ---------------------------------------
 One-Electron    Energy =  -745.8400912695
 Total Coulomb   Energy =   259.6369846916
 Alpha Exchange  Energy =    -3.4163339075
 Beta  Exchange  Energy =    -2.9009317053
 DFT   Exchange  Energy =   -24.6301244295
 DFT Correlation Energy =    -0.9421036559
 Nuclear Repu.   Energy =    46.9876788310
 Nuclear Attr.   Energy = -1216.0787415278
 Kinetic         Energy =   470.2386502583
 <S^2> = 2.0142
 SCF time:  CPU 36.16 s  wall 36.91 s
 Final Alpha MO Eigenvalues
            1           2           3           4           5           6
    1 -88.0693617 -18.9206781  -8.0120977  -6.0530949  -6.0530949  -6.0524903
            7           8           9          10          11          12
    1  -1.2902852  -0.8576527  -0.6313003  -0.6313003  -0.6120152  -0.3962229
           13          14          15          16          17          18
    1  -0.3962229   0.0582680   0.0601392   0.0917999   0.0917999   0.1750652
 Final Beta MO Eigenvalues
            1           2           3           4           5           6
    1 -88.0616901 -18.8989436  -8.0038908  -6.0475263  -6.0404780  -6.0404780
            7           8           9          10          11          12
    1  -1.2552904  -0.7688846  -0.5727729  -0.5466245  -0.5466245  -0.0230186
           13          14          15          16
    1  -0.0230186   0.0557705   0.0631362   0.0954257
 Analysis of SCF Wavefunction
 
 --------------------------------------------------------------
                    Orbital Energies (a.u.)
 --------------------------------------------------------------
 
 Alpha MOs
 -- Occupied --
-88.069 -18.921  -8.012  -6.053  -6.053  -6.052  -1.290  -0.858
 -0.631  -0.631  -0.612  -0.396  -0.396
 -- Virtual --
  0.058   0.060   0.092   0.092   0.175   0.244   0.259   0.259
  0.282   0.282   0.319   0.401   0.401   0.452   0.471   0.471
  0.624   0.920   0.920   0.962   0.962   0.991   1.039   1.039
  1.044   1.044   1.083   1.108   1.130   1.130   1.185   1.185
  1.421   1.651   1.787   1.787   1.823   1.823   2.190   2.208
  2.208   2.712   3.508   3.508   3.519   3.519   3.530   3.530
  3.671   4.552   4.555   4.631   4.631   4.714   4.973   4.973
  5.137   5.137   5.219   5.219   5.537   5.811   5.811   6.384
  6.878   6.878   7.260   7.260   7.484   8.838  17.046  17.046
 17.679  23.444  23.557  23.660  23.660  23.824  30.938  30.938
 30.944  30.945  30.978  30.978  31.036  43.656  43.740  43.862
 43.862  43.866  45.708  45.708  46.347  50.041 189.678
 
 Beta MOs
 -- Occupied --
-88.062 -18.899  -8.004  -6.048  -6.040  -6.040  -1.255  -0.769
 -0.573  -0.547  -0.547
 -- Virtual --
 -0.023  -0.023   0.056   0.063   0.095   0.095   0.191   0.246
  0.267   0.267   0.321   0.321   0.321   0.430   0.430   0.460
  0.493   0.493   0.638   0.936   0.936   0.983   0.983   0.996
  1.067   1.067   1.083   1.083   1.102   1.123   1.149   1.149
  1.210   1.210   1.442   1.674   1.824   1.824   1.853   1.853
  2.200   2.230   2.230   2.732   3.544   3.544   3.547   3.547
  3.586   3.586   3.696   4.576   4.579   4.647   4.647   4.734
  5.022   5.022   5.183   5.183   5.251   5.252   5.561   5.839
  5.839   6.409   6.948   6.948   7.305   7.305   7.517   8.854
 17.063  17.063  17.684  23.461  23.573  23.670  23.670  23.833
 30.945  30.945  30.950  30.950  30.983  30.983  31.040  43.710
 43.795  43.898  43.900  43.900  45.737  45.737  46.363  50.067
189.687
 --------------------------------------------------------------
 
          Ground-State Mulliken Net Atomic Charges

     Atom                 Charge (a.u.)    Spin (a.u.)
  --------------------------------------------------------
      1 O                    -0.338618       0.636318
      2 S                     0.338618       1.363682
  --------------------------------------------------------
  Sum of atomic charges =     0.000000
  Sum of spin   charges =     2.000000

 -----------------------------------------------------------------
                    Cartesian Multipole Moments
 -----------------------------------------------------------------
    Charge (ESU x 10^10)
                 0.0000
    Dipole Moment (Debye)
         X       0.0000      Y       0.0000      Z       1.7726
       Tot       1.7726
    Quadrupole Moments (Debye-Ang)
        XX     -17.5710     XY       0.0000     YY     -17.5710
        XZ       0.0000     YZ       0.0000     ZZ     -15.2398
    Octapole Moments (Debye-Ang^2)
       XXX       0.0000    XXY       0.0000    XYY       0.0000
       YYY       0.0000    XXZ     -18.5531    XYZ       0.0000
       YYZ     -18.5531    XZZ       0.0000    YZZ       0.0000
       ZZZ     -50.0459
    Hexadecapole Moments (Debye-Ang^3)
      XXXX     -19.8649   XXXY       0.0000   XXYY      -6.6215
      XYYY       0.0000   YYYY     -19.8649   XXXZ       0.0000
      XXYZ       0.0000   XYYZ       0.0000   YYYZ       0.0000
      XXZZ     -34.5323   XYZZ       0.0000   YYZZ     -34.5323
      XZZZ       0.0000   YZZZ       0.0000   ZZZZ    -168.3577
 -----------------------------------------------------------------
 Calculating analytic gradient of the SCF energy
 Gradient of AOints
            1           2
    1   0.0000000  -0.0000000
    2  -0.0000000   0.0000000
    3  19.4050974 -19.4050974
 Gradient of XC Energy
            1           2
    1  -0.0000000   0.0000000
    2  -0.0000000   0.0000000
    3  -0.3499411   0.3499411
 Gradient of SCF Energy
            1           2
    1  -0.0000000   0.0000000
    2  -0.0000000   0.0000000
    3   0.0111805  -0.0111805
 Max gradient component =       1.118E-02
 RMS gradient           =       6.455E-03
 Gradient time:  CPU 13.65 s  wall 13.71 s
 Geometry Optimization Parameters
   NAtoms,    NIC,     NZ,  NCons,   NDum,   NFix, NCnnct, MaxDiis
        2       5       2       0       0       0       0       0

 Cartesian Hessian Update
 Hessian Updated using BFGS Update


** GEOMETRY OPTIMIZATION IN CARTESIAN COORDINATES **
   Searching for a Minimum

   Optimization Cycle:   2

                       Coordinates (Angstroms)
     ATOM              X           Y           Z
    1  O           0.000000    0.000000    0.038110
    2  S           0.000000    0.000000    1.479651
   Point Group: c1    Number of degrees of freedom:   0


   Energy is   -471.104921445


 Translations and Rotations Projected Out of Hessian

  1 Hessian modes will be used to form the next step
  Hessian Eigenvalues:
     1.165728

 Minimum Search - Taking Simple RFO Step
 Searching for Lamda that Minimizes Along All modes
 Value Taken    Lamda =  -0.00021446
 Step Taken.  Stepsize is  0.013561

                             Maximum     Tolerance    Cnvgd?
         Gradient           0.011180      0.000300      NO
         Displacement       0.009589      0.001200      NO
         Energy change     -0.004882      0.000001      NO

 Writing REM_CC_EA            2
 ----------------------------------------------------
       Standard Nuclear Orientation (Angstroms)
    I     Atom         X            Y            Z
 ----------------------------------------------------
    1      O       0.000000     0.000000     0.033036
    2      S       0.000000     0.000000     1.484726
 ----------------------------------------------------
 Nuclear Repulsion Energy =    46.6591872323 hartrees
 There are       13 alpha and       11 beta electrons
 Applying Cartesian multipole field
    Component          Value
    ---------          -----
     (2,0,0)        1.00000E-11
     (0,2,0)        2.00000E-11
     (0,0,2)       -3.00000E-11
 Nucleus-field energy     =    -0.0000000038 hartrees
 Requested basis set is G3large
 There are 29 shells and 108 basis functions
 A cutoff of  1.0D-11 yielded    424 shell pairs
 There are   5949 function pairs (  8269 Cartesian)
Evaluating contribution to one-electron hamiltonian from nuclear
 Smallest overlap matrix eigenvalue = 1.62E-03
 Multipole matrices computed through 2nd order
 Guess MOs from SCF MO coefficient file
Reading MOs from coefficient file
Reading MOs from coefficient file
 An unrestricted hybrid HF-DFT SCF calculation will be
 performed using Pulay DIIS extrapolation
 Exchange:     1.0000 Hartree-Fock + 1.0000 BNL
 Correlation:  1.0000 LYP
 Using SG-1 standard quadrature grid
 SCF converges when DIIS error is below 1.0E-08
 ---------------------------------------
  Cycle       Energy         DIIS Error
 ---------------------------------------
    1    -471.0952922153      6.89E-04
    2    -471.1049922800      9.70E-05
    3    -471.1050026890      5.14E-05
    4    -471.1050046499      1.81E-05
    5    -471.1050050865      9.09E-06
    6    -471.1050052460      1.59E-06
    7    -471.1050052721      8.39E-07
    8    -471.1050052790      4.53E-07
    9    -471.1050052799      1.12E-07
   10    -471.1050052797      1.50E-08
   11    -471.1050052797      3.79E-09 Convergence criterion met
 ---------------------------------------
 One-Electron    Energy =  -745.1920836747
 Total Coulomb   Energy =   259.3082887497
 Alpha Exchange  Energy =    -3.4159613636
 Beta  Exchange  Energy =    -2.8993093257
 DFT   Exchange  Energy =   -24.6233830356
 DFT Correlation Energy =    -0.9417438584
 Nuclear Repu.   Energy =    46.6591872286
 Nuclear Attr.   Energy = -1215.3953007965
 Kinetic         Energy =   470.2032171218
 <S^2> = 2.0145
 SCF time:  CPU 32.87 s  wall 33.62 s
 Final Alpha MO Eigenvalues
            1           2           3           4           5           6
    1 -88.0706110 -18.9217894  -8.0130025  -6.0540320  -6.0540320  -6.0534489
            7           8           9          10          11          12
    1  -1.2857490  -0.8593899  -0.6287943  -0.6287943  -0.6108405  -0.3980435
           13          14          15          16          17          18
    1  -0.3980435   0.0581097   0.0594843   0.0917340   0.0917340   0.1736322
 Final Beta MO Eigenvalues
            1           2           3           4           5           6
    1 -88.0629257 -18.8998758  -8.0047900  -6.0484873  -6.0414005  -6.0414005
            7           8           9          10          11          12
    1  -1.2502588  -0.7705793  -0.5718305  -0.5431616  -0.5431616  -0.0246778
           13          14          15          16
    1  -0.0246778   0.0557497   0.0626622   0.0952812
 Analysis of SCF Wavefunction
 
 --------------------------------------------------------------
                    Orbital Energies (a.u.)
 --------------------------------------------------------------
 
 Alpha MOs
 -- Occupied --
-88.071 -18.922  -8.013  -6.054  -6.054  -6.053  -1.286  -0.859
 -0.629  -0.629  -0.611  -0.398  -0.398
 -- Virtual --
  0.058   0.059   0.092   0.092   0.174   0.243   0.259   0.259
  0.282   0.282   0.319   0.399   0.399   0.452   0.471   0.471
  0.618   0.921   0.921   0.962   0.962   0.991   1.038   1.039
  1.043   1.043   1.079   1.109   1.131   1.131   1.184   1.184
  1.417   1.648   1.784   1.784   1.821   1.821   2.189   2.203
  2.203   2.704   3.510   3.510   3.516   3.516   3.530   3.530
  3.665   4.553   4.555   4.624   4.624   4.713   4.971   4.971
  5.138   5.138   5.214   5.215   5.516   5.789   5.789   6.366
  6.875   6.876   7.253   7.253   7.477   8.828  17.044  17.044
 17.652  23.443  23.556  23.657  23.657  23.822  30.937  30.937
 30.943  30.944  30.975  30.975  31.032  43.654  43.738  43.860
 43.860  43.865  45.705  45.705  46.314  50.038 189.662
 
 Beta MOs
 -- Occupied --
-88.063 -18.900  -8.005  -6.048  -6.041  -6.041  -1.250  -0.771
 -0.572  -0.543  -0.543
 -- Virtual --
 -0.025  -0.025   0.056   0.063   0.095   0.095   0.190   0.245
  0.268   0.268   0.321   0.321   0.321   0.428   0.428   0.459
  0.493   0.493   0.632   0.937   0.937   0.983   0.983   0.997
  1.066   1.066   1.082   1.082   1.098   1.124   1.149   1.149
  1.209   1.209   1.438   1.670   1.821   1.821   1.852   1.852
  2.198   2.225   2.225   2.724   3.544   3.544   3.547   3.547
  3.586   3.586   3.690   4.577   4.579   4.640   4.640   4.733
  5.020   5.020   5.184   5.184   5.247   5.247   5.541   5.817
  5.817   6.391   6.946   6.947   7.299   7.299   7.511   8.845
 17.061  17.061  17.657  23.460  23.571  23.667  23.667  23.831
 30.944  30.944  30.949  30.949  30.979  30.979  31.036  43.709
 43.793  43.898  43.898  43.898  45.734  45.734  46.330  50.065
189.671
 --------------------------------------------------------------
 
          Ground-State Mulliken Net Atomic Charges

     Atom                 Charge (a.u.)    Spin (a.u.)
  --------------------------------------------------------
      1 O                    -0.339612       0.643669
      2 S                     0.339612       1.356331
  --------------------------------------------------------
  Sum of atomic charges =     0.000000
  Sum of spin   charges =     2.000000

 -----------------------------------------------------------------
                    Cartesian Multipole Moments
 -----------------------------------------------------------------
    Charge (ESU x 10^10)
                 0.0000
    Dipole Moment (Debye)
         X       0.0000      Y       0.0000      Z       1.8054
       Tot       1.8054
    Quadrupole Moments (Debye-Ang)
        XX     -17.5890     XY       0.0000     YY     -17.5890
        XZ       0.0000     YZ       0.0000     ZZ     -15.1593
    Octapole Moments (Debye-Ang^2)
       XXX       0.0000    XXY       0.0000    XYY       0.0000
       YYY       0.0000    XXZ     -18.5700    XYZ       0.0000
       YYZ     -18.5700    XZZ       0.0000    YZZ       0.0000
       ZZZ     -49.9318
    Hexadecapole Moments (Debye-Ang^3)
      XXXX     -19.8860   XXXY       0.0000   XXYY      -6.6285
      XYYY       0.0000   YYYY     -19.8860   XXXZ       0.0000
      XXYZ       0.0000   XYYZ       0.0000   YYYZ       0.0000
      XXZZ     -34.6565   XYZZ       0.0000   YYZZ     -34.6565
      XZZZ       0.0000   YZZZ       0.0000   ZZZZ    -168.8623
 -----------------------------------------------------------------
 Calculating analytic gradient of the SCF energy
 Gradient of AOints
            1           2
    1  -0.0000000   0.0000000
    2  -0.0000001   0.0000001
    3  19.2634729 -19.2634729
 Gradient of XC Energy
            1           2
    1   0.0000000  -0.0000000
    2   0.0000000  -0.0000000
    3  -0.3457225   0.3457225
 Gradient of SCF Energy
            1           2
    1  -0.0000000   0.0000000
    2   0.0000000  -0.0000000
    3  -0.0022982   0.0022982
 Max gradient component =       2.298E-03
 RMS gradient           =       1.327E-03
 Gradient time:  CPU 13.25 s  wall 13.34 s
 Geometry Optimization Parameters
   NAtoms,    NIC,     NZ,  NCons,   NDum,   NFix, NCnnct, MaxDiis
        2       5       2       0       0       0       0       0

 Cartesian Hessian Update
 Hessian Updated using BFGS Update


** GEOMETRY OPTIMIZATION IN CARTESIAN COORDINATES **
   Searching for a Minimum

   Optimization Cycle:   3

                       Coordinates (Angstroms)
     ATOM              X           Y           Z
    1  O           0.000000    0.000000    0.033036
    2  S           0.000000    0.000000    1.484726
   Point Group: c1    Number of degrees of freedom:   0


   Energy is   -471.105005280


 Translations and Rotations Projected Out of Hessian

  1 Hessian modes will be used to form the next step
  Hessian Eigenvalues:
     1.405604

 Minimum Search - Taking Simple RFO Step
 Searching for Lamda that Minimizes Along All modes
 Value Taken    Lamda =  -0.00000751
 Step Taken.  Stepsize is  0.002312

                             Maximum     Tolerance    Cnvgd?
         Gradient           0.002298      0.000300      NO
         Displacement       0.001635      0.001200      NO
         Energy change     -0.000084      0.000001      NO

 Writing REM_CC_EA            2
 ----------------------------------------------------
       Standard Nuclear Orientation (Angstroms)
    I     Atom         X            Y            Z
 ----------------------------------------------------
    1      O       0.000000     0.000000     0.033901
    2      S       0.000000     0.000000     1.483861
 ----------------------------------------------------
 Nuclear Repulsion Energy =    46.7148709098 hartrees
 There are       13 alpha and       11 beta electrons
 Applying Cartesian multipole field
    Component          Value
    ---------          -----
     (2,0,0)        1.00000E-11
     (0,2,0)        2.00000E-11
     (0,0,2)       -3.00000E-11
 Nucleus-field energy     =    -0.0000000038 hartrees
 Requested basis set is G3large
 There are 29 shells and 108 basis functions
 A cutoff of  1.0D-11 yielded    424 shell pairs
 There are   5949 function pairs (  8269 Cartesian)
Evaluating contribution to one-electron hamiltonian from nuclear
 Smallest overlap matrix eigenvalue = 1.62E-03
 Multipole matrices computed through 2nd order
 Guess MOs from SCF MO coefficient file
Reading MOs from coefficient file
Reading MOs from coefficient file
 An unrestricted hybrid HF-DFT SCF calculation will be
 performed using Pulay DIIS extrapolation
 Exchange:     1.0000 Hartree-Fock + 1.0000 BNL
 Correlation:  1.0000 LYP
 Using SG-1 standard quadrature grid
 SCF converges when DIIS error is below 1.0E-08
 ---------------------------------------
  Cycle       Energy         DIIS Error
 ---------------------------------------
    1    -471.1067032347      1.17E-04
    2    -471.1050087660      1.65E-05
    3    -471.1050090679      8.65E-06
    4    -471.1050091248      3.00E-06
    5    -471.1050091355      1.55E-06
    6    -471.1050091396      2.67E-07
    7    -471.1050091403      1.42E-07
    8    -471.1050091406      7.62E-08
    9    -471.1050091407      1.88E-08
   10    -471.1050091406      2.53E-09 Convergence criterion met
 ---------------------------------------
 One-Electron    Energy =  -745.3019781131
 Total Coulomb   Energy =   259.3640351434
 Alpha Exchange  Energy =    -3.4160251338
 Beta  Exchange  Energy =    -2.8995858100
 DFT   Exchange  Energy =   -24.6245211537
 DFT Correlation Energy =    -0.9418049795
 Nuclear Repu.   Energy =    46.7148709060
 Nuclear Attr.   Energy = -1215.5111398770
 Kinetic         Energy =   470.2091617639
 <S^2> = 2.0144
 SCF time:  CPU 29.61 s  wall 30.17 s
 Final Alpha MO Eigenvalues
            1           2           3           4           5           6
    1 -88.0704001 -18.9215999  -8.0128491  -6.0538734  -6.0538734  -6.0532861
            7           8           9          10          11          12
    1  -1.2865172  -0.8590946  -0.6292172  -0.6292172  -0.6110407  -0.3977341
           13          14          15          16          17          18
    1  -0.3977341   0.0581452   0.0595892   0.0917451   0.0917451   0.1738811
 Final Beta MO Eigenvalues
            1           2           3           4           5           6
    1 -88.0627171 -18.8997166  -8.0046375  -6.0483242  -6.0412443  -6.0412443
            7           8           9          10          11          12
    1  -1.2511118  -0.7702905  -0.5719914  -0.5437474  -0.5437474  -0.0243949
           13          14          15          16
    1  -0.0243949   0.0557535   0.0627439   0.0953051
 Analysis of SCF Wavefunction
 
 --------------------------------------------------------------
                    Orbital Energies (a.u.)
 --------------------------------------------------------------
 
 Alpha MOs
 -- Occupied --
-88.070 -18.922  -8.013  -6.054  -6.054  -6.053  -1.287  -0.859
 -0.629  -0.629  -0.611  -0.398  -0.398
 -- Virtual --
  0.058   0.060   0.092   0.092   0.174   0.243   0.259   0.259
  0.282   0.282   0.319   0.400   0.400   0.452   0.471   0.471
  0.619   0.921   0.921   0.962   0.962   0.991   1.038   1.039
  1.043   1.043   1.080   1.109   1.131   1.131   1.184   1.184
  1.418   1.648   1.784   1.784   1.821   1.821   2.189   2.204
  2.204   2.705   3.510   3.510   3.516   3.516   3.530   3.530
  3.666   4.552   4.555   4.625   4.625   4.713   4.972   4.972
  5.138   5.138   5.215   5.215   5.520   5.793   5.793   6.369
  6.876   6.876   7.254   7.254   7.478   8.830  17.044  17.044
 17.656  23.443  23.556  23.657  23.657  23.823  30.937  30.937
 30.943  30.944  30.976  30.976  31.033  43.654  43.738  43.860
 43.860  43.866  45.705  45.705  46.320  50.039 189.665
 
 Beta MOs
 -- Occupied --
-88.063 -18.900  -8.005  -6.048  -6.041  -6.041  -1.251  -0.770
 -0.572  -0.544  -0.544
 -- Virtual --
 -0.024  -0.024   0.056   0.063   0.095   0.095   0.190   0.245
  0.267   0.267   0.321   0.321   0.321   0.429   0.429   0.459
  0.493   0.493   0.633   0.937   0.937   0.983   0.983   0.997
  1.066   1.066   1.082   1.082   1.098   1.124   1.149   1.149
  1.209   1.209   1.439   1.671   1.821   1.821   1.852   1.852
  2.198   2.226   2.226   2.725   3.545   3.545   3.546   3.546
  3.586   3.586   3.691   4.577   4.579   4.641   4.641   4.733
  5.020   5.020   5.184   5.184   5.248   5.248   5.544   5.821
  5.821   6.394   6.946   6.947   7.300   7.300   7.512   8.847
 17.061  17.061  17.661  23.460  23.572  23.667  23.667  23.831
 30.945  30.945  30.949  30.949  30.980  30.980  31.037  43.709
 43.793  43.898  43.898  43.898  45.734  45.734  46.335  50.065
189.673
 --------------------------------------------------------------
 
          Ground-State Mulliken Net Atomic Charges

     Atom                 Charge (a.u.)    Spin (a.u.)
  --------------------------------------------------------
      1 O                    -0.339455       0.642424
      2 S                     0.339455       1.357576
  --------------------------------------------------------
  Sum of atomic charges =     0.000000
  Sum of spin   charges =     2.000000

 -----------------------------------------------------------------
                    Cartesian Multipole Moments
 -----------------------------------------------------------------
    Charge (ESU x 10^10)
                 0.0000
    Dipole Moment (Debye)
         X       0.0000      Y       0.0000      Z       1.7999
       Tot       1.7999
    Quadrupole Moments (Debye-Ang)
        XX     -17.5859     XY       0.0000     YY     -17.5859
        XZ       0.0000     YZ       0.0000     ZZ     -15.1730
    Octapole Moments (Debye-Ang^2)
       XXX       0.0000    XXY       0.0000    XYY       0.0000
       YYY       0.0000    XXZ     -18.5671    XYZ       0.0000
       YYZ     -18.5671    XZZ       0.0000    YZZ       0.0000
       ZZZ     -49.9510
    Hexadecapole Moments (Debye-Ang^3)
      XXXX     -19.8823   XXXY       0.0000   XXYY      -6.6273
      XYYY       0.0000   YYYY     -19.8823   XXXZ       0.0000
      XXYZ       0.0000   XYYZ       0.0000   YYYZ       0.0000
      XXZZ     -34.6351   XYZZ       0.0000   YYZZ     -34.6351
      XZZZ       0.0000   YZZZ       0.0000   ZZZZ    -168.7754
 -----------------------------------------------------------------
 Calculating analytic gradient of the SCF energy
 Gradient of AOints
            1           2
    1   0.0000000  -0.0000000
    2  -0.0000000   0.0000000
    3  19.2877004 -19.2877004
 Gradient of XC Energy
            1           2
    1  -0.0000000   0.0000000
    2  -0.0000000   0.0000000
    3  -0.3464467   0.3464467
 Gradient of SCF Energy
            1           2
    1  -0.0000000   0.0000000
    2  -0.0000000   0.0000000
    3  -0.0000587   0.0000587
 Max gradient component =       5.874E-05
 RMS gradient           =       3.391E-05
 Gradient time:  CPU 13.35 s  wall 13.41 s
 Geometry Optimization Parameters
   NAtoms,    NIC,     NZ,  NCons,   NDum,   NFix, NCnnct, MaxDiis
        2       5       2       0       0       0       0       0

 Cartesian Hessian Update
 Hessian Updated using BFGS Update


** GEOMETRY OPTIMIZATION IN CARTESIAN COORDINATES **
   Searching for a Minimum

   Optimization Cycle:   4

                       Coordinates (Angstroms)
     ATOM              X           Y           Z
    1  O           0.000000    0.000000    0.033901
    2  S           0.000000    0.000000    1.483861
   Point Group: c1    Number of degrees of freedom:   0


   Energy is   -471.105009141


 Translations and Rotations Projected Out of Hessian

  1 Hessian modes will be used to form the next step
  Hessian Eigenvalues:
     1.369685

 Minimum Search - Taking Simple RFO Step
 Searching for Lamda that Minimizes Along All modes
 Value Taken    Lamda =   0.00000000
 Step Taken.  Stepsize is  0.000061

                             Maximum     Tolerance    Cnvgd?
         Gradient           0.000059      0.000300     YES
         Displacement       0.000043      0.001200     YES
         Energy change     -0.000004      0.000001      NO


                       Distance Matrix (Angstroms)
             O (  1)
   S (  2)  1.449960
 


 ******************************
 **  OPTIMIZATION CONVERGED  **
 ******************************
 Analysis of SCF Wavefunction
 
 --------------------------------------------------------------
                    Orbital Energies (a.u.)
 --------------------------------------------------------------
 
 Alpha MOs
 -- Occupied --
-88.070 -18.922  -8.013  -6.054  -6.054  -6.053  -1.287  -0.859
 -0.629  -0.629  -0.611  -0.398  -0.398
 -- Virtual --
  0.058   0.060   0.092   0.092   0.174   0.243   0.259   0.259
  0.282   0.282   0.319   0.400   0.400   0.452   0.471   0.471
  0.619   0.921   0.921   0.962   0.962   0.991   1.038   1.039
  1.043   1.043   1.080   1.109   1.131   1.131   1.184   1.184
  1.418   1.648   1.784   1.784   1.821   1.821   2.189   2.204
  2.204   2.705   3.510   3.510   3.516   3.516   3.530   3.530
  3.666   4.552   4.555   4.625   4.625   4.713   4.972   4.972
  5.138   5.138   5.215   5.215   5.520   5.793   5.793   6.369
  6.876   6.876   7.254   7.254   7.478   8.830  17.044  17.044
 17.656  23.443  23.556  23.657  23.657  23.823  30.937  30.937
 30.943  30.944  30.976  30.976  31.033  43.654  43.738  43.860
 43.860  43.866  45.705  45.705  46.320  50.039 189.665
 
 Beta MOs
 -- Occupied --
-88.063 -18.900  -8.005  -6.048  -6.041  -6.041  -1.251  -0.770
 -0.572  -0.544  -0.544
 -- Virtual --
 -0.024  -0.024   0.056   0.063   0.095   0.095   0.190   0.245
  0.267   0.267   0.321   0.321   0.321   0.429   0.429   0.459
  0.493   0.493   0.633   0.937   0.937   0.983   0.983   0.997
  1.066   1.066   1.082   1.082   1.098   1.124   1.149   1.149
  1.209   1.209   1.439   1.671   1.821   1.821   1.852   1.852
  2.198   2.226   2.226   2.725   3.545   3.545   3.546   3.546
  3.586   3.586   3.691   4.577   4.579   4.641   4.641   4.733
  5.020   5.020   5.184   5.184   5.248   5.248   5.544   5.821
  5.821   6.394   6.946   6.947   7.300   7.300   7.512   8.847
 17.061  17.061  17.661  23.460  23.572  23.667  23.667  23.831
 30.945  30.945  30.949  30.949  30.980  30.980  31.037  43.709
 43.793  43.898  43.898  43.898  45.734  45.734  46.335  50.065
189.673
 --------------------------------------------------------------
 
          Ground-State Mulliken Net Atomic Charges

     Atom                 Charge (a.u.)    Spin (a.u.)
  --------------------------------------------------------
      1 O                    -0.339455       0.642424
      2 S                     0.339455       1.357576
  --------------------------------------------------------
  Sum of atomic charges =     0.000000
  Sum of spin   charges =     2.000000

 -----------------------------------------------------------------
                    Cartesian Multipole Moments
 -----------------------------------------------------------------
    Charge (ESU x 10^10)
                 0.0000
    Dipole Moment (Debye)
         X       0.0000      Y       0.0000      Z       1.7999
       Tot       1.7999
    Quadrupole Moments (Debye-Ang)
        XX     -17.5859     XY       0.0000     YY     -17.5859
        XZ       0.0000     YZ       0.0000     ZZ     -15.1730
    Octapole Moments (Debye-Ang^2)
       XXX       0.0000    XXY       0.0000    XYY       0.0000
       YYY       0.0000    XXZ     -18.5671    XYZ       0.0000
       YYZ     -18.5671    XZZ       0.0000    YZZ       0.0000
       ZZZ     -49.9510
    Hexadecapole Moments (Debye-Ang^3)
      XXXX     -19.8823   XXXY       0.0000   XXYY      -6.6273
      XYYY       0.0000   YYYY     -19.8823   XXXZ       0.0000
      XXYZ       0.0000   XYYZ       0.0000   YYYZ       0.0000
      XXZZ     -34.6351   XYZZ       0.0000   YYZZ     -34.6351
      XZZZ       0.0000   YZZZ       0.0000   ZZZZ    -168.7754
 -----------------------------------------------------------------
 Total job time:  203.57s(wall), 200.42s(cpu) 
 Thu Apr 21 23:26:08 2011

        *************************************************************
        *                                                           *
        *  Thank you very much for using Q-Chem.  Have a nice day.  *
        *                                                           *
        *************************************************************


0 sent ACK to 0 
now end server 0 ... 
 
**********************************************************************
Job 2 of 2 
**********************************************************************
 
Process 0 of 1 is on cl247.stfx.acenet.ca - thread support 1
initial socket setup ...start
initial socket setup ...done 
now start server 0 ... 

cmd = /usr/bin/ssh clhead /usr/local/qchem/bin/get_hostid 578411577 > /scratch/tmp/4506591.1.long.q/qchem23608/lic.dat
                  Welcome to Q-Chem
     A Quantum Leap Into The Future Of Chemistry

 Y. Shao, L. Fusti-Molnar, Y. Jung, J. Kussmann, C. Ochsenfeld,
 S. T. Brown, A. T. B. Gilbert, L. V. Slipchenko,S. V. Levchenko,
 D. P. O'Neill, R. A. DiStasio Jr., R. C. Lochan, T. Wang,
 G. J. O. Beran, N. A. Besley, J. M. Herbert, C. Y. Lin,
 T. Van Voorhis, S. H. Chien, A. Sodt, R. P. Steele, 
 V. A. Rassolov, P. E. Maslen, P. P. Korambath, R. D. Adamson,
 B. Austin, J. Baker, E. F. C. Byrd, H. Dachsel, R. J. Doerksen,
 A. Dreuw, B. D. Dunietz, A. D. Dutoi, T. R. Furlani,
 S. R. Gwaltney, A. Heyden, S. Hirata, C.-P. Hsu, G. Kedziora,
 R. Z. Khaliullin, P. Klunzinger, A. M. Lee, M. S. Lee, W. Liang,
 I. Lotan, N. Nair, B. Peters, E. I. Proynov, P. A. Pieniazek, 
 Y. M. Rhee, J. Ritchie, E. Rosta, C. D. Sherrill, 
 A. C. Simmonett, J. E. Subotnik, H. L. Woodcock III,
 W. Zhang, A. T. Bell, A. K. Chakraborty, D. M. Chipman,
 F. J. Keil, A. Warshel, W. J. Hehre, H. F. Schaefer III,
 J. Kong, A. I. Krylov, P. M. W. Gill, M. Head-Gordon,
 Q-Chem, Version 3.1, Q-Chem, Inc., Pittsburgh, PA (2007).

 Additional authors for Version 3.1: 
 Z. Gan, Y. Zhao, N. E. Schultz, D. Truhlar, E. Epifanovsky and M. Oana.

 Additional authors for Version 3.2: 
 R. Baer, B. R. Brooks, D. Casanova, J.-D. Chai, C.-L. Cheng, 
 C. Cramer, D. Crittenden, A. Ghysels, G. Hawkins, E. G. Hohenstein, 
 C. Kelley, W. Kurlancheek, D. Liotard, E. Livshits, P. Manohar, 
 A. Marenich, D. Neuhauser, R. Olson, M. A. Rohrdanz, K. S. Thanthiriwatte, 
 A. J. W. Thom, V. Vanovschi, C. F. Williams, Q. Wu and Z.-Q. You. 


 Intel X86 Linux Version

 Q-chem begins on Thu Apr 21 23:26:11 2011  

 Parallel job on  1  processors
Processing $rem in /usr/local/qchem/config/preferences.

theFileMan(): MAXOPENFILES=974 MAX_SUB_FILE_NUM=16
Maximum size of a physical file is 2.0 GB, maximum size of a tmp-file is 32.0 GB


--------------------------------------------------------------
User input:
--------------------------------------------------------------

$molecule 
READ 
$end 

$xc_functional
   X HF 1.0
   X BNL 1.0
   C LYP 1.0
$end

$rem
SYMMETRY_DECOMPOSITION	0
exchange 		general
BASIS                   g3large
omega			530 
JOBTYPE                 freq
IDERIV 1
SCF_GUESS READ
separate_jk		true
mem_static              760
max_scf_cycles          200
scf_final_print         1
sym_ignore              true
$end

--------------------------------------------------------------
 Writing REM_CC_EA            2
 ----------------------------------------------------
       Standard Nuclear Orientation (Angstroms)
    I     Atom         X            Y            Z
 ----------------------------------------------------
    1      O       0.000000     0.000000     0.033901
    2      S       0.000000     0.000000     1.483861
 ----------------------------------------------------
 Nuclear Repulsion Energy =    46.7148709098 hartrees
 There are       13 alpha and       11 beta electrons
 Requested basis set is G3large
 There are 29 shells and 108 basis functions

Total QAlloc Memory Limit   2000 MB
Mega-Array Size       759 MB
MEM_STATIC part       760 MB

                       Distance Matrix (Angstroms)
             O (  1)
   S (  2)  1.449960
 
 A cutoff of  1.0D-11 yielded    424 shell pairs
 There are   5949 function pairs (  8269 Cartesian)
Evaluating contribution to one-electron hamiltonian from nuclear
 Smallest overlap matrix eigenvalue = 1.62E-03
 Multipole matrices computed through 2nd order
 Guess MOs from SCF MO coefficient file
Reading MOs from coefficient file
Reading MOs from coefficient file
 An unrestricted hybrid HF-DFT SCF calculation will be
 performed using Pulay DIIS extrapolation
 Exchange:     1.0000 Hartree-Fock + 1.0000 BNL
 Correlation:  1.0000 LYP
 Using SG-1 standard quadrature grid
 SCF converges when DIIS error is below 1.0E-08
 ---------------------------------------
  Cycle       Energy         DIIS Error
 ---------------------------------------
    1    -471.1050091408      6.48E-10
    2    -471.1050091408      5.37E-10 Convergence criterion met
 ---------------------------------------
 One-Electron    Energy =  -745.3019782653
 Total Coulomb   Energy =   259.3640352931
 Alpha Exchange  Energy =    -3.4160251313
 Beta  Exchange  Energy =    -2.8995858216
 DFT   Exchange  Energy =   -24.6245211465
 DFT Correlation Energy =    -0.9418049790
 Nuclear Repu.   Energy =    46.7148709098
 Nuclear Attr.   Energy = -1215.5111398201
 Kinetic         Energy =   470.2091615548
 <S^2> = 2.0144
 SCF time:  CPU 6.22 s  wall 6.31 s
 Final Alpha MO Eigenvalues
            1           2           3           4           5           6
    1 -88.0704001 -18.9215999  -8.0128491  -6.0538734  -6.0538734  -6.0532861
            7           8           9          10          11          12
    1  -1.2865172  -0.8590946  -0.6292172  -0.6292172  -0.6110407  -0.3977341
           13          14          15          16          17          18
    1  -0.3977341   0.0581452   0.0595892   0.0917451   0.0917451   0.1738811
 Final Beta MO Eigenvalues
            1           2           3           4           5           6
    1 -88.0627171 -18.8997166  -8.0046375  -6.0483242  -6.0412443  -6.0412443
            7           8           9          10          11          12
    1  -1.2511118  -0.7702905  -0.5719914  -0.5437474  -0.5437474  -0.0243949
           13          14          15          16
    1  -0.0243949   0.0557535   0.0627439   0.0953051
 Analysis of SCF Wavefunction
 
 --------------------------------------------------------------
                    Orbital Energies (a.u.)
 --------------------------------------------------------------
 
 Alpha MOs
 -- Occupied --
-88.070 -18.922  -8.013  -6.054  -6.054  -6.053  -1.287  -0.859
 -0.629  -0.629  -0.611  -0.398  -0.398
 -- Virtual --
  0.058   0.060   0.092   0.092   0.174   0.243   0.259   0.259
  0.282   0.282   0.319   0.400   0.400   0.452   0.471   0.471
  0.619   0.921   0.921   0.962   0.962   0.991   1.038   1.039
  1.043   1.043   1.080   1.109   1.131   1.131   1.184   1.184
  1.418   1.648   1.784   1.784   1.821   1.821   2.189   2.204
  2.204   2.705   3.510   3.510   3.516   3.516   3.530   3.530
  3.666   4.552   4.555   4.625   4.625   4.713   4.972   4.972
  5.138   5.138   5.215   5.215   5.520   5.793   5.793   6.369
  6.876   6.876   7.254   7.254   7.478   8.830  17.044  17.044
 17.656  23.443  23.556  23.657  23.657  23.823  30.937  30.937
 30.943  30.944  30.976  30.976  31.033  43.654  43.738  43.860
 43.860  43.866  45.705  45.705  46.320  50.039 189.665
 
 Beta MOs
 -- Occupied --
-88.063 -18.900  -8.005  -6.048  -6.041  -6.041  -1.251  -0.770
 -0.572  -0.544  -0.544
 -- Virtual --
 -0.024  -0.024   0.056   0.063   0.095   0.095   0.190   0.245
  0.267   0.267   0.321   0.321   0.321   0.429   0.429   0.459
  0.493   0.493   0.633   0.937   0.937   0.983   0.983   0.997
  1.066   1.066   1.082   1.082   1.098   1.124   1.149   1.149
  1.209   1.209   1.439   1.671   1.821   1.821   1.852   1.852
  2.198   2.226   2.226   2.725   3.545   3.545   3.546   3.546
  3.586   3.586   3.691   4.577   4.579   4.641   4.641   4.733
  5.020   5.020   5.184   5.184   5.248   5.248   5.544   5.821
  5.821   6.394   6.946   6.947   7.300   7.300   7.512   8.847
 17.061  17.061  17.661  23.460  23.572  23.667  23.667  23.831
 30.945  30.945  30.949  30.949  30.980  30.980  31.037  43.709
 43.793  43.898  43.898  43.898  45.734  45.734  46.335  50.065
189.673
 --------------------------------------------------------------
 
          Ground-State Mulliken Net Atomic Charges

     Atom                 Charge (a.u.)    Spin (a.u.)
  --------------------------------------------------------
      1 O                    -0.339455       0.642424
      2 S                     0.339455       1.357576
  --------------------------------------------------------
  Sum of atomic charges =     0.000000
  Sum of spin   charges =     2.000000

 -----------------------------------------------------------------
                    Cartesian Multipole Moments
 -----------------------------------------------------------------
    Charge (ESU x 10^10)
                 0.0000
    Dipole Moment (Debye)
         X       0.0000      Y       0.0000      Z       1.7999
       Tot       1.7999
    Quadrupole Moments (Debye-Ang)
        XX     -17.5859     XY       0.0000     YY     -17.5859
        XZ       0.0000     YZ       0.0000     ZZ     -15.1730
    Octapole Moments (Debye-Ang^2)
       XXX       0.0000    XXY       0.0000    XYY       0.0000
       YYY       0.0000    XXZ     -18.5671    XYZ       0.0000
       YYZ     -18.5671    XZZ       0.0000    YZZ       0.0000
       ZZZ     -49.9510
    Hexadecapole Moments (Debye-Ang^3)
      XXXX     -19.8823   XXXY       0.0000   XXYY      -6.6273
      XYYY       0.0000   YYYY     -19.8823   XXXZ       0.0000
      XXYZ       0.0000   XYYZ       0.0000   YYYZ       0.0000
      XXZZ     -34.6351   XYZZ       0.0000   YYZZ     -34.6351
      XZZZ       0.0000   YZZZ       0.0000   ZZZZ    -168.7754
 -----------------------------------------------------------------
 Calculating analytic gradient of the SCF energy
 Gradient of AOints
            1           2
    1   0.0000000  -0.0000000
    2   0.0000000  -0.0000000
    3  19.2877006 -19.2877006
 Gradient of XC Energy
            1           2
    1  -0.0000000   0.0000000
    2  -0.0000000   0.0000000
    3  -0.3464467   0.3464467
 Gradient of SCF Energy
            1           2
    1   0.0000000  -0.0000000
    2  -0.0000000   0.0000000
    3  -0.0000587   0.0000587
 Max gradient component =       5.874E-05
 RMS gradient           =       3.392E-05
 Gradient time:  CPU 13.28 s  wall 13.37 s
 ######################################################
 ######################################################
 # Starting finite difference calculation for IDERIV  #
 Finite diff step size: 1.89e-03 a.u.
 Writing REM_CC_EA            2
 ----------------------------------------------------
       Standard Nuclear Orientation (Angstroms)
    I     Atom         X            Y            Z
 ----------------------------------------------------
    1      O       0.001000     0.000000     0.033901
    2      S       0.000000     0.000000     1.483861
 ----------------------------------------------------
 Nuclear Repulsion Energy =    46.7148597998 hartrees
 There are       13 alpha and       11 beta electrons

                       Distance Matrix (Angstroms)
             O (  1)
   S (  2)  1.449960
 
 Requested basis set is G3large
 There are 29 shells and 108 basis functions
 A cutoff of  1.0D-11 yielded    424 shell pairs
 There are   5949 function pairs (  8269 Cartesian)
Evaluating contribution to one-electron hamiltonian from nuclear
 Smallest overlap matrix eigenvalue = 1.62E-03
 Multipole matrices computed through 2nd order
 Guess MOs from SCF MO coefficient file
Reading MOs from coefficient file
Reading MOs from coefficient file
 An unrestricted hybrid HF-DFT SCF calculation will be
 performed using Pulay DIIS extrapolation
 Exchange:     1.0000 Hartree-Fock + 1.0000 BNL
 Correlation:  1.0000 LYP
 Using SG-1 standard quadrature grid
 SCF converges when DIIS error is below 1.0E-08
 ---------------------------------------
  Cycle       Energy         DIIS Error
 ---------------------------------------
    1    -471.1050081402      2.63E-05
    2    -471.1050090811      3.11E-06
    3    -471.1050091249      1.24E-06
    4    -471.1050091345      4.57E-07
    5    -471.1050091380      1.90E-07
    6    -471.1050091388      1.19E-07
    7    -471.1050091389      4.79E-08
    8    -471.1050091389      9.09E-09 Convergence criterion met
 ---------------------------------------
 One-Electron    Energy =  -745.3019565345
 Total Coulomb   Energy =   259.3640244356
 Alpha Exchange  Energy =    -3.4160251232
 Beta  Exchange  Energy =    -2.8995857759
 DFT   Exchange  Energy =   -24.6245209732
 DFT Correlation Energy =    -0.9418049675
 Nuclear Repu.   Energy =    46.7148597998
 Nuclear Attr.   Energy = -1215.5111170791
 Kinetic         Energy =   470.2091605447
 <S^2> = 2.0144
 SCF time:  CPU 24.00 s  wall 24.42 s
 Final Alpha MO Eigenvalues
            1           2           3           4           5           6
    1 -88.0704002 -18.9215999  -8.0128491  -6.0538734  -6.0538734  -6.0532862
            7           8           9          10          11          12
    1  -1.2865170  -0.8590946  -0.6292171  -0.6292171  -0.6110406  -0.3977342
           13          14          15          16          17          18
    1  -0.3977342   0.0581452   0.0595892   0.0917451   0.0917451   0.1738810
 Final Beta MO Eigenvalues
            1           2           3           4           5           6
    1 -88.0627171 -18.8997167  -8.0046375  -6.0483242  -6.0412443  -6.0412443
            7           8           9          10          11          12
    1  -1.2511116  -0.7702905  -0.5719914  -0.5437473  -0.5437473  -0.0243950
           13          14          15          16
    1  -0.0243950   0.0557535   0.0627438   0.0953051
 Analysis of SCF Wavefunction
 
 --------------------------------------------------------------
                    Orbital Energies (a.u.)
 --------------------------------------------------------------
 
 Alpha MOs
 -- Occupied --
-88.070 -18.922  -8.013  -6.054  -6.054  -6.053  -1.287  -0.859
 -0.629  -0.629  -0.611  -0.398  -0.398
 -- Virtual --
  0.058   0.060   0.092   0.092   0.174   0.243   0.259   0.259
  0.282   0.282   0.319   0.400   0.400   0.452   0.471   0.471
  0.619   0.921   0.921   0.962   0.962   0.991   1.038   1.039
  1.043   1.043   1.080   1.109   1.131   1.131   1.184   1.184
  1.418   1.648   1.784   1.784   1.821   1.821   2.189   2.204
  2.204   2.705   3.510   3.510   3.516   3.516   3.530   3.530
  3.666   4.552   4.555   4.625   4.625   4.713   4.972   4.972
  5.138   5.138   5.215   5.215   5.520   5.793   5.793   6.369
  6.876   6.876   7.254   7.254   7.478   8.830  17.044  17.044
 17.656  23.443  23.556  23.657  23.657  23.823  30.937  30.937
 30.943  30.944  30.976  30.976  31.033  43.654  43.738  43.860
 43.860  43.866  45.705  45.705  46.320  50.039 189.665
 
 Beta MOs
 -- Occupied --
-88.063 -18.900  -8.005  -6.048  -6.041  -6.041  -1.251  -0.770
 -0.572  -0.544  -0.544
 -- Virtual --
 -0.024  -0.024   0.056   0.063   0.095   0.095   0.190   0.245
  0.267   0.267   0.321   0.321   0.321   0.429   0.429   0.459
  0.493   0.493   0.633   0.937   0.937   0.983   0.983   0.997
  1.066   1.066   1.082   1.082   1.098   1.124   1.149   1.149
  1.209   1.209   1.439   1.671   1.821   1.821   1.852   1.852
  2.198   2.226   2.226   2.725   3.545   3.545   3.546   3.546
  3.586   3.586   3.691   4.577   4.579   4.641   4.641   4.733
  5.020   5.020   5.184   5.184   5.248   5.248   5.544   5.821
  5.821   6.394   6.946   6.947   7.300   7.300   7.512   8.847
 17.061  17.061  17.661  23.460  23.572  23.667  23.667  23.831
 30.945  30.945  30.949  30.949  30.980  30.980  31.037  43.709
 43.793  43.898  43.898  43.898  45.734  45.734  46.335  50.065
189.673
 --------------------------------------------------------------
 
          Ground-State Mulliken Net Atomic Charges

     Atom                 Charge (a.u.)    Spin (a.u.)
  --------------------------------------------------------
      1 O                    -0.339455       0.642424
      2 S                     0.339455       1.357576
  --------------------------------------------------------
  Sum of atomic charges =     0.000000
  Sum of spin   charges =     2.000000

 -----------------------------------------------------------------
                    Cartesian Multipole Moments
 -----------------------------------------------------------------
    Charge (ESU x 10^10)
                 0.0000
    Dipole Moment (Debye)
         X      -0.0012      Y       0.0000      Z       1.7999
       Tot       1.7999
    Quadrupole Moments (Debye-Ang)
        XX     -17.5859     XY       0.0000     YY     -17.5859
        XZ       0.0002     YZ       0.0000     ZZ     -15.1730
    Octapole Moments (Debye-Ang^2)
       XXX      -0.0156    XXY       0.0000    XYY      -0.0052
       YYY       0.0000    XXZ     -18.5671    XYZ       0.0000
       YYZ     -18.5671    XZZ      -0.0067    YZZ       0.0000
       ZZZ     -49.9510
    Hexadecapole Moments (Debye-Ang^3)
      XXXX     -19.8823   XXXY       0.0000   XXYY      -6.6273
      XYYY       0.0000   YYYY     -19.8823   XXXZ       0.0009
      XXYZ       0.0000   XYYZ       0.0003   YYYZ       0.0000
      XXZZ     -34.6351   XYZZ       0.0000   YYZZ     -34.6351
      XZZZ      -0.0064   YZZZ       0.0000   ZZZZ    -168.7754
 -----------------------------------------------------------------
 Calculating analytic gradient of the SCF energy
 Gradient of AOints
            1           2
    1  -0.0132874   0.0132874
    2  -0.0000000   0.0000000
    3  19.2876912 -19.2876912
 Gradient of XC Energy
            1           2
    1   0.0002407  -0.0002407
    2   0.0000000  -0.0000000
    3  -0.3464465   0.3464465
 Gradient of SCF Energy
            1           2
    1   0.0000020  -0.0000020
    2  -0.0000000   0.0000000
    3  -0.0000592   0.0000592
 Max gradient component =       5.917E-05
 RMS gradient           =       3.418E-05
 Gradient time:  CPU 13.33 s  wall 13.37 s
 Writing REM_CC_EA            2
 ----------------------------------------------------
       Standard Nuclear Orientation (Angstroms)
    I     Atom         X            Y            Z
 ----------------------------------------------------
    1      O      -0.001000     0.000000     0.033901
    2      S       0.000000     0.000000     1.483861
 ----------------------------------------------------
 Nuclear Repulsion Energy =    46.7148597998 hartrees
 There are       13 alpha and       11 beta electrons

                       Distance Matrix (Angstroms)
             O (  1)
   S (  2)  1.449960
 
 Requested basis set is G3large
 There are 29 shells and 108 basis functions
 A cutoff of  1.0D-11 yielded    424 shell pairs
 There are   5949 function pairs (  8269 Cartesian)
Evaluating contribution to one-electron hamiltonian from nuclear
 Smallest overlap matrix eigenvalue = 1.62E-03
 Multipole matrices computed through 2nd order
 Guess MOs from SCF MO coefficient file
Reading MOs from coefficient file
Reading MOs from coefficient file
 An unrestricted hybrid HF-DFT SCF calculation will be
 performed using Pulay DIIS extrapolation
 Exchange:     1.0000 Hartree-Fock + 1.0000 BNL
 Correlation:  1.0000 LYP
 Using SG-1 standard quadrature grid
 SCF converges when DIIS error is below 1.0E-08
 ---------------------------------------
  Cycle       Energy         DIIS Error
 ---------------------------------------
    1    -471.1050064878      5.25E-05
    2    -471.1050089072      6.22E-06
    3    -471.1050090829      2.48E-06
    4    -471.1050091211      9.17E-07
    5    -471.1050091348      3.98E-07
    6    -471.1050091381      3.38E-07
    7    -471.1050091389      8.51E-08
    8    -471.1050091390      1.74E-08
    9    -471.1050091390      5.97E-09 Convergence criterion met
 ---------------------------------------
 One-Electron    Energy =  -745.3019565416
 Total Coulomb   Energy =   259.3640243965
 Alpha Exchange  Energy =    -3.4160251193
 Beta  Exchange  Energy =    -2.8995857698
 DFT   Exchange  Energy =   -24.6245209378
 DFT Correlation Energy =    -0.9418049667
 Nuclear Repu.   Energy =    46.7148597998
 Nuclear Attr.   Energy = -1215.5111171609
 Kinetic         Energy =   470.2091606193
 <S^2> = 2.0144
 SCF time:  CPU 26.91 s  wall 27.36 s
 Final Alpha MO Eigenvalues
            1           2           3           4           5           6
    1 -88.0704002 -18.9215999  -8.0128491  -6.0538734  -6.0538734  -6.0532862
            7           8           9          10          11          12
    1  -1.2865170  -0.8590946  -0.6292171  -0.6292171  -0.6110406  -0.3977342
           13          14          15          16          17          18
    1  -0.3977342   0.0581452   0.0595892   0.0917451   0.0917451   0.1738810
 Final Beta MO Eigenvalues
            1           2           3           4           5           6
    1 -88.0627171 -18.8997167  -8.0046375  -6.0483242  -6.0412443  -6.0412443
            7           8           9          10          11          12
    1  -1.2511116  -0.7702906  -0.5719914  -0.5437473  -0.5437473  -0.0243950
           13          14          15          16
    1  -0.0243950   0.0557535   0.0627438   0.0953051
 Analysis of SCF Wavefunction
 
 --------------------------------------------------------------
                    Orbital Energies (a.u.)
 --------------------------------------------------------------
 
 Alpha MOs
 -- Occupied --
-88.070 -18.922  -8.013  -6.054  -6.054  -6.053  -1.287  -0.859
 -0.629  -0.629  -0.611  -0.398  -0.398
 -- Virtual --
  0.058   0.060   0.092   0.092   0.174   0.243   0.259   0.259
  0.282   0.282   0.319   0.400   0.400   0.452   0.471   0.471
  0.619   0.921   0.921   0.962   0.962   0.991   1.038   1.039
  1.043   1.043   1.080   1.109   1.131   1.131   1.184   1.184
  1.418   1.648   1.784   1.784   1.821   1.821   2.189   2.204
  2.204   2.705   3.510   3.510   3.516   3.516   3.530   3.530
  3.666   4.552   4.555   4.625   4.625   4.713   4.972   4.972
  5.138   5.138   5.215   5.215   5.520   5.793   5.793   6.369
  6.876   6.876   7.254   7.254   7.478   8.830  17.044  17.044
 17.656  23.443  23.556  23.657  23.657  23.823  30.937  30.937
 30.943  30.944  30.976  30.976  31.033  43.654  43.738  43.860
 43.860  43.866  45.705  45.705  46.320  50.039 189.665
 
 Beta MOs
 -- Occupied --
-88.063 -18.900  -8.005  -6.048  -6.041  -6.041  -1.251  -0.770
 -0.572  -0.544  -0.544
 -- Virtual --
 -0.024  -0.024   0.056   0.063   0.095   0.095   0.190   0.245
  0.267   0.267   0.321   0.321   0.321   0.429   0.429   0.459
  0.493   0.493   0.633   0.937   0.937   0.983   0.983   0.997
  1.066   1.066   1.082   1.082   1.098   1.124   1.149   1.149
  1.209   1.209   1.439   1.671   1.821   1.821   1.852   1.852
  2.198   2.226   2.226   2.725   3.545   3.545   3.546   3.546
  3.586   3.586   3.691   4.577   4.579   4.641   4.641   4.733
  5.020   5.020   5.184   5.184   5.248   5.248   5.544   5.821
  5.821   6.394   6.946   6.947   7.300   7.300   7.512   8.847
 17.061  17.061  17.661  23.460  23.572  23.667  23.667  23.831
 30.945  30.945  30.949  30.949  30.980  30.980  31.037  43.709
 43.793  43.898  43.898  43.898  45.734  45.734  46.335  50.065
189.673
 --------------------------------------------------------------
 
          Ground-State Mulliken Net Atomic Charges

     Atom                 Charge (a.u.)    Spin (a.u.)
  --------------------------------------------------------
      1 O                    -0.339455       0.642424
      2 S                     0.339455       1.357576
  --------------------------------------------------------
  Sum of atomic charges =     0.000000
  Sum of spin   charges =     2.000000

 -----------------------------------------------------------------
                    Cartesian Multipole Moments
 -----------------------------------------------------------------
    Charge (ESU x 10^10)
                 0.0000
    Dipole Moment (Debye)
         X       0.0012      Y       0.0000      Z       1.7999
       Tot       1.7999
    Quadrupole Moments (Debye-Ang)
        XX     -17.5859     XY       0.0000     YY     -17.5859
        XZ      -0.0002     YZ       0.0000     ZZ     -15.1730
    Octapole Moments (Debye-Ang^2)
       XXX       0.0156    XXY       0.0000    XYY       0.0052
       YYY       0.0000    XXZ     -18.5671    XYZ       0.0000
       YYZ     -18.5671    XZZ       0.0067    YZZ       0.0000
       ZZZ     -49.9510
    Hexadecapole Moments (Debye-Ang^3)
      XXXX     -19.8823   XXXY       0.0000   XXYY      -6.6273
      XYYY       0.0000   YYYY     -19.8823   XXXZ      -0.0009
      XXYZ       0.0000   XYYZ      -0.0003   YYYZ       0.0000
      XXZZ     -34.6351   XYZZ       0.0000   YYZZ     -34.6351
      XZZZ       0.0064   YZZZ       0.0000   ZZZZ    -168.7754
 -----------------------------------------------------------------
 Calculating analytic gradient of the SCF energy
 Gradient of AOints
            1           2
    1   0.0132878  -0.0132878
    2   0.0000000  -0.0000000
    3  19.2876912 -19.2876912
 Gradient of XC Energy
            1           2
    1  -0.0002407   0.0002407
    2  -0.0000000   0.0000000
    3  -0.3464465   0.3464465
 Gradient of SCF Energy
            1           2
    1  -0.0000020   0.0000020
    2   0.0000000  -0.0000000
    3  -0.0000592   0.0000592
 Max gradient component =       5.917E-05
 RMS gradient           =       3.418E-05
 Gradient time:  CPU 13.18 s  wall 13.27 s
 Writing REM_CC_EA            2
 ----------------------------------------------------
       Standard Nuclear Orientation (Angstroms)
    I     Atom         X            Y            Z
 ----------------------------------------------------
    1      O       0.000000     0.001000     0.033901
    2      S       0.000000     0.000000     1.483861
 ----------------------------------------------------
 Nuclear Repulsion Energy =    46.7148597998 hartrees
 There are       13 alpha and       11 beta electrons

                       Distance Matrix (Angstroms)
             O (  1)
   S (  2)  1.449960
 
 Requested basis set is G3large
 There are 29 shells and 108 basis functions
 A cutoff of  1.0D-11 yielded    424 shell pairs
 There are   5949 function pairs (  8269 Cartesian)
Evaluating contribution to one-electron hamiltonian from nuclear
 Smallest overlap matrix eigenvalue = 1.62E-03
 Multipole matrices computed through 2nd order
 Guess MOs from SCF MO coefficient file
Reading MOs from coefficient file
Reading MOs from coefficient file
 An unrestricted hybrid HF-DFT SCF calculation will be
 performed using Pulay DIIS extrapolation
 Exchange:     1.0000 Hartree-Fock + 1.0000 BNL
 Correlation:  1.0000 LYP
 Using SG-1 standard quadrature grid
 SCF converges when DIIS error is below 1.0E-08
 ---------------------------------------
  Cycle       Energy         DIIS Error
 ---------------------------------------
    1    -471.1050078134      3.71E-05
    2    -471.1050090231      4.40E-06
    3    -471.1050091109      1.76E-06
    4    -471.1050091301      6.47E-07
    5    -471.1050091370      2.72E-07
    6    -471.1050091386      1.98E-07
    7    -471.1050091389      6.40E-08
    8    -471.1050091389      1.25E-08
    9    -471.1050091389      4.25E-09 Convergence criterion met
 ---------------------------------------
 One-Electron    Energy =  -745.3019564916
 Total Coulomb   Energy =   259.3640243416
 Alpha Exchange  Energy =    -3.4160251195
 Beta  Exchange  Energy =    -2.8995857694
 DFT   Exchange  Energy =   -24.6245209333
 DFT Correlation Energy =    -0.9418049666
 Nuclear Repu.   Energy =    46.7148597998
 Nuclear Attr.   Energy = -1215.5111170230
 Kinetic         Energy =   470.2091605314
 <S^2> = 2.0144
 SCF time:  CPU 26.65 s  wall 27.12 s
 Final Alpha MO Eigenvalues
            1           2           3           4           5           6
    1 -88.0704002 -18.9215999  -8.0128491  -6.0538734  -6.0538734  -6.0532862
            7           8           9          10          11          12
    1  -1.2865170  -0.8590946  -0.6292171  -0.6292171  -0.6110406  -0.3977342
           13          14          15          16          17          18
    1  -0.3977342   0.0581452   0.0595892   0.0917451   0.0917451   0.1738810
 Final Beta MO Eigenvalues
            1           2           3           4           5           6
    1 -88.0627171 -18.8997167  -8.0046375  -6.0483242  -6.0412443  -6.0412443
            7           8           9          10          11          12
    1  -1.2511116  -0.7702906  -0.5719914  -0.5437473  -0.5437473  -0.0243950
           13          14          15          16
    1  -0.0243950   0.0557535   0.0627438   0.0953051
 Analysis of SCF Wavefunction
 
 --------------------------------------------------------------
                    Orbital Energies (a.u.)
 --------------------------------------------------------------
 
 Alpha MOs
 -- Occupied --
-88.070 -18.922  -8.013  -6.054  -6.054  -6.053  -1.287  -0.859
 -0.629  -0.629  -0.611  -0.398  -0.398
 -- Virtual --
  0.058   0.060   0.092   0.092   0.174   0.243   0.259   0.259
  0.282   0.282   0.319   0.400   0.400   0.452   0.471   0.471
  0.619   0.921   0.921   0.962   0.962   0.991   1.038   1.039
  1.043   1.043   1.080   1.109   1.131   1.131   1.184   1.184
  1.418   1.648   1.784   1.784   1.821   1.821   2.189   2.204
  2.204   2.705   3.510   3.510   3.516   3.516   3.530   3.530
  3.666   4.552   4.555   4.625   4.625   4.713   4.972   4.972
  5.138   5.138   5.215   5.215   5.520   5.793   5.793   6.369
  6.876   6.876   7.254   7.254   7.478   8.830  17.044  17.044
 17.656  23.443  23.556  23.657  23.657  23.823  30.937  30.937
 30.943  30.944  30.976  30.976  31.033  43.654  43.738  43.860
 43.860  43.866  45.705  45.705  46.320  50.039 189.665
 
 Beta MOs
 -- Occupied --
-88.063 -18.900  -8.005  -6.048  -6.041  -6.041  -1.251  -0.770
 -0.572  -0.544  -0.544
 -- Virtual --
 -0.024  -0.024   0.056   0.063   0.095   0.095   0.190   0.245
  0.267   0.267   0.321   0.321   0.321   0.429   0.429   0.459
  0.493   0.493   0.633   0.937   0.937   0.983   0.983   0.997
  1.066   1.066   1.082   1.082   1.098   1.124   1.149   1.149
  1.209   1.209   1.439   1.671   1.821   1.821   1.852   1.852
  2.198   2.226   2.226   2.725   3.545   3.545   3.546   3.546
  3.586   3.586   3.691   4.577   4.579   4.641   4.641   4.733
  5.020   5.020   5.184   5.184   5.248   5.248   5.544   5.821
  5.821   6.394   6.946   6.947   7.300   7.300   7.512   8.847
 17.061  17.061  17.661  23.460  23.572  23.667  23.667  23.831
 30.945  30.945  30.949  30.949  30.980  30.980  31.037  43.709
 43.793  43.898  43.898  43.898  45.734  45.734  46.335  50.065
189.673
 --------------------------------------------------------------
 
          Ground-State Mulliken Net Atomic Charges

     Atom                 Charge (a.u.)    Spin (a.u.)
  --------------------------------------------------------
      1 O                    -0.339455       0.642424
      2 S                     0.339455       1.357576
  --------------------------------------------------------
  Sum of atomic charges =     0.000000
  Sum of spin   charges =     2.000000

 -----------------------------------------------------------------
                    Cartesian Multipole Moments
 -----------------------------------------------------------------
    Charge (ESU x 10^10)
                 0.0000
    Dipole Moment (Debye)
         X       0.0000      Y      -0.0012      Z       1.7999
       Tot       1.7999
    Quadrupole Moments (Debye-Ang)
        XX     -17.5859     XY       0.0000     YY     -17.5859
        XZ       0.0000     YZ       0.0002     ZZ     -15.1730
    Octapole Moments (Debye-Ang^2)
       XXX       0.0000    XXY      -0.0052    XYY       0.0000
       YYY      -0.0156    XXZ     -18.5671    XYZ       0.0000
       YYZ     -18.5671    XZZ       0.0000    YZZ      -0.0067
       ZZZ     -49.9510
    Hexadecapole Moments (Debye-Ang^3)
      XXXX     -19.8823   XXXY       0.0000   XXYY      -6.6273
      XYYY       0.0000   YYYY     -19.8823   XXXZ       0.0000
      XXYZ       0.0003   XYYZ       0.0000   YYYZ       0.0009
      XXZZ     -34.6351   XYZZ       0.0000   YYZZ     -34.6351
      XZZZ       0.0000   YZZZ      -0.0064   ZZZZ    -168.7754
 -----------------------------------------------------------------
 Calculating analytic gradient of the SCF energy
 Gradient of AOints
            1           2
    1  -0.0000002   0.0000002
    2  -0.0132877   0.0132877
    3  19.2876912 -19.2876912
 Gradient of XC Energy
            1           2
    1   0.0000000  -0.0000000
    2   0.0002407  -0.0002407
    3  -0.3464465   0.3464465
 Gradient of SCF Energy
            1           2
    1  -0.0000000   0.0000000
    2   0.0000020  -0.0000020
    3  -0.0000592   0.0000592
 Max gradient component =       5.918E-05
 RMS gradient           =       3.418E-05
 Gradient time:  CPU 13.23 s  wall 13.30 s
 Writing REM_CC_EA            2
 ----------------------------------------------------
       Standard Nuclear Orientation (Angstroms)
    I     Atom         X            Y            Z
 ----------------------------------------------------
    1      O       0.000000    -0.001000     0.033901
    2      S       0.000000     0.000000     1.483861
 ----------------------------------------------------
 Nuclear Repulsion Energy =    46.7148597998 hartrees
 There are       13 alpha and       11 beta electrons

                       Distance Matrix (Angstroms)
             O (  1)
   S (  2)  1.449960
 
 Requested basis set is G3large
 There are 29 shells and 108 basis functions
 A cutoff of  1.0D-11 yielded    424 shell pairs
 There are   5949 function pairs (  8269 Cartesian)
Evaluating contribution to one-electron hamiltonian from nuclear
 Smallest overlap matrix eigenvalue = 1.62E-03
 Multipole matrices computed through 2nd order
 Guess MOs from SCF MO coefficient file
Reading MOs from coefficient file
Reading MOs from coefficient file
 An unrestricted hybrid HF-DFT SCF calculation will be
 performed using Pulay DIIS extrapolation
 Exchange:     1.0000 Hartree-Fock + 1.0000 BNL
 Correlation:  1.0000 LYP
 Using SG-1 standard quadrature grid
 SCF converges when DIIS error is below 1.0E-08
 ---------------------------------------
  Cycle       Energy         DIIS Error
 ---------------------------------------
    1    -471.1050064878      5.25E-05
    2    -471.1050089072      6.22E-06
    3    -471.1050090829      2.48E-06
    4    -471.1050091211      9.17E-07
    5    -471.1050091349      3.98E-07
    6    -471.1050091381      3.37E-07
    7    -471.1050091389      8.52E-08
    8    -471.1050091390      1.74E-08
    9    -471.1050091390      5.98E-09 Convergence criterion met
 ---------------------------------------
 One-Electron    Energy =  -745.3019565660
 Total Coulomb   Energy =   259.3640244232
 Alpha Exchange  Energy =    -3.4160251197
 Beta  Exchange  Energy =    -2.8995857699
 DFT   Exchange  Energy =   -24.6245209396
 DFT Correlation Energy =    -0.9418049668
 Nuclear Repu.   Energy =    46.7148597998
 Nuclear Attr.   Energy = -1215.5111171979
 Kinetic         Energy =   470.2091606319
 <S^2> = 2.0144
 SCF time:  CPU 26.87 s  wall 27.47 s
 Final Alpha MO Eigenvalues
            1           2           3           4           5           6
    1 -88.0704002 -18.9215999  -8.0128491  -6.0538734  -6.0538734  -6.0532862
            7           8           9          10          11          12
    1  -1.2865170  -0.8590946  -0.6292171  -0.6292171  -0.6110406  -0.3977342
           13          14          15          16          17          18
    1  -0.3977342   0.0581452   0.0595892   0.0917451   0.0917451   0.1738810
 Final Beta MO Eigenvalues
            1           2           3           4           5           6
    1 -88.0627171 -18.8997167  -8.0046375  -6.0483242  -6.0412443  -6.0412443
            7           8           9          10          11          12
    1  -1.2511116  -0.7702905  -0.5719914  -0.5437473  -0.5437473  -0.0243950
           13          14          15          16
    1  -0.0243950   0.0557535   0.0627438   0.0953051
 Analysis of SCF Wavefunction
 
 --------------------------------------------------------------
                    Orbital Energies (a.u.)
 --------------------------------------------------------------
 
 Alpha MOs
 -- Occupied --
-88.070 -18.922  -8.013  -6.054  -6.054  -6.053  -1.287  -0.859
 -0.629  -0.629  -0.611  -0.398  -0.398
 -- Virtual --
  0.058   0.060   0.092   0.092   0.174   0.243   0.259   0.259
  0.282   0.282   0.319   0.400   0.400   0.452   0.471   0.471
  0.619   0.921   0.921   0.962   0.962   0.991   1.038   1.039
  1.043   1.043   1.080   1.109   1.131   1.131   1.184   1.184
  1.418   1.648   1.784   1.784   1.821   1.821   2.189   2.204
  2.204   2.705   3.510   3.510   3.516   3.516   3.530   3.530
  3.666   4.552   4.555   4.625   4.625   4.713   4.972   4.972
[...]
    1      O       0.000000     0.000000     0.033901
    2      S       0.000000     0.000000     1.484861
 ----------------------------------------------------
 Nuclear Repulsion Energy =    46.6826750680 hartrees
 There are       13 alpha and       11 beta electrons

                       Distance Matrix (Angstroms)
             O (  1)
   S (  2)  1.450960
 
 Requested basis set is G3large
 There are 29 shells and 108 basis functions
 A cutoff of  1.0D-11 yielded    424 shell pairs
 There are   5949 function pairs (  8269 Cartesian)
Evaluating contribution to one-electron hamiltonian from nuclear
 Smallest overlap matrix eigenvalue = 1.62E-03
 Multipole matrices computed through 2nd order
 Guess MOs from SCF MO coefficient file
Reading MOs from coefficient file
Reading MOs from coefficient file
 An unrestricted hybrid HF-DFT SCF calculation will be
 performed using Pulay DIIS extrapolation
 Exchange:     1.0000 Hartree-Fock + 1.0000 BNL
 Correlation:  1.0000 LYP
 Using SG-1 standard quadrature grid
 SCF converges when DIIS error is below 1.0E-08
 ---------------------------------------
  Cycle       Energy         DIIS Error
 ---------------------------------------
    1    -471.1040328917      7.24E-05
    2    -471.1050076193      1.00E-05
    3    -471.1050077630      5.23E-06
    4    -471.1050077888      1.96E-06
    5    -471.1050077972      1.14E-06
    6    -471.1050078018      2.45E-07
    7    -471.1050078029      1.29E-07
    8    -471.1050078034      5.21E-08
    9    -471.1050078034      9.28E-09 Convergence criterion met
 ---------------------------------------
 One-Electron    Energy =  -745.2384410780
 Total Coulomb   Energy =   259.3318050805
 Alpha Exchange  Energy =    -3.4159883127
 Beta  Exchange  Energy =    -2.8994260044
 DFT   Exchange  Energy =   -24.6238629075
 DFT Correlation Energy =    -0.9417696492
 Nuclear Repu.   Energy =    46.6826750680
 Nuclear Attr.   Energy = -1215.4441630391
 Kinetic         Energy =   470.2057219611
 <S^2> = 2.0145
 SCF time:  CPU 26.91 s  wall 27.35 s
 Final Alpha MO Eigenvalues
            1           2           3           4           5           6
    1 -88.0705221 -18.9217095  -8.0129378  -6.0539651  -6.0539651  -6.0533802
            7           8           9          10          11          12
    1  -1.2860730  -0.8592653  -0.6289726  -0.6289726  -0.6109250  -0.3979130
           13          14          15          16          17          18
    1  -0.3979130   0.0581252   0.0595281   0.0917387   0.0917387   0.1737375
 Final Beta MO Eigenvalues
            1           2           3           4           5           6
    1 -88.0628377 -18.8998087  -8.0047256  -6.0484185  -6.0413346  -6.0413346
            7           8           9          10          11          12
    1  -1.2506186  -0.7704574  -0.5718985  -0.5434087  -0.5434087  -0.0245584
           13          14          15          16
    1  -0.0245584   0.0557513   0.0626967   0.0952913
 Analysis of SCF Wavefunction
 
 --------------------------------------------------------------
                    Orbital Energies (a.u.)
 --------------------------------------------------------------
 
 Alpha MOs
 -- Occupied --
-88.071 -18.922  -8.013  -6.054  -6.054  -6.053  -1.286  -0.859
 -0.629  -0.629  -0.611  -0.398  -0.398
 -- Virtual --
  0.058   0.060   0.092   0.092   0.174   0.243   0.259   0.259
  0.282   0.282   0.319   0.400   0.400   0.452   0.471   0.471
  0.618   0.921   0.921   0.962   0.962   0.991   1.038   1.039
  1.043   1.043   1.079   1.109   1.131   1.131   1.184   1.184
  1.417   1.648   1.784   1.784   1.821   1.821   2.189   2.203
  2.203   2.705   3.510   3.510   3.516   3.516   3.530   3.530
  3.665   4.552   4.555   4.625   4.625   4.713   4.971   4.971
  5.138   5.138   5.215   5.215   5.518   5.791   5.791   6.367
  6.875   6.876   7.254   7.254   7.477   8.829  17.044  17.044
 17.654  23.443  23.556  23.657  23.657  23.822  30.937  30.937
 30.943  30.944  30.975  30.975  31.032  43.654  43.738  43.860
 43.860  43.865  45.705  45.705  46.317  50.039 189.664
 
 Beta MOs
 -- Occupied --
-88.063 -18.900  -8.005  -6.048  -6.041  -6.041  -1.251  -0.770
 -0.572  -0.543  -0.543
 -- Virtual --
 -0.025  -0.025   0.056   0.063   0.095   0.095   0.190   0.245
  0.268   0.268   0.321   0.321   0.321   0.428   0.428   0.459
  0.493   0.493   0.632   0.937   0.937   0.983   0.983   0.997
  1.066   1.066   1.082   1.082   1.098   1.124   1.149   1.149
  1.209   1.209   1.438   1.671   1.821   1.821   1.852   1.852
  2.198   2.226   2.226   2.724   3.544   3.544   3.547   3.547
  3.586   3.586   3.690   4.577   4.579   4.641   4.641   4.733
  5.020   5.020   5.184   5.184   5.248   5.248   5.542   5.819
  5.819   6.392   6.946   6.947   7.299   7.299   7.511   8.846
 17.061  17.061  17.659  23.460  23.572  23.667  23.667  23.831
 30.944  30.944  30.949  30.949  30.980  30.980  31.036  43.709
 43.793  43.898  43.898  43.898  45.734  45.734  46.332  50.065
189.672
 --------------------------------------------------------------
 
          Ground-State Mulliken Net Atomic Charges

     Atom                 Charge (a.u.)    Spin (a.u.)
  --------------------------------------------------------
      1 O                    -0.339547       0.643144
      2 S                     0.339547       1.356856
  --------------------------------------------------------
  Sum of atomic charges =     0.000000
  Sum of spin   charges =     2.000000

 -----------------------------------------------------------------
                    Cartesian Multipole Moments
 -----------------------------------------------------------------
    Charge (ESU x 10^10)
                 0.0000
    Dipole Moment (Debye)
         X       0.0000      Y       0.0000      Z       1.8031
       Tot       1.8031
    Quadrupole Moments (Debye-Ang)
        XX     -17.5877     XY       0.0000     YY     -17.5877
        XZ       0.0000     YZ       0.0000     ZZ     -15.1633
    Octapole Moments (Debye-Ang^2)
       XXX       0.0000    XXY       0.0000    XYY       0.0000
       YYY       0.0000    XXZ     -18.5776    XYZ       0.0000
       YYZ     -18.5776    XZZ       0.0000    YZZ       0.0000
       ZZZ     -49.9627
    Hexadecapole Moments (Debye-Ang^3)
      XXXX     -19.8844   XXXY       0.0000   XXYY      -6.6280
      XYYY       0.0000   YYYY     -19.8844   XXXZ       0.0000
      XXYZ       0.0000   XYYZ       0.0000   YYYZ       0.0000
      XXZZ     -34.6661   XYZZ       0.0000   YYZZ     -34.6661
      XZZZ       0.0000   YZZZ       0.0000   ZZZZ    -168.9255
 -----------------------------------------------------------------
 Calculating analytic gradient of the SCF energy
 Gradient of AOints
            1           2
    1  -0.0000000   0.0000000
    2   0.0000008  -0.0000008
    3  19.2737029 -19.2737029
 Gradient of XC Energy
            1           2
    1   0.0000000  -0.0000000
    2  -0.0000000   0.0000000
    3  -0.3460284   0.3460284
 Gradient of SCF Energy
            1           2
    1   0.0000000  -0.0000000
    2  -0.0000000   0.0000000
    3  -0.0013557   0.0013557
 Max gradient component =       1.356E-03
 RMS gradient           =       7.827E-04
 Gradient time:  CPU 13.29 s  wall 13.35 s
 Writing REM_CC_EA            2
 ----------------------------------------------------
       Standard Nuclear Orientation (Angstroms)
    I     Atom         X            Y            Z
 ----------------------------------------------------
    1      O       0.000000     0.000000     0.033901
    2      S       0.000000     0.000000     1.482861
 ----------------------------------------------------
 Nuclear Repulsion Energy =    46.7471111916 hartrees
 There are       13 alpha and       11 beta electrons

                       Distance Matrix (Angstroms)
             O (  1)
   S (  2)  1.448960
 
 Requested basis set is G3large
 There are 29 shells and 108 basis functions
 A cutoff of  1.0D-11 yielded    424 shell pairs
 There are   5949 function pairs (  8269 Cartesian)
Evaluating contribution to one-electron hamiltonian from nuclear
 Smallest overlap matrix eigenvalue = 1.61E-03
 Multipole matrices computed through 2nd order
 Guess MOs from SCF MO coefficient file
Reading MOs from coefficient file
Reading MOs from coefficient file
 An unrestricted hybrid HF-DFT SCF calculation will be
 performed using Pulay DIIS extrapolation
 Exchange:     1.0000 Hartree-Fock + 1.0000 BNL
 Correlation:  1.0000 LYP
 Using SG-1 standard quadrature grid
 SCF converges when DIIS error is below 1.0E-08
 ---------------------------------------
  Cycle       Energy         DIIS Error
 ---------------------------------------
    1    -471.1069654712      1.35E-04
    2    -471.1050075192      1.90E-05
    3    -471.1050079226      1.00E-05
    4    -471.1050079984      3.46E-06
    5    -471.1050080129      1.79E-06
    6    -471.1050080184      3.09E-07
    7    -471.1050080194      1.64E-07
    8    -471.1050080197      8.80E-08
    9    -471.1050080196      2.16E-08
   10    -471.1050080197      2.91E-09 Convergence criterion met
 ---------------------------------------
 One-Electron    Energy =  -745.3655968821
 Total Coulomb   Energy =   259.3963065499
 Alpha Exchange  Energy =    -3.4160619393
 Beta  Exchange  Energy =    -2.8997456254
 DFT   Exchange  Energy =   -24.6251809719
 DFT Correlation Energy =    -0.9418403426
 Nuclear Repu.   Energy =    46.7471111916
 Nuclear Attr.   Energy = -1215.5782118633
 Kinetic         Energy =   470.2126149813
 <S^2> = 2.0144
 SCF time:  CPU 29.68 s  wall 30.18 s
 Final Alpha MO Eigenvalues
            1           2           3           4           5           6
    1 -88.0702778 -18.9214903  -8.0127603  -6.0537815  -6.0537815  -6.0531920
            7           8           9          10          11          12
    1  -1.2869621  -0.8589237  -0.6294624  -0.6294624  -0.6111564  -0.3975551
           13          14          15          16          17          18
    1  -0.3975551   0.0581638   0.0596515   0.0917515   0.0917515   0.1740241
 Final Beta MO Eigenvalues
            1           2           3           4           5           6
    1 -88.0625961 -18.8996247  -8.0045492  -6.0482297  -6.0411538  -6.0411538
            7           8           9          10          11          12
    1  -1.2516056  -0.7701235  -0.5720844  -0.5440868  -0.5440868  -0.0242315
           13          14          15          16
    1  -0.0242315   0.0557557   0.0627909   0.0953191
 Analysis of SCF Wavefunction
 
 --------------------------------------------------------------
                    Orbital Energies (a.u.)
 --------------------------------------------------------------
 
 Alpha MOs
 -- Occupied --
-88.070 -18.921  -8.013  -6.054  -6.054  -6.053  -1.287  -0.859
 -0.629  -0.629  -0.611  -0.398  -0.398
 -- Virtual --
  0.058   0.060   0.092   0.092   0.174   0.243   0.259   0.259
  0.282   0.282   0.319   0.400   0.400   0.452   0.471   0.471
  0.619   0.921   0.921   0.962   0.962   0.991   1.038   1.039
  1.043   1.043   1.080   1.109   1.130   1.130   1.184   1.184
  1.418   1.649   1.785   1.785   1.821   1.821   2.189   2.204
  2.204   2.706   3.510   3.510   3.517   3.517   3.530   3.530
  3.667   4.552   4.555   4.626   4.626   4.714   4.972   4.972
  5.138   5.138   5.216   5.216   5.522   5.795   5.795   6.371
  6.876   6.876   7.255   7.255   7.479   8.831  17.045  17.045
 17.659  23.444  23.556  23.658  23.658  23.823  30.937  30.937
 30.943  30.944  30.976  30.976  31.033  43.654  43.738  43.860
 43.860  43.866  45.706  45.706  46.323  50.039 189.667
 
 Beta MOs
 -- Occupied --
-88.063 -18.900  -8.005  -6.048  -6.041  -6.041  -1.252  -0.770
 -0.572  -0.544  -0.544
 -- Virtual --
 -0.024  -0.024   0.056   0.063   0.095   0.095   0.190   0.245
  0.267   0.267   0.321   0.321   0.321   0.429   0.429   0.459
  0.493   0.493   0.634   0.937   0.937   0.983   0.983   0.996
  1.066   1.066   1.082   1.082   1.099   1.124   1.149   1.149
  1.209   1.209   1.439   1.671   1.822   1.822   1.852   1.852
  2.199   2.227   2.227   2.726   3.545   3.545   3.546   3.546
  3.586   3.586   3.691   4.577   4.579   4.642   4.642   4.733
  5.020   5.020   5.184   5.184   5.248   5.249   5.546   5.823
  5.823   6.396   6.947   6.947   7.300   7.300   7.512   8.848
 17.062  17.062  17.664  23.460  23.572  23.668  23.668  23.831
 30.945  30.945  30.949  30.949  30.980  30.980  31.037  43.709
 43.794  43.898  43.898  43.898  45.735  45.735  46.339  50.066
189.675
 --------------------------------------------------------------
 
          Ground-State Mulliken Net Atomic Charges

     Atom                 Charge (a.u.)    Spin (a.u.)
  --------------------------------------------------------
      1 O                    -0.339362       0.641703
      2 S                     0.339362       1.358297
  --------------------------------------------------------
  Sum of atomic charges =     0.000000
  Sum of spin   charges =     2.000000

 -----------------------------------------------------------------
                    Cartesian Multipole Moments
 -----------------------------------------------------------------
    Charge (ESU x 10^10)
                 0.0000
    Dipole Moment (Debye)
         X       0.0000      Y       0.0000      Z       1.7967
       Tot       1.7967
    Quadrupole Moments (Debye-Ang)
        XX     -17.5841     XY       0.0000     YY     -17.5841
        XZ       0.0000     YZ       0.0000     ZZ     -15.1826
    Octapole Moments (Debye-Ang^2)
       XXX       0.0000    XXY       0.0000    XYY       0.0000
       YYY       0.0000    XXZ     -18.5566    XYZ       0.0000
       YYZ     -18.5566    XZZ       0.0000    YZZ       0.0000
       ZZZ     -49.9394
    Hexadecapole Moments (Debye-Ang^3)
      XXXX     -19.8801   XXXY       0.0000   XXYY      -6.6266
      XYYY       0.0000   YYYY     -19.8801   XXXZ       0.0000
      XXYZ       0.0000   XYYZ       0.0000   YYYZ       0.0000
      XXZZ     -34.6042   XYZZ       0.0000   YYZZ     -34.6042
      XZZZ       0.0000   YZZZ       0.0000   ZZZZ    -168.6255
 -----------------------------------------------------------------
 Calculating analytic gradient of the SCF energy
 Gradient of AOints
            1           2
    1   0.0000000  -0.0000000
    2   0.0000000  -0.0000000
    3  19.3016874 -19.3016874
 Gradient of XC Energy
            1           2
    1  -0.0000000   0.0000000
    2  -0.0000000   0.0000000
    3  -0.3468644   0.3468644
 Gradient of SCF Energy
            1           2
    1  -0.0000000   0.0000000
    2  -0.0000000   0.0000000
    3   0.0012462  -0.0012462
 Max gradient component =       1.246E-03
 RMS gradient           =       7.195E-04
 Gradient time:  CPU 13.00 s  wall 13.08 s
Dipole drv :
gprntSymmMtrx error report: 
 Final Hessian.
            1           2           3           4           5           6
    1   0.0010445  -0.0000002  -0.0000001  -0.0010479   0.0000003   0.0000001
    2  -0.0000002   0.0010429   0.0000035   0.0000002  -0.0010428  -0.0000035
    3  -0.0000001   0.0000035   0.6884531  -0.0000059  -0.0000037  -0.6884532
    4  -0.0010479   0.0000002  -0.0000059   0.0010512  -0.0000004   0.0000059
    5   0.0000003  -0.0010428  -0.0000037  -0.0000004   0.0010427   0.0000036
    6   0.0000001  -0.0000035  -0.6884532   0.0000059   0.0000036   0.6884533
 Writing REM_CC_EA            2
 ----------------------------------------------------
       Standard Nuclear Orientation (Angstroms)
    I     Atom         X            Y            Z
 ----------------------------------------------------
    1      O       0.000000     0.000000     0.033901
    2      S       0.000000     0.000000     1.483861
 ----------------------------------------------------
 Nuclear Repulsion Energy =    46.7148709098 hartrees
 There are       13 alpha and       11 beta electrons
 old dipole drv.
            1           2           3           4           5           6
    1  -0.2586563   0.0000073  -0.0000004   0.2587009  -0.0000092   0.0000019
    2   0.0000003  -0.2586863  -0.0000098  -0.0000036   0.2586882   0.0000097
    3  -0.0000053  -0.0000042  -0.6667336   0.0000030   0.0000049   0.6667334
 New transposed dipole drv.
            1           2           3
    1  -0.2586563   0.0000003  -0.0000053
    2   0.0000073  -0.2586863  -0.0000042
    3  -0.0000004  -0.0000098  -0.6667336
    4   0.2587009  -0.0000036   0.0000030
    5  -0.0000092   0.2586882   0.0000049
    6   0.0000019   0.0000097   0.6667334
FINAL TENSOR RESULT:
Order 2, Length 6
Order 1, Length 6
   0.0010445  -0.0000002  -0.0000001  -0.0010479   0.0000003   0.0000001
Order 1, Length 6
  -0.0000002   0.0010429   0.0000035   0.0000002  -0.0010428  -0.0000035
Order 1, Length 6
  -0.0000001   0.0000035   0.6884531  -0.0000059  -0.0000037  -0.6884532
Order 1, Length 6
  -0.0010479   0.0000002  -0.0000059   0.0010512  -0.0000004   0.0000059
Order 1, Length 6
   0.0000003  -0.0010428  -0.0000037  -0.0000004   0.0010427   0.0000036
Order 1, Length 6
   0.0000001  -0.0000035  -0.6884532   0.0000059   0.0000036   0.6884533


 # Finishing finite difference calculation for IDERIV #
 ######################################################
 ######################################################
 Requested basis set is G3large
 There are 29 shells and 108 basis functions
 **********************************************************************
 **                                                                  **
 **                       VIBRATIONAL ANALYSIS                       **
 **                       --------------------                       **
 **                                                                  **
 **        VIBRATIONAL FREQUENCIES (CM**-1) AND NORMAL MODES         **
 **     FORCE CONSTANTS (mDYN/ANGSTROM) AND REDUCED MASSES (AMU)     **
 **                  INFRARED INTENSITIES (KM/MOL)                   **
 **                                                                  **
 **********************************************************************
 

 Mode:                 1
 Frequency:      1306.28
 Force Cnst:     19.2962
 Red. Mass:      19.1932
 IR Active:          YES
 IR Intens:       40.659
 Raman Active:       YES
               X      Y      Z
 O          0.000  0.000  0.894
 S          0.000  0.000 -0.447
 TransDip   0.000  0.000 -0.204

 STANDARD THERMODYNAMIC QUANTITIES AT   298.18 K  AND     1.00 ATM

   This Molecule has  0 Imaginary Frequencies
   Zero point vibrational energy:        1.867 kcal/mol

   Atom    1 Element O  Has Mass   15.99491
   Atom    2 Element S  Has Mass   31.97207
   Molecular Mass:    47.966980 amu
   Principal axes and moments of inertia in atomic units:
                             1           2           3
    Eigenvalues --        0.00000    80.04235    80.04235
          X               0.00000     0.00000     1.00000
          Y               0.00000     1.00000     0.00000
          Z               1.00000     0.00000     0.00000
   Rotational Symmetry Number is   1
   The Molecule is a Symmetric Top
   Translational Enthalpy:        0.889 kcal/mol
   Rotational Enthalpy:           0.889 kcal/mol
   Vibrational Enthalpy:          1.874 kcal/mol
   gas constant (RT):             0.593 kcal/mol
   Translational Entropy:        37.529  cal/mol.K
   Rotational Entropy:          -42.776  cal/mol.K
   Vibrational Entropy:           0.027  cal/mol.K

   Total Enthalpy:                4.244 kcal/mol
   Total Entropy:                -5.221  cal/mol.K
 Total job time:  511.68s(wall), 504.77s(cpu) 
 Thu Apr 21 23:34:42 2011

        *************************************************************
        *                                                           *
        *  Thank you very much for using Q-Chem.  Have a nice day.  *
        *                                                           *
        *************************************************************


0 sent ACK to 0 
now end server 0 ... 
