Process 0 of 1 is on cl152.stfx.acenet.ca - thread support 1
initial socket setup ...start
initial socket setup ...done 
now start server 0 ... 

cmd = /usr/bin/ssh clhead /usr/local/qchem/bin/get_hostid 1943537439 > /scratch/tmp/6063914.1.medium.q/qchem19661/lic.dat
                  Welcome to Q-Chem
     A Quantum Leap Into The Future Of Chemistry

 Y. Shao, L. Fusti-Molnar, Y. Jung, J. Kussmann, C. Ochsenfeld,
 S. T. Brown, A. T. B. Gilbert, L. V. Slipchenko,S. V. Levchenko,
 D. P. O'Neill, R. A. DiStasio Jr., R. C. Lochan, T. Wang,
 G. J. O. Beran, N. A. Besley, J. M. Herbert, C. Y. Lin,
 T. Van Voorhis, S. H. Chien, A. Sodt, R. P. Steele, 
 V. A. Rassolov, P. E. Maslen, P. P. Korambath, R. D. Adamson,
 B. Austin, J. Baker, E. F. C. Byrd, H. Dachsel, R. J. Doerksen,
 A. Dreuw, B. D. Dunietz, A. D. Dutoi, T. R. Furlani,
 S. R. Gwaltney, A. Heyden, S. Hirata, C.-P. Hsu, G. Kedziora,
 R. Z. Khaliullin, P. Klunzinger, A. M. Lee, M. S. Lee, W. Liang,
 I. Lotan, N. Nair, B. Peters, E. I. Proynov, P. A. Pieniazek, 
 Y. M. Rhee, J. Ritchie, E. Rosta, C. D. Sherrill, 
 A. C. Simmonett, J. E. Subotnik, H. L. Woodcock III,
 W. Zhang, A. T. Bell, A. K. Chakraborty, D. M. Chipman,
 F. J. Keil, A. Warshel, W. J. Hehre, H. F. Schaefer III,
 J. Kong, A. I. Krylov, P. M. W. Gill, M. Head-Gordon,
 Q-Chem, Version 3.1, Q-Chem, Inc., Pittsburgh, PA (2007).

 Additional authors for Version 3.1: 
 Z. Gan, Y. Zhao, N. E. Schultz, D. Truhlar, E. Epifanovsky and M. Oana.

 Additional authors for Version 3.2: 
 R. Baer, B. R. Brooks, D. Casanova, J.-D. Chai, C.-L. Cheng, 
 C. Cramer, D. Crittenden, A. Ghysels, G. Hawkins, E. G. Hohenstein, 
 C. Kelley, W. Kurlancheek, D. Liotard, E. Livshits, P. Manohar, 
 A. Marenich, D. Neuhauser, R. Olson, M. A. Rohrdanz, K. S. Thanthiriwatte, 
 A. J. W. Thom, V. Vanovschi, C. F. Williams, Q. Wu and Z.-Q. You. 


 Intel X86 Linux Version

 Q-chem begins on Sun Jul  7 09:39:19 2013  

 Parallel job on  1  processors
Processing $rem in /usr/local/qchem/config/preferences.

theFileMan(): MAXOPENFILES=974 MAX_SUB_FILE_NUM=16
Maximum size of a physical file is 2.0 GB, maximum size of a tmp-file is 32.0 GB


--------------------------------------------------------------
User input:
--------------------------------------------------------------

$molecule
-1,2
N          0.00000        0.00000        0.02589
N          0.00000        0.00000        1.13189
O          0.00000        0.00000        2.30331
$end

$comment
negative
$end

$xc_functional
C PBE   1.00
X wPBE  1.00
$end

$rem
SYMMETRY_DECOMPOSITION	0
exchange 		general
LRC_DFT                 true
BASIS                   g3large
omega			470
mem_static              760
max_scf_cycles          200
scf_final_print         1
sym_ignore              true
$end

--------------------------------------------------------------
 Writing REM_CC_EA            3
 ----------------------------------------------------
       Standard Nuclear Orientation (Angstroms)
    I     Atom         X            Y            Z
 ----------------------------------------------------
    1      N       0.000000     0.000000     0.025890
    2      N       0.000000     0.000000     1.131890
    3      O       0.000000     0.000000     2.303310
 ----------------------------------------------------
 Nuclear Repulsion Energy =    61.7540562782 hartrees
 There are       12 alpha and       11 beta electrons
 Requested basis set is G3large
 There are 30 shells and 126 basis functions

Total QAlloc Memory Limit   2000 MB
Mega-Array Size       743 MB
MEM_STATIC part       760 MB

                       Distance Matrix (Angstroms)
             N (  1)   N (  2)
   N (  2)  1.106000
   O (  3)  2.277420  1.171420
 
 A cutoff of  1.0D-08 yielded    434 shell pairs
 There are   7827 function pairs ( 10283 Cartesian)
Evaluating contribution to one-electron hamiltonian from nuclear
 Smallest overlap matrix eigenvalue = 4.25E-05

 Q-Chem warning in module mkSTV.C, line 194:

 Overlap eigenvalue is smaller than square root of threshold

 Multipole matrices computed through 2nd order

  Scale SEOQF with 1.000000e-01/1.000000e-01/1.000000e-01

 Standard Electronic Orientation quadrupole field applied
 Nucleus-field energy     =    -0.0000000055 hartrees
 Guess from superposition of atomic densities
 Warning:  Energy on first SCF cycle will be non-variational
 Long-range K will be added via erf
 Coulomb attenuation parameter = 0.47 bohr**(-1)
 An unrestricted Kohn-Sham SCF calculation will be
 performed using Pulay DIIS extrapolation
 Exchange:  wPBE + LR-HF      Correlation:  PBE
 Using SG-1 standard quadrature grid
 SCF converges when DIIS error is below 1.0E-05
 Requested basis set is G3large
 There are 30 shells and 126 basis functions
 A cutoff of  1.0D-08 yielded    434 shell pairs
 There are   7827 function pairs ( 10283 Cartesian)
 Warning!  Inaccurate integrated density:
   Number of electrons =    23
   Numerical integral  =    22.000008617596
   Relative error      =    -4.3477886191 %
 ---------------------------------------
  Cycle       Energy         DIIS Error
 ---------------------------------------
    1    -185.3085300151      4.86E-02
    2    -184.4187341406      7.08E-03
    3    -184.4552802072      6.53E-03
    4    -184.5095913509      7.85E-04
    5    -184.5108321376      4.28E-04
    6    -184.5114121117      2.04E-04
    7    -184.5117032026      1.05E-04
    8    -184.5118519069      5.29E-05
    9    -184.5120028191      2.84E-05
   10    -184.5120514880      6.64E-06 Convergence criterion met
 ---------------------------------------
 One-Electron    Energy =  -379.6512393806
 Total Coulomb   Energy =   155.9279641472
 Alpha Exchange  Energy =    -2.7620066502
 Beta  Exchange  Energy =    -2.5510185847
 DFT   Exchange  Energy =   -16.4579409631
 DFT Correlation Energy =    -0.7718663291
 Nuclear Repu.   Energy =    61.7540562727
 Nuclear Attr.   Energy =  -564.3553218123
 Kinetic         Energy =   184.7040824317
 <S^2> = 0.7535
 SCF time:  CPU 31.44 s  wall 31.92 s
 Final Alpha MO Eigenvalues
            1           2           3           4           5           6
    1 -18.7893786 -14.1040896 -14.0058826  -1.1236272  -0.9491442  -0.4720214
            7           8           9          10          11          12
    1  -0.4484332  -0.4341246  -0.3337412  -0.2158526  -0.1864115   0.0720942
           13          14          15          16          17
    1   0.2536803   0.3063216   0.3267975   0.3609824   0.3758619
 Final Beta MO Eigenvalues
            1           2           3           4           5           6
    1 -18.7872385 -14.0919192 -14.0019000  -1.1100028  -0.9415551  -0.4576058
            7           8           9          10          11          12
    1  -0.4256978  -0.4001931  -0.3154840  -0.1843436  -0.1678925   0.2565460
           13          14          15          16
    1   0.3101481   0.3324853   0.3413941   0.3777651
 Analysis of SCF Wavefunction
 
 --------------------------------------------------------------
                    Orbital Energies (a.u.)
 --------------------------------------------------------------
 
 Alpha MOs
 -- Occupied --
-18.789 -14.104 -14.006  -1.124  -0.949  -0.472  -0.448  -0.434
 -0.334  -0.216  -0.186   0.072
 -- Virtual --
  0.254   0.306   0.327   0.361   0.376   0.393   0.407   0.423
  0.481   0.506   0.515   0.518   0.586   0.691   0.933   1.060
  1.062   1.147   1.153   1.171   1.171   1.206   1.250   1.375
  1.422   1.423   1.487   1.504   1.511   1.538   1.539   1.564
  1.996   1.996   2.019   2.102   2.102   2.356   2.745   2.746
  2.927   3.127   3.654   3.654   3.661   3.661   3.776   3.949
  3.956   4.024   4.026   4.148   4.148   4.327   4.329   4.618
  4.733   4.734   4.786   4.786   4.991   5.004   5.020   5.022
  5.172   5.173   5.208   5.209   5.407   5.407   5.487   5.489
  5.798   6.031   6.032   6.163   6.404   6.405   7.111   7.112
  7.417   7.569   7.569   7.920   7.922   8.145   9.163  35.769
 36.510  37.610  37.612  37.990  37.992  38.697  39.761  40.630
 40.740  40.741  40.836  40.838  40.850  40.962  41.160  41.161
 41.999  43.937  44.000  44.140  44.141  44.417  46.029  46.029
 46.932  50.744
 
 Beta MOs
 -- Occupied --
-18.787 -14.092 -14.002  -1.110  -0.942  -0.458  -0.426  -0.400
 -0.315  -0.184  -0.168
 -- Virtual --
  0.257   0.310   0.332   0.341   0.378   0.385   0.410   0.429
  0.447   0.485   0.517   0.525   0.527   0.592   0.708   0.938
  1.064   1.082   1.158   1.176   1.183   1.183   1.212   1.256
  1.382   1.425   1.435   1.493   1.513   1.531   1.555   1.556
  1.575   2.009   2.009   2.025   2.105   2.121   2.364   2.748
  2.763   2.935   3.138   3.664   3.665   3.683   3.683   3.785
  3.969   4.001   4.028   4.050   4.171   4.172   4.329   4.347
  4.631   4.749   4.749   4.791   4.810   5.000   5.010   5.060
  5.062   5.203   5.204   5.210   5.227   5.414   5.414   5.489
  5.504   5.803   6.041   6.041   6.168   6.411   6.433   7.122
  7.122   7.424   7.569   7.580   7.923   7.941   8.152   9.167
 35.778  36.520  37.617  37.632  37.997  38.012  38.700  39.769
 40.656  40.751  40.765  40.839  40.856  40.861  40.968  41.161
 41.174  42.003  43.944  44.006  44.140  44.146  44.418  46.031
 46.036  46.932  50.746
 --------------------------------------------------------------
 
          Ground-State Mulliken Net Atomic Charges

     Atom                 Charge (a.u.)    Spin (a.u.)
  --------------------------------------------------------
      1 N                    -1.014780       0.753233
      2 N                     0.628439       0.096970
      3 O                    -0.613659       0.149797
  --------------------------------------------------------
  Sum of atomic charges =    -1.000000
  Sum of spin   charges =     1.000000

 -----------------------------------------------------------------
                    Cartesian Multipole Moments
 -----------------------------------------------------------------
    Charge (ESU x 10^10)
                -4.8032
    Dipole Moment (Debye)
         X       0.0069      Y       0.0096      Z      -3.6468
       Tot       3.6468
    Quadrupole Moments (Debye-Ang)
        XX     -19.3480     XY      -1.4870     YY     -20.3843
        XZ       0.0034     YZ       0.0051     ZZ     -33.2649
    Octapole Moments (Debye-Ang^2)
       XXX       0.0323    XXY       0.0151    XYY       0.0108
       YYY       0.0454    XXZ     -18.9197    XYZ       0.0304
       YYZ     -18.8987    XZZ       0.0207    YZZ       0.0301
       ZZZ     -95.7521
    Hexadecapole Moments (Debye-Ang^3)
      XXXX     -24.9830   XXXY      -3.6143   XXYY      -9.1672
      XYYY      -3.6142   YYYY     -30.0206   XXXZ       0.0186
      XXYZ       0.0091   XYYZ       0.0062   YYYZ       0.0272
      XXZZ     -49.1130   XYZZ      -2.6352   YYZZ     -50.9497
      XZZZ       0.0454   YZZZ       0.0675   ZZZZ    -352.1811
 -----------------------------------------------------------------
 Total job time:  32.06s(wall), 31.58s(cpu) 
 Sun Jul  7 09:39:51 2013

        *************************************************************
        *                                                           *
        *  Thank you very much for using Q-Chem.  Have a nice day.  *
        *                                                           *
        *************************************************************


0 sent ACK to 0 
now end server 0 ... 
 
**********************************************************************
Job 2 of 3 
**********************************************************************
 
Process 0 of 1 is on cl152.stfx.acenet.ca - thread support 1
initial socket setup ...start
initial socket setup ...done 
now start server 0 ... 

cmd = /usr/bin/ssh clhead /usr/local/qchem/bin/get_hostid 974392374 > /scratch/tmp/6063914.1.medium.q/qchem19661/lic.dat
                  Welcome to Q-Chem
     A Quantum Leap Into The Future Of Chemistry

 Y. Shao, L. Fusti-Molnar, Y. Jung, J. Kussmann, C. Ochsenfeld,
 S. T. Brown, A. T. B. Gilbert, L. V. Slipchenko,S. V. Levchenko,
 D. P. O'Neill, R. A. DiStasio Jr., R. C. Lochan, T. Wang,
 G. J. O. Beran, N. A. Besley, J. M. Herbert, C. Y. Lin,
 T. Van Voorhis, S. H. Chien, A. Sodt, R. P. Steele, 
 V. A. Rassolov, P. E. Maslen, P. P. Korambath, R. D. Adamson,
 B. Austin, J. Baker, E. F. C. Byrd, H. Dachsel, R. J. Doerksen,
 A. Dreuw, B. D. Dunietz, A. D. Dutoi, T. R. Furlani,
 S. R. Gwaltney, A. Heyden, S. Hirata, C.-P. Hsu, G. Kedziora,
 R. Z. Khaliullin, P. Klunzinger, A. M. Lee, M. S. Lee, W. Liang,
 I. Lotan, N. Nair, B. Peters, E. I. Proynov, P. A. Pieniazek, 
 Y. M. Rhee, J. Ritchie, E. Rosta, C. D. Sherrill, 
 A. C. Simmonett, J. E. Subotnik, H. L. Woodcock III,
 W. Zhang, A. T. Bell, A. K. Chakraborty, D. M. Chipman,
 F. J. Keil, A. Warshel, W. J. Hehre, H. F. Schaefer III,
 J. Kong, A. I. Krylov, P. M. W. Gill, M. Head-Gordon,
 Q-Chem, Version 3.1, Q-Chem, Inc., Pittsburgh, PA (2007).

 Additional authors for Version 3.1: 
 Z. Gan, Y. Zhao, N. E. Schultz, D. Truhlar, E. Epifanovsky and M. Oana.

 Additional authors for Version 3.2: 
 R. Baer, B. R. Brooks, D. Casanova, J.-D. Chai, C.-L. Cheng, 
 C. Cramer, D. Crittenden, A. Ghysels, G. Hawkins, E. G. Hohenstein, 
 C. Kelley, W. Kurlancheek, D. Liotard, E. Livshits, P. Manohar, 
 A. Marenich, D. Neuhauser, R. Olson, M. A. Rohrdanz, K. S. Thanthiriwatte, 
 A. J. W. Thom, V. Vanovschi, C. F. Williams, Q. Wu and Z.-Q. You. 


 Intel X86 Linux Version

 Q-chem begins on Sun Jul  7 09:39:54 2013  

 Parallel job on  1  processors
Processing $rem in /usr/local/qchem/config/preferences.

theFileMan(): MAXOPENFILES=974 MAX_SUB_FILE_NUM=16
Maximum size of a physical file is 2.0 GB, maximum size of a tmp-file is 32.0 GB


--------------------------------------------------------------
User input:
--------------------------------------------------------------

$molecule
0,1
N          0.00000        0.00000        0.02589
N          0.00000        0.00000        1.13189
O          0.00000        0.00000        2.30331
$end

$comment
neutral
$end

$xc_functional
C PBE   1.00
X wPBE  1.00
$end


$rem
SYMMETRY_DECOMPOSITION	0
LRC_DFT                 true
exchange 		general
BASIS                   g3large
omega			470
mem_static              760
max_scf_cycles          200
scf_final_print         1
sym_ignore              true
$end

--------------------------------------------------------------
 Writing REM_CC_EA            3
 ----------------------------------------------------
       Standard Nuclear Orientation (Angstroms)
    I     Atom         X            Y            Z
 ----------------------------------------------------
    1      N       0.000000     0.000000     0.025890
    2      N       0.000000     0.000000     1.131890
    3      O       0.000000     0.000000     2.303310
 ----------------------------------------------------
 Nuclear Repulsion Energy =    61.7540562782 hartrees
 There are       11 alpha and       11 beta electrons
 Requested basis set is G3large
 There are 30 shells and 126 basis functions

Total QAlloc Memory Limit   2000 MB
Mega-Array Size       743 MB
MEM_STATIC part       760 MB

                       Distance Matrix (Angstroms)
             N (  1)   N (  2)
   N (  2)  1.106000
   O (  3)  2.277420  1.171420
 
 A cutoff of  1.0D-08 yielded    434 shell pairs
 There are   7827 function pairs ( 10283 Cartesian)
Evaluating contribution to one-electron hamiltonian from nuclear
 Smallest overlap matrix eigenvalue = 4.25E-05

 Q-Chem warning in module mkSTV.C, line 194:

 Overlap eigenvalue is smaller than square root of threshold

 Multipole matrices computed through 2nd order

  Scale SEOQF with 1.000000e-01/1.000000e-01/1.000000e-01

 Standard Electronic Orientation quadrupole field applied
 Nucleus-field energy     =    -0.0000000055 hartrees
 Guess from superposition of atomic densities
 Warning:  Energy on first SCF cycle will be non-variational
 Long-range K will be added via erf
 Coulomb attenuation parameter = 0.47 bohr**(-1)
 A restricted Kohn-Sham SCF calculation will be
 performed using Pulay DIIS extrapolation
 Exchange:  wPBE + LR-HF      Correlation:  PBE
 Using SG-1 standard quadrature grid
 SCF converges when DIIS error is below 1.0E-05
 Requested basis set is G3large
 There are 30 shells and 126 basis functions
 A cutoff of  1.0D-08 yielded    434 shell pairs
 There are   7827 function pairs ( 10283 Cartesian)
 ---------------------------------------
  Cycle       Energy         DIIS Error
 ---------------------------------------
    1    -185.3085300151      4.86E-02
    2    -184.4967482263      8.14E-03
    3    -184.4853783934      9.38E-03
    4    -184.5910767130      5.98E-04
    5    -184.5913597547      4.88E-04
    6    -184.5916625956      1.74E-04
    7    -184.5917172003      2.74E-05
    8    -184.5917218791      8.89E-06 Convergence criterion met
 ---------------------------------------
 One-Electron    Energy =  -372.8888759580
 Total Coulomb   Energy =   148.7408236301
 Alpha Exchange  Energy =    -2.5651498937
 Beta  Exchange  Energy =    -2.5651498937
 DFT   Exchange  Energy =   -16.3224963894
 DFT Correlation Energy =    -0.7449296472
 Nuclear Repu.   Energy =    61.7540562727
 Nuclear Attr.   Energy =  -557.0513391026
 Kinetic         Energy =   184.1624631447
 SCF time:  CPU 20.28 s  wall 21.01 s
 Final Alpha MO Eigenvalues
            1           2           3           4           5           6
    1 -19.0922497 -14.4813544 -14.3367278  -1.4340594  -1.2701829  -0.7528459
            7           8           9          10          11          12
    1  -0.7402861  -0.7402811  -0.6321206  -0.4769278  -0.4769074   0.0783259
           13          14          15          16
    1   0.0860479   0.0860511   0.1391636   0.1639210
 Analysis of SCF Wavefunction
 
 --------------------------------------------------------------
                    Orbital Energies (a.u.)
 --------------------------------------------------------------
 
 Alpha MOs
 -- Occupied --
-19.092 -14.481 -14.337  -1.434  -1.270  -0.753  -0.740  -0.740
 -0.632  -0.477  -0.477
 -- Virtual --
  0.078   0.086   0.086   0.139   0.164   0.164   0.214   0.220
  0.220   0.287   0.308   0.331   0.331   0.390   0.451   0.691
  0.799   0.799   0.881   0.881   0.899   0.899   0.928   0.985
  1.139   1.177   1.177   1.209   1.224   1.224   1.259   1.259
  1.309   1.726   1.726   1.763   1.822   1.822   2.070   2.468
  2.468   2.662   2.833   3.344   3.344   3.353   3.353   3.467
  3.638   3.638   3.717   3.717   3.843   3.843   4.019   4.019
  4.305   4.429   4.429   4.480   4.480   4.686   4.701   4.705
  4.705   4.860   4.860   4.907   4.907   5.123   5.123   5.195
  5.195   5.498   5.737   5.737   5.856   6.087   6.087   6.824
  6.824   7.113   7.281   7.281   7.613   7.613   7.838   8.849
 35.419  36.158  37.259  37.259  37.642  37.642  38.364  39.401
 40.261  40.371  40.409  40.476  40.476  40.519  40.604  40.818
 40.818  41.650  43.637  43.700  43.838  43.838  44.112  45.728
 45.728  46.628  50.442
 --------------------------------------------------------------
 
          Ground-State Mulliken Net Atomic Charges

     Atom                 Charge (a.u.)
  ----------------------------------------
      1 N                    -0.142276
      2 N                     0.404455
      3 O                    -0.262180
  ----------------------------------------
  Sum of atomic charges =     0.000000

 -----------------------------------------------------------------
                    Cartesian Multipole Moments
 -----------------------------------------------------------------
    Charge (ESU x 10^10)
                 0.0000
    Dipole Moment (Debye)
         X       0.0000      Y       0.0000      Z      -0.2412
       Tot       0.2412
    Quadrupole Moments (Debye-Ang)
        XX     -15.1833     XY       0.0002     YY     -15.1833
        XZ       0.0004     YZ       0.0002     ZZ     -19.8721
    Octapole Moments (Debye-Ang^2)
       XXX       0.0000    XXY       0.0000    XYY       0.0000
       YYY       0.0000    XXZ     -17.4214    XYZ      -0.0010
       YYZ     -17.4217    XZZ       0.0009    YZZ       0.0004
       ZZZ     -66.1741
    Hexadecapole Moments (Debye-Ang^3)
      XXXX     -12.1385   XXXY       0.0002   XXYY      -4.0461
      XYYY       0.0002   YYYY     -12.1383   XXXZ       0.0007
      XXYZ       0.0001   XYYZ       0.0002   YYYZ       0.0003
      XXZZ     -39.0144   XYZZ      -0.0020   YYZZ     -39.0150
      XZZZ       0.0025   YZZZ       0.0011   ZZZZ    -252.1469
 -----------------------------------------------------------------
 Total job time:  21.14s(wall), 20.40s(cpu) 
 Sun Jul  7 09:40:15 2013

        *************************************************************
        *                                                           *
        *  Thank you very much for using Q-Chem.  Have a nice day.  *
        *                                                           *
        *************************************************************


0 sent ACK to 0 
now end server 0 ... 
 
**********************************************************************
Job 3 of 3 
**********************************************************************
 
Process 0 of 1 is on cl152.stfx.acenet.ca - thread support 1
initial socket setup ...start
initial socket setup ...done 
now start server 0 ... 

cmd = /usr/bin/ssh clhead /usr/local/qchem/bin/get_hostid 117908486 > /scratch/tmp/6063914.1.medium.q/qchem19661/lic.dat
                  Welcome to Q-Chem
     A Quantum Leap Into The Future Of Chemistry

 Y. Shao, L. Fusti-Molnar, Y. Jung, J. Kussmann, C. Ochsenfeld,
 S. T. Brown, A. T. B. Gilbert, L. V. Slipchenko,S. V. Levchenko,
 D. P. O'Neill, R. A. DiStasio Jr., R. C. Lochan, T. Wang,
 G. J. O. Beran, N. A. Besley, J. M. Herbert, C. Y. Lin,
 T. Van Voorhis, S. H. Chien, A. Sodt, R. P. Steele, 
 V. A. Rassolov, P. E. Maslen, P. P. Korambath, R. D. Adamson,
 B. Austin, J. Baker, E. F. C. Byrd, H. Dachsel, R. J. Doerksen,
 A. Dreuw, B. D. Dunietz, A. D. Dutoi, T. R. Furlani,
 S. R. Gwaltney, A. Heyden, S. Hirata, C.-P. Hsu, G. Kedziora,
 R. Z. Khaliullin, P. Klunzinger, A. M. Lee, M. S. Lee, W. Liang,
 I. Lotan, N. Nair, B. Peters, E. I. Proynov, P. A. Pieniazek, 
 Y. M. Rhee, J. Ritchie, E. Rosta, C. D. Sherrill, 
 A. C. Simmonett, J. E. Subotnik, H. L. Woodcock III,
 W. Zhang, A. T. Bell, A. K. Chakraborty, D. M. Chipman,
 F. J. Keil, A. Warshel, W. J. Hehre, H. F. Schaefer III,
 J. Kong, A. I. Krylov, P. M. W. Gill, M. Head-Gordon,
 Q-Chem, Version 3.1, Q-Chem, Inc., Pittsburgh, PA (2007).

 Additional authors for Version 3.1: 
 Z. Gan, Y. Zhao, N. E. Schultz, D. Truhlar, E. Epifanovsky and M. Oana.

 Additional authors for Version 3.2: 
 R. Baer, B. R. Brooks, D. Casanova, J.-D. Chai, C.-L. Cheng, 
 C. Cramer, D. Crittenden, A. Ghysels, G. Hawkins, E. G. Hohenstein, 
 C. Kelley, W. Kurlancheek, D. Liotard, E. Livshits, P. Manohar, 
 A. Marenich, D. Neuhauser, R. Olson, M. A. Rohrdanz, K. S. Thanthiriwatte, 
 A. J. W. Thom, V. Vanovschi, C. F. Williams, Q. Wu and Z.-Q. You. 


 Intel X86 Linux Version

 Q-chem begins on Sun Jul  7 09:40:18 2013  

 Parallel job on  1  processors
Processing $rem in /usr/local/qchem/config/preferences.

theFileMan(): MAXOPENFILES=974 MAX_SUB_FILE_NUM=16
Maximum size of a physical file is 2.0 GB, maximum size of a tmp-file is 32.0 GB


--------------------------------------------------------------
User input:
--------------------------------------------------------------

$molecule
1,2
N          0.00000        0.00000        0.02589
N          0.00000        0.00000        1.13189
O          0.00000        0.00000        2.30331
$end

$comment
positive
$end

$xc_functional
C PBE   1.00
X wPBE  1.00
$end

$rem
SYMMETRY_DECOMPOSITION	0
LRC_DFT                 true
exchange 		general
BASIS                   g3large
omega			470
mem_static              760
max_scf_cycles          200
scf_final_print         1
sym_ignore              true
$end

--------------------------------------------------------------
 Writing REM_CC_EA            3
 ----------------------------------------------------
       Standard Nuclear Orientation (Angstroms)
    I     Atom         X            Y            Z
 ----------------------------------------------------
    1      N       0.000000     0.000000     0.025890
    2      N       0.000000     0.000000     1.131890
    3      O       0.000000     0.000000     2.303310
 ----------------------------------------------------
 Nuclear Repulsion Energy =    61.7540562782 hartrees
 There are       11 alpha and       10 beta electrons
 Requested basis set is G3large
 There are 30 shells and 126 basis functions

Total QAlloc Memory Limit   2000 MB
Mega-Array Size       743 MB
MEM_STATIC part       760 MB

                       Distance Matrix (Angstroms)
             N (  1)   N (  2)
   N (  2)  1.106000
   O (  3)  2.277420  1.171420
 
 A cutoff of  1.0D-08 yielded    434 shell pairs
 There are   7827 function pairs ( 10283 Cartesian)
Evaluating contribution to one-electron hamiltonian from nuclear
 Smallest overlap matrix eigenvalue = 4.25E-05

 Q-Chem warning in module mkSTV.C, line 194:

 Overlap eigenvalue is smaller than square root of threshold

 Multipole matrices computed through 2nd order

  Scale SEOQF with 1.000000e-01/1.000000e-01/1.000000e-01

 Standard Electronic Orientation quadrupole field applied
 Nucleus-field energy     =    -0.0000000055 hartrees
 Guess from superposition of atomic densities
 Warning:  Energy on first SCF cycle will be non-variational
 Long-range K will be added via erf
 Coulomb attenuation parameter = 0.47 bohr**(-1)
 An unrestricted Kohn-Sham SCF calculation will be
 performed using Pulay DIIS extrapolation
 Exchange:  wPBE + LR-HF      Correlation:  PBE
 Using SG-1 standard quadrature grid
 SCF converges when DIIS error is below 1.0E-05
 Requested basis set is G3large
 There are 30 shells and 126 basis functions
 A cutoff of  1.0D-08 yielded    434 shell pairs
 There are   7827 function pairs ( 10283 Cartesian)
 Warning!  Inaccurate integrated density:
   Number of electrons =    21
   Numerical integral  =    22.000008617596
   Relative error      =     4.7619457981 %
 ---------------------------------------
  Cycle       Energy         DIIS Error
 ---------------------------------------
    1    -185.3085300151      4.86E-02
    2    -183.9664588056      8.65E-03
    3    -184.0205255386      8.43E-03
    4    -184.1080430896      1.51E-03
    5    -184.1118666372      5.23E-04
    6    -184.1127407953      3.48E-04
    7    -184.1131588775      7.02E-05
    8    -184.1133592540      3.60E-05
    9    -184.1134048666      1.16E-05
   10    -184.1134129170      2.78E-06 Convergence criterion met
 ---------------------------------------
 One-Electron    Energy =  -364.6344557600
 Total Coulomb   Energy =   140.5859691642
 Alpha Exchange  Energy =    -2.5904130074
 Beta  Exchange  Energy =    -2.3485534145
 DFT   Exchange  Energy =   -16.1785042120
 DFT Correlation Energy =    -0.7015119599
 Nuclear Repu.   Energy =    61.7540562727
 Nuclear Attr.   Energy =  -548.4738391609
 Kinetic         Energy =   183.8393834008
 <S^2> = 0.7845
 SCF time:  CPU 30.55 s  wall 31.16 s
 Final Alpha MO Eigenvalues
            1           2           3           4           5           6
    1 -19.5416162 -14.8262757 -14.7416106  -1.8227827  -1.6573336  -1.1388098
            7           8           9          10          11          12
    1  -1.1217645  -1.0951973  -0.9784127  -0.9046223  -0.8559702  -0.2637850
           13          14          15          16
    1  -0.2448910  -0.1536407  -0.0533266  -0.0472547
 Final Beta MO Eigenvalues
            1           2           3           4           5           6
    1 -19.5228882 -14.8307384 -14.7323640  -1.8007713  -1.6260098  -1.1108527
            7           8           9          10          11          12
    1  -1.0919804  -1.0539510  -0.9611803  -0.8368157  -0.4788261  -0.2416995
           13          14          15
    1  -0.1959839  -0.1490076  -0.0463383
 Analysis of SCF Wavefunction
 
 --------------------------------------------------------------
                    Orbital Energies (a.u.)
 --------------------------------------------------------------
 
 Alpha MOs
 -- Occupied --
-19.542 -14.826 -14.742  -1.823  -1.657  -1.139  -1.122  -1.095
 -0.978  -0.905  -0.856
 -- Virtual --
 -0.264  -0.245  -0.154  -0.053  -0.047  -0.037  -0.017   0.013
  0.027   0.032   0.102   0.129   0.134   0.187   0.212   0.433
  0.511   0.521   0.556   0.556   0.614   0.625   0.626   0.685
  0.838   0.847   0.862   0.885   0.899   0.906   0.927   0.928
  1.025   1.366   1.366   1.441   1.482   1.502   1.771   2.115
  2.137   2.331   2.477   2.987   2.987   3.008   3.008   3.122
  3.308   3.309   3.341   3.366   3.493   3.493   3.640   3.661
  3.945   4.069   4.070   4.111   4.129   4.333   4.342   4.352
  4.355   4.485   4.486   4.500   4.536   4.704   4.705   4.790
  4.827   5.106   5.344   5.347   5.488   5.702   5.722   6.373
  6.374   6.732   6.850   6.893   7.212   7.240   7.462   8.462
 35.046  35.786  36.882  36.889  37.263  37.269  37.970  39.037
 39.916  40.000  40.026  40.110  40.111  40.114  40.238  40.426
 40.435  41.274  43.171  43.233  43.371  43.405  43.668  45.257
 45.289  46.188  49.999
 
 Beta MOs
 -- Occupied --
-19.523 -14.831 -14.732  -1.801  -1.626  -1.111  -1.092  -1.054
 -0.961  -0.837
 -- Virtual --
 -0.479  -0.242  -0.196  -0.149  -0.046  -0.046  -0.035  -0.011
  0.014   0.033   0.033   0.104   0.135   0.135   0.189   0.215
  0.440   0.518   0.521   0.564   0.565   0.629   0.630   0.632
  0.694   0.854   0.868   0.876   0.906   0.911   0.917   0.949
  0.951   1.036   1.399   1.402   1.460   1.506   1.507   1.776
  2.141   2.141   2.341   2.492   2.999   3.000   3.014   3.015
  3.128   3.293   3.302   3.375   3.381   3.509   3.509   3.665
  3.665   3.953   4.081   4.083   4.129   4.131   4.343   4.354
  4.356   4.360   4.512   4.515   4.548   4.559   4.762   4.763
  4.838   4.848   5.134   5.374   5.377   5.497   5.725   5.726
  6.452   6.462   6.751   6.904   6.917   7.246   7.250   7.472
  8.473  35.049  35.788  36.890  36.891  37.270  37.271  37.975
 39.038  39.909  40.019  40.019  40.112  40.113  40.129  40.237
 40.436  40.437  41.275  43.219  43.283  43.410  43.419  43.689
 45.302  45.312  46.202  50.016
 --------------------------------------------------------------
 
          Ground-State Mulliken Net Atomic Charges

     Atom                 Charge (a.u.)    Spin (a.u.)
  --------------------------------------------------------
      1 N                     0.340113       0.435396
      2 N                     0.408562      -0.168047
      3 O                     0.251325       0.732651
  --------------------------------------------------------
  Sum of atomic charges =     1.000000
  Sum of spin   charges =     1.000000

 -----------------------------------------------------------------
                    Cartesian Multipole Moments
 -----------------------------------------------------------------
    Charge (ESU x 10^10)
                 4.8032
    Dipole Moment (Debye)
         X       0.0006      Y      -0.0004      Z       5.6391
       Tot       5.6391
    Quadrupole Moments (Debye-Ang)
        XX     -12.6327     XY      -0.4805     YY     -12.8830
        XZ      -0.0002     YZ       0.0002     ZZ      -4.1476
    Octapole Moments (Debye-Ang^2)
       XXX       0.0004    XXY      -0.0001    XYY       0.0001
       YYY      -0.0003    XXZ     -14.4345    XYZ      -0.6681
       YYZ     -14.7825    XZZ       0.0001    YZZ      -0.0001
       ZZZ     -27.6452
    Hexadecapole Moments (Debye-Ang^3)
      XXXX      -8.4910   XXXY      -0.2648   XXYY      -2.8765
      XYYY      -0.2650   YYYY      -8.7670   XXXZ      -0.0001
      XXYZ       0.0000   XYYZ       0.0000   YYYZ       0.0001
      XXZZ     -30.9015   XYZZ      -1.6288   YYZZ     -31.7499
      XZZZ      -0.0001   YZZZ      -0.0001   ZZZZ    -145.8285
 -----------------------------------------------------------------
 Total job time:  31.32s(wall), 30.68s(cpu) 
 Sun Jul  7 09:40:50 2013

        *************************************************************
        *                                                           *
        *  Thank you very much for using Q-Chem.  Have a nice day.  *
        *                                                           *
        *************************************************************


0 sent ACK to 0 
now end server 0 ... 
