Process 0 of 1 is on cl134 - thread support 1
initial socket setup ...start
initial socket setup ...done 
now start server 0 ... 

cmd = /usr/bin/ssh clhead /usr/local/qchem/bin/get_hostid 356800080 > /tmp/1603124.1.medium.q/qchem21884/lic.dat

cmd = /usr/bin/ssh clhead /usr/local/qchem/bin/get_hostid 356800080 > /tmp/1603124.1.medium.q/qchem21884/lic.dat

cmd = /usr/bin/ssh clhead /usr/local/qchem/bin/get_hostid 356800080 > /tmp/1603124.1.medium.q/qchem21884/lic.dat

cmd = /usr/bin/ssh clhead /usr/local/qchem/bin/get_hostid 356800080 > /tmp/1603124.1.medium.q/qchem21884/lic.dat

cmd = /usr/bin/ssh clhead /usr/local/qchem/bin/get_hostid 356800080 > /tmp/1603124.1.medium.q/qchem21884/lic.dat
                  Welcome to Q-Chem
     A Quantum Leap Into The Future Of Chemistry

 Y. Shao, L. Fusti-Molnar, Y. Jung, J. Kussmann, C. Ochsenfeld,
 S. T. Brown, A. T. B. Gilbert, L. V. Slipchenko,S. V. Levchenko,
 D. P. O'Neill, R. A. DiStasio Jr., R. C. Lochan, T. Wang,
 G. J. O. Beran, N. A. Besley, J. M. Herbert, C. Y. Lin,
 T. Van Voorhis, S. H. Chien, A. Sodt, R. P. Steele, 
 V. A. Rassolov, P. E. Maslen, P. P. Korambath, R. D. Adamson,
 B. Austin, J. Baker, E. F. C. Byrd, H. Dachsel, R. J. Doerksen,
 A. Dreuw, B. D. Dunietz, A. D. Dutoi, T. R. Furlani,
 S. R. Gwaltney, A. Heyden, S. Hirata, C.-P. Hsu, G. Kedziora,
 R. Z. Khaliullin, P. Klunzinger, A. M. Lee, M. S. Lee, W. Liang,
 I. Lotan, N. Nair, B. Peters, E. I. Proynov, P. A. Pieniazek, 
 Y. M. Rhee, J. Ritchie, E. Rosta, C. D. Sherrill, 
 A. C. Simmonett, J. E. Subotnik, H. L. Woodcock III,
 W. Zhang, A. T. Bell, A. K. Chakraborty, D. M. Chipman,
 F. J. Keil, A. Warshel, W. J. Hehre, H. F. Schaefer III,
 J. Kong, A. I. Krylov, P. M. W. Gill, M. Head-Gordon,
 Q-Chem, Version 3.1, Q-Chem, Inc., Pittsburgh, PA (2007).

 Additional authors for Version 3.1: 
 Z. Gan, Y. Zhao, N. E. Schultz, D. Truhlar, E. Epifanovsky and M. Oana.

 Additional authors for Version 3.2: 
 R. Baer, B. R. Brooks, D. Casanova, J.-D. Chai, C.-L. Cheng, 
 C. Cramer, D. Crittenden, A. Ghysels, G. Hawkins, E. G. Hohenstein, 
 C. Kelley, W. Kurlancheek, D. Liotard, E. Livshits, P. Manohar, 
 A. Marenich, D. Neuhauser, R. Olson, M. A. Rohrdanz, K. S. Thanthiriwatte, 
 A. J. W. Thom, V. Vanovschi, C. F. Williams, Q. Wu and Z.-Q. You. 


 Intel X86 Linux Version

 Q-chem begins on Wed Mar 26 02:19:06 2014  

 Parallel job on  1  processors
Processing $rem in /usr/local/qchem/config/preferences.

theFileMan(): MAXOPENFILES=974 MAX_SUB_FILE_NUM=16
Maximum size of a physical file is 2.0 GB, maximum size of a tmp-file is 32.0 GB


--------------------------------------------------------------
User input:
--------------------------------------------------------------

$molecule
-1,1
C         -0.00017        0.00000       -0.00233
C          0.00868        0.00000        1.30341
H          0.93029        0.00000       -0.58611
H         -0.92923        0.00000       -0.57859
H          0.72813        0.00000        2.11653
$end

$comment
negative
$end

$xc_functional
C PBE   1.00
X wPBE  1.00
$end

$rem
SYMMETRY_DECOMPOSITION	0
exchange 		general
LRC_DFT                 true
BASIS                   g3large
omega			900
mem_static              760
max_scf_cycles          200
scf_final_print         1
sym_ignore              true
$end

--------------------------------------------------------------
 Writing REM_CC_EA            5
 ----------------------------------------------------
       Standard Nuclear Orientation (Angstroms)
    I     Atom         X            Y            Z
 ----------------------------------------------------
    1      C      -0.000170     0.000000    -0.002330
    2      C       0.008680     0.000000     1.303410
    3      H       0.930290     0.000000    -0.586110
    4      H      -0.929230     0.000000    -0.578590
    5      H       0.728130     0.000000     2.116530
 ----------------------------------------------------
 Nuclear Repulsion Energy =    28.3929478384 hartrees
 There are        8 alpha and        8 beta electrons
 Requested basis set is G3large
 There are 38 shells and 114 basis functions

Total QAlloc Memory Limit   2000 MB
Mega-Array Size       743 MB
MEM_STATIC part       760 MB

                       Distance Matrix (Angstroms)
             C (  1)   C (  2)   H (  3)   H (  4)
   C (  2)  1.305770
   H (  3)  1.098433  2.102297
   H (  4)  1.093265  2.102760  1.859535
   H (  5)  2.240533  1.085713  2.710190  3.163940
 
 A cutoff of  1.0D-08 yielded    732 shell pairs
 There are   6640 function pairs (  8147 Cartesian)
Evaluating contribution to one-electron hamiltonian from nuclear
 Smallest overlap matrix eigenvalue = 1.16E-04
 Multipole matrices computed through 2nd order

  Scale SEOQF with 1.000000e-01/1.000000e-01/1.000000e-01

 Standard Electronic Orientation quadrupole field applied
 Nucleus-field energy     =    -0.0000000016 hartrees
 Guess from superposition of atomic densities
 Warning:  Energy on first SCF cycle will be non-variational
 Long-range K will be added via erf
 Coulomb attenuation parameter = 0.9 bohr**(-1)
 A restricted Kohn-Sham SCF calculation will be
 performed using Pulay DIIS extrapolation
 Exchange:  wPBE + LR-HF      Correlation:  PBE
 Using SG-1 standard quadrature grid
 SCF converges when DIIS error is below 1.0E-05
 Requested basis set is G3large
 There are 38 shells and 114 basis functions
 A cutoff of  1.0D-08 yielded    732 shell pairs
 There are   6640 function pairs (  8147 Cartesian)
 Warning!  Inaccurate integrated density:
   Number of electrons =    16
   Numerical integral  =    14.999949395692
   Relative error      =    -6.2503162769 %
 ---------------------------------------
  Cycle       Energy         DIIS Error
 ---------------------------------------
    1     -78.2028989583      3.80E-02
    2     -77.7361913000      6.49E-03
    3     -77.8129866186      3.83E-03
    4     -77.8399157520      6.94E-04
    5     -77.8441931427      3.69E-04
    6     -77.8455327210      2.31E-04
    7     -77.8463451900      1.00E-04
    8     -77.8465381575      2.41E-05
    9     -77.8465468112      7.26E-06 Convergence criterion met
 ---------------------------------------
 One-Electron    Energy =  -163.7898318484
 Total Coulomb   Energy =    69.5862381658
 Alpha Exchange  Energy =    -2.6596213372
 Beta  Exchange  Energy =    -2.6596213372
 DFT   Exchange  Energy =    -6.2259769644
 DFT Correlation Energy =    -0.4906813266
 Nuclear Repu.   Energy =    28.3929478369
 Nuclear Attr.   Energy =  -241.3261033781
 Kinetic         Energy =    77.5362715297
 SCF time:  CPU 23.85 s  wall 27.06 s
 Final Alpha MO Eigenvalues
            1           2           3           4           5           6
    1 -10.1192506 -10.0809638  -0.7568826  -0.5170777  -0.3804729  -0.3459012
            7           8           9          10          11          12
    1  -0.1597942  -0.0496192   0.1786732   0.1839286   0.1892047   0.2735827
           13
    1   0.2834214
 Analysis of SCF Wavefunction
 
 --------------------------------------------------------------
                    Orbital Energies (a.u.)
 --------------------------------------------------------------
 
 Alpha MOs
 -- Occupied --
-10.119 -10.081  -0.757  -0.517  -0.380  -0.346  -0.160  -0.050
 -- Virtual --
  0.179   0.184   0.189   0.274   0.283   0.288   0.303   0.344
  0.352   0.367   0.380   0.428   0.438   0.461   0.553   0.675
  0.783   0.798   0.852   0.882   0.892   0.908   0.969   0.982
  0.983   1.000   1.038   1.044   1.136   1.141   1.172   1.281
  1.326   1.353   1.442   1.497   1.563   1.601   1.726   1.745
  1.799   1.829   1.896   1.916   1.947   2.127   2.884   2.935
  3.106   3.130   3.161   3.171   3.230   3.262   3.290   3.350
  3.360   3.441   3.536   3.558   3.604   3.624   3.668   3.708
  3.709   3.791   3.798   3.861   3.900   3.990   4.094   4.195
  4.195   4.258   4.407   4.599   4.616   4.666   4.807   4.910
  4.959   5.110   5.300   5.627   5.759   5.901   6.049   6.653
 24.266  25.242  27.729  27.926  28.086  28.623  28.775  28.904
 41.384  41.448  41.483  41.633  41.634  41.675  41.751  41.779
 41.838  41.873
 --------------------------------------------------------------
 
          Ground-State Mulliken Net Atomic Charges

     Atom                 Charge (a.u.)
  ----------------------------------------
      1 C                    -0.502968
      2 C                    -0.510257
      3 H                    -0.074112
      4 H                     0.051926
      5 H                     0.035412
  ----------------------------------------
  Sum of atomic charges =    -1.000000

 -----------------------------------------------------------------
                    Cartesian Multipole Moments
 -----------------------------------------------------------------
    Charge (ESU x 10^10)
                -4.8032
    Dipole Moment (Debye)
         X       1.6513      Y       0.0003      Z      -5.0786
       Tot       5.3403
    Quadrupole Moments (Debye-Ang)
        XX     -19.6745     XY      -0.0015     YY     -19.0401
        XZ       4.5402     YZ       0.0010     ZZ     -26.0046
    Octapole Moments (Debye-Ang^2)
       XXX       1.4618    XXY       0.0000    XYY       0.8562
       YYY       0.0007    XXZ     -16.8350    XYZ      -0.0016
       YYZ     -12.6869    XZZ       8.8750    YZZ       0.0022
       ZZZ     -49.1798
    Hexadecapole Moments (Debye-Ang^3)
      XXXX     -51.0266   XXXY      -0.0053   XXYY     -14.2722
      XYYY      -0.0053   YYYY     -33.0567   XXXZ       6.4943
      XXYZ       0.0010   XYYZ       2.5273   YYYZ       0.0034
      XXZZ     -43.3387   XYZZ      -0.0046   YYZZ     -31.9034
      XZZZ      23.3039   YZZZ       0.0072   ZZZZ    -174.8742
 -----------------------------------------------------------------
 Total job time:  27.29s(wall), 23.96s(cpu) 
 Wed Mar 26 02:19:33 2014

        *************************************************************
        *                                                           *
        *  Thank you very much for using Q-Chem.  Have a nice day.  *
        *                                                           *
        *************************************************************


0 sent ACK to 0 
now end server 0 ... 
 
**********************************************************************
Job 2 of 3 
**********************************************************************
 
Process 0 of 1 is on cl134 - thread support 1
initial socket setup ...start
initial socket setup ...done 
now start server 0 ... 

cmd = /usr/bin/ssh clhead /usr/local/qchem/bin/get_hostid 287318151 > /tmp/1603124.1.medium.q/qchem21884/lic.dat

cmd = /usr/bin/ssh clhead /usr/local/qchem/bin/get_hostid 287318151 > /tmp/1603124.1.medium.q/qchem21884/lic.dat

cmd = /usr/bin/ssh clhead /usr/local/qchem/bin/get_hostid 287318151 > /tmp/1603124.1.medium.q/qchem21884/lic.dat

cmd = /usr/bin/ssh clhead /usr/local/qchem/bin/get_hostid 287318151 > /tmp/1603124.1.medium.q/qchem21884/lic.dat

cmd = /usr/bin/ssh clhead /usr/local/qchem/bin/get_hostid 287318151 > /tmp/1603124.1.medium.q/qchem21884/lic.dat
                  Welcome to Q-Chem
     A Quantum Leap Into The Future Of Chemistry

 Y. Shao, L. Fusti-Molnar, Y. Jung, J. Kussmann, C. Ochsenfeld,
 S. T. Brown, A. T. B. Gilbert, L. V. Slipchenko,S. V. Levchenko,
 D. P. O'Neill, R. A. DiStasio Jr., R. C. Lochan, T. Wang,
 G. J. O. Beran, N. A. Besley, J. M. Herbert, C. Y. Lin,
 T. Van Voorhis, S. H. Chien, A. Sodt, R. P. Steele, 
 V. A. Rassolov, P. E. Maslen, P. P. Korambath, R. D. Adamson,
 B. Austin, J. Baker, E. F. C. Byrd, H. Dachsel, R. J. Doerksen,
 A. Dreuw, B. D. Dunietz, A. D. Dutoi, T. R. Furlani,
 S. R. Gwaltney, A. Heyden, S. Hirata, C.-P. Hsu, G. Kedziora,
 R. Z. Khaliullin, P. Klunzinger, A. M. Lee, M. S. Lee, W. Liang,
 I. Lotan, N. Nair, B. Peters, E. I. Proynov, P. A. Pieniazek, 
 Y. M. Rhee, J. Ritchie, E. Rosta, C. D. Sherrill, 
 A. C. Simmonett, J. E. Subotnik, H. L. Woodcock III,
 W. Zhang, A. T. Bell, A. K. Chakraborty, D. M. Chipman,
 F. J. Keil, A. Warshel, W. J. Hehre, H. F. Schaefer III,
 J. Kong, A. I. Krylov, P. M. W. Gill, M. Head-Gordon,
 Q-Chem, Version 3.1, Q-Chem, Inc., Pittsburgh, PA (2007).

 Additional authors for Version 3.1: 
 Z. Gan, Y. Zhao, N. E. Schultz, D. Truhlar, E. Epifanovsky and M. Oana.

 Additional authors for Version 3.2: 
 R. Baer, B. R. Brooks, D. Casanova, J.-D. Chai, C.-L. Cheng, 
 C. Cramer, D. Crittenden, A. Ghysels, G. Hawkins, E. G. Hohenstein, 
 C. Kelley, W. Kurlancheek, D. Liotard, E. Livshits, P. Manohar, 
 A. Marenich, D. Neuhauser, R. Olson, M. A. Rohrdanz, K. S. Thanthiriwatte, 
 A. J. W. Thom, V. Vanovschi, C. F. Williams, Q. Wu and Z.-Q. You. 


 Intel X86 Linux Version

 Q-chem begins on Wed Mar 26 02:19:38 2014  

 Parallel job on  1  processors
Processing $rem in /usr/local/qchem/config/preferences.

theFileMan(): MAXOPENFILES=974 MAX_SUB_FILE_NUM=16
Maximum size of a physical file is 2.0 GB, maximum size of a tmp-file is 32.0 GB


--------------------------------------------------------------
User input:
--------------------------------------------------------------

$molecule
0,2
C         -0.00017        0.00000       -0.00233
C          0.00868        0.00000        1.30341
H          0.93029        0.00000       -0.58611
H         -0.92923        0.00000       -0.57859
H          0.72813        0.00000        2.11653
$end

$comment
neutral
$end

$xc_functional
C PBE   1.00
X wPBE  1.00
$end


$rem
SYMMETRY_DECOMPOSITION	0
LRC_DFT                 true
exchange 		general
BASIS                   g3large
omega			900
mem_static              760
max_scf_cycles          200
scf_final_print         1
sym_ignore              true
$end

--------------------------------------------------------------
 Writing REM_CC_EA            5
 ----------------------------------------------------
       Standard Nuclear Orientation (Angstroms)
    I     Atom         X            Y            Z
 ----------------------------------------------------
    1      C      -0.000170     0.000000    -0.002330
    2      C       0.008680     0.000000     1.303410
    3      H       0.930290     0.000000    -0.586110
    4      H      -0.929230     0.000000    -0.578590
    5      H       0.728130     0.000000     2.116530
 ----------------------------------------------------
 Nuclear Repulsion Energy =    28.3929478384 hartrees
 There are        8 alpha and        7 beta electrons
 Requested basis set is G3large
 There are 38 shells and 114 basis functions

Total QAlloc Memory Limit   2000 MB
Mega-Array Size       743 MB
MEM_STATIC part       760 MB

                       Distance Matrix (Angstroms)
             C (  1)   C (  2)   H (  3)   H (  4)
   C (  2)  1.305770
   H (  3)  1.098433  2.102297
   H (  4)  1.093265  2.102760  1.859535
   H (  5)  2.240533  1.085713  2.710190  3.163940
 
 A cutoff of  1.0D-08 yielded    732 shell pairs
 There are   6640 function pairs (  8147 Cartesian)
Evaluating contribution to one-electron hamiltonian from nuclear
 Smallest overlap matrix eigenvalue = 1.16E-04
 Multipole matrices computed through 2nd order

  Scale SEOQF with 1.000000e-01/1.000000e-01/1.000000e-01

 Standard Electronic Orientation quadrupole field applied
 Nucleus-field energy     =    -0.0000000016 hartrees
 Guess from superposition of atomic densities
 Warning:  Energy on first SCF cycle will be non-variational
 Long-range K will be added via erf
 Coulomb attenuation parameter = 0.9 bohr**(-1)
 An unrestricted Kohn-Sham SCF calculation will be
 performed using Pulay DIIS extrapolation
 Exchange:  wPBE + LR-HF      Correlation:  PBE
 Using SG-1 standard quadrature grid
 SCF converges when DIIS error is below 1.0E-05
 Requested basis set is G3large
 There are 38 shells and 114 basis functions
 A cutoff of  1.0D-08 yielded    732 shell pairs
 There are   6640 function pairs (  8147 Cartesian)
 ---------------------------------------
  Cycle       Energy         DIIS Error
 ---------------------------------------
    1     -78.2028989583      3.80E-02
    2     -77.7964006220      3.15E-03
    3     -77.8364883832      1.09E-03
    4     -77.8472045462      5.75E-04
    5     -77.8518137347      2.86E-04
    6     -77.8541791450      1.43E-04
    7     -77.8549870088      5.76E-05
    8     -77.8553954729      2.63E-05
    9     -77.8556835166      1.53E-05
   10     -77.8559173853      9.64E-06 Convergence criterion met
 ---------------------------------------
 One-Electron    Energy =  -159.7103083659
 Total Coulomb   Energy =    65.2877239543
 Alpha Exchange  Energy =    -2.7337535360
 Beta  Exchange  Energy =    -2.4179677832
 DFT   Exchange  Energy =    -6.2180080087
 DFT Correlation Energy =    -0.4565514826
 Nuclear Repu.   Energy =    28.3929478369
 Nuclear Attr.   Energy =  -237.1185318337
 Kinetic         Energy =    77.4082234678
 <S^2> = 0.7845
 SCF time:  CPU 31.02 s  wall 34.71 s
 Final Alpha MO Eigenvalues
            1           2           3           4           5           6
    1 -10.3992619 -10.3762197  -1.0441412  -0.8000255  -0.6561158  -0.6205770
            7           8           9          10          11          12
    1  -0.4353681  -0.4123524   0.0458139   0.0580830   0.0653976   0.0876936
           13
    1   0.1236568
 Final Beta MO Eigenvalues
            1           2           3           4           5           6
    1 -10.3826362 -10.3791982  -1.0154388  -0.7617930  -0.6335062  -0.5933860
            7           8           9          10          11          12
    1  -0.4250356   0.0427549   0.0532801   0.0589122   0.0675642   0.0963395
 Analysis of SCF Wavefunction
 
 --------------------------------------------------------------
                    Orbital Energies (a.u.)
 --------------------------------------------------------------
 
 Alpha MOs
 -- Occupied --
-10.399 -10.376  -1.044  -0.800  -0.656  -0.621  -0.435  -0.412
 -- Virtual --
  0.046   0.058   0.065   0.088   0.124   0.131   0.140   0.182
  0.185   0.199   0.206   0.215   0.248   0.261   0.364   0.455
  0.549   0.562   0.629   0.636   0.654   0.668   0.722   0.742
  0.746   0.763   0.788   0.798   0.870   0.888   0.911   1.054
  1.077   1.122   1.200   1.245   1.312   1.350   1.475   1.493
  1.540   1.590   1.642   1.665   1.704   1.854   2.621   2.678
  2.825   2.865   2.878   2.898   2.941   2.976   2.987   3.062
  3.083   3.146   3.271   3.271   3.340   3.346   3.382   3.393
  3.432   3.506   3.517   3.557   3.610   3.705   3.814   3.907
  3.920   3.980   4.137   4.337   4.354   4.408   4.528   4.641
  4.683   4.826   5.018   5.347   5.477   5.623   5.794   6.365
 23.974  24.960  27.443  27.643  27.756  28.366  28.516  28.592
 41.098  41.126  41.225  41.337  41.353  41.391  41.454  41.494
 41.555  41.587
 
 Beta MOs
 -- Occupied --
-10.383 -10.379  -1.015  -0.762  -0.634  -0.593  -0.425
 -- Virtual --
  0.043   0.053   0.059   0.068   0.096   0.124   0.139   0.157
  0.184   0.192   0.207   0.207   0.220   0.252   0.273   0.377
  0.466   0.566   0.582   0.633   0.645   0.658   0.692   0.748
  0.749   0.767   0.779   0.797   0.816   0.900   0.902   0.938
  1.060   1.086   1.125   1.203   1.263   1.328   1.356   1.485
  1.500   1.560   1.595   1.650   1.674   1.708   1.870   2.629
  2.686   2.848   2.873   2.891   2.905   2.964   2.988   3.018
  3.080   3.091   3.179   3.275   3.285   3.343   3.361   3.403
  3.434   3.446   3.532   3.532   3.592   3.633   3.727   3.828
  3.921   3.930   3.993   4.150   4.347   4.361   4.413   4.540
  4.648   4.695   4.839   5.026   5.362   5.489   5.635   5.799
  6.378  23.983  24.965  27.449  27.646  27.788  28.363  28.515
 28.603  41.104  41.151  41.221  41.353  41.358  41.392  41.468
 41.496  41.561  41.592
 --------------------------------------------------------------
 
          Ground-State Mulliken Net Atomic Charges

     Atom                 Charge (a.u.)    Spin (a.u.)
  --------------------------------------------------------
      1 C                    -0.229639      -0.264221
      2 C                    -0.045850       1.127074
      3 H                     0.076267       0.079944
      4 H                     0.091676       0.044133
      5 H                     0.107547       0.013070
  --------------------------------------------------------
  Sum of atomic charges =     0.000000
  Sum of spin   charges =     1.000000

 -----------------------------------------------------------------
                    Cartesian Multipole Moments
 -----------------------------------------------------------------
    Charge (ESU x 10^10)
                 0.0000
    Dipole Moment (Debye)
         X       0.6209      Y       0.0001      Z      -0.2420
       Tot       0.6664
    Quadrupole Moments (Debye-Ang)
        XX     -11.9960     XY       0.0004     YY     -14.7846
        XZ       1.5821     YZ      -0.0003     ZZ     -11.0771
    Octapole Moments (Debye-Ang^2)
       XXX      -0.9513    XXY       0.0002    XYY      -0.4859
       YYY       0.0005    XXZ      -8.3631    XYZ      -0.0001
       YYZ      -8.8476    XZZ       3.1606    YZZ      -0.0003
       ZZZ     -18.9270
    Hexadecapole Moments (Debye-Ang^3)
      XXXX     -21.8703   XXXY       0.0005   XXYY      -7.1494
      XYYY       0.0003   YYYY     -17.8484   XXXZ      -1.5369
      XXYZ       0.0000   XYYZ      -0.9229   YYYZ       0.0001
      XXZZ     -17.0381   XYZZ       0.0010   YYZZ     -19.2604
      XZZZ       5.7113   YZZZ      -0.0014   ZZZZ     -79.6245
 -----------------------------------------------------------------
 Total job time:  34.89s(wall), 31.12s(cpu) 
 Wed Mar 26 02:20:13 2014

        *************************************************************
        *                                                           *
        *  Thank you very much for using Q-Chem.  Have a nice day.  *
        *                                                           *
        *************************************************************


0 sent ACK to 0 
now end server 0 ... 
 
**********************************************************************
Job 3 of 3 
**********************************************************************
 
Process 0 of 1 is on cl134 - thread support 1
initial socket setup ...start
initial socket setup ...done 
now start server 0 ... 

cmd = /usr/bin/ssh clhead /usr/local/qchem/bin/get_hostid 219482591 > /tmp/1603124.1.medium.q/qchem21884/lic.dat

cmd = /usr/bin/ssh clhead /usr/local/qchem/bin/get_hostid 219482591 > /tmp/1603124.1.medium.q/qchem21884/lic.dat

cmd = /usr/bin/ssh clhead /usr/local/qchem/bin/get_hostid 219482591 > /tmp/1603124.1.medium.q/qchem21884/lic.dat

cmd = /usr/bin/ssh clhead /usr/local/qchem/bin/get_hostid 219482591 > /tmp/1603124.1.medium.q/qchem21884/lic.dat

cmd = /usr/bin/ssh clhead /usr/local/qchem/bin/get_hostid 219482591 > /tmp/1603124.1.medium.q/qchem21884/lic.dat
                  Welcome to Q-Chem
     A Quantum Leap Into The Future Of Chemistry

 Y. Shao, L. Fusti-Molnar, Y. Jung, J. Kussmann, C. Ochsenfeld,
 S. T. Brown, A. T. B. Gilbert, L. V. Slipchenko,S. V. Levchenko,
 D. P. O'Neill, R. A. DiStasio Jr., R. C. Lochan, T. Wang,
 G. J. O. Beran, N. A. Besley, J. M. Herbert, C. Y. Lin,
 T. Van Voorhis, S. H. Chien, A. Sodt, R. P. Steele, 
 V. A. Rassolov, P. E. Maslen, P. P. Korambath, R. D. Adamson,
 B. Austin, J. Baker, E. F. C. Byrd, H. Dachsel, R. J. Doerksen,
 A. Dreuw, B. D. Dunietz, A. D. Dutoi, T. R. Furlani,
 S. R. Gwaltney, A. Heyden, S. Hirata, C.-P. Hsu, G. Kedziora,
 R. Z. Khaliullin, P. Klunzinger, A. M. Lee, M. S. Lee, W. Liang,
 I. Lotan, N. Nair, B. Peters, E. I. Proynov, P. A. Pieniazek, 
 Y. M. Rhee, J. Ritchie, E. Rosta, C. D. Sherrill, 
 A. C. Simmonett, J. E. Subotnik, H. L. Woodcock III,
 W. Zhang, A. T. Bell, A. K. Chakraborty, D. M. Chipman,
 F. J. Keil, A. Warshel, W. J. Hehre, H. F. Schaefer III,
 J. Kong, A. I. Krylov, P. M. W. Gill, M. Head-Gordon,
 Q-Chem, Version 3.1, Q-Chem, Inc., Pittsburgh, PA (2007).

 Additional authors for Version 3.1: 
 Z. Gan, Y. Zhao, N. E. Schultz, D. Truhlar, E. Epifanovsky and M. Oana.

 Additional authors for Version 3.2: 
 R. Baer, B. R. Brooks, D. Casanova, J.-D. Chai, C.-L. Cheng, 
 C. Cramer, D. Crittenden, A. Ghysels, G. Hawkins, E. G. Hohenstein, 
 C. Kelley, W. Kurlancheek, D. Liotard, E. Livshits, P. Manohar, 
 A. Marenich, D. Neuhauser, R. Olson, M. A. Rohrdanz, K. S. Thanthiriwatte, 
 A. J. W. Thom, V. Vanovschi, C. F. Williams, Q. Wu and Z.-Q. You. 


 Intel X86 Linux Version

 Q-chem begins on Wed Mar 26 02:20:20 2014  

 Parallel job on  1  processors
Processing $rem in /usr/local/qchem/config/preferences.

theFileMan(): MAXOPENFILES=974 MAX_SUB_FILE_NUM=16
Maximum size of a physical file is 2.0 GB, maximum size of a tmp-file is 32.0 GB


--------------------------------------------------------------
User input:
--------------------------------------------------------------

$molecule
1,1
C         -0.00017        0.00000       -0.00233
C          0.00868        0.00000        1.30341
H          0.93029        0.00000       -0.58611
H         -0.92923        0.00000       -0.57859
H          0.72813        0.00000        2.11653
$end

$comment
positive
$end

$xc_functional
C PBE   1.00
X wPBE  1.00
$end

$rem
SYMMETRY_DECOMPOSITION	0
LRC_DFT                 true
exchange 		general
BASIS                   g3large
omega			900
mem_static              760
max_scf_cycles          200
scf_final_print         1
sym_ignore              true
$end

--------------------------------------------------------------
 Writing REM_CC_EA            5
 ----------------------------------------------------
       Standard Nuclear Orientation (Angstroms)
    I     Atom         X            Y            Z
 ----------------------------------------------------
    1      C      -0.000170     0.000000    -0.002330
    2      C       0.008680     0.000000     1.303410
    3      H       0.930290     0.000000    -0.586110
    4      H      -0.929230     0.000000    -0.578590
    5      H       0.728130     0.000000     2.116530
 ----------------------------------------------------
 Nuclear Repulsion Energy =    28.3929478384 hartrees
 There are        7 alpha and        7 beta electrons
 Requested basis set is G3large
 There are 38 shells and 114 basis functions

Total QAlloc Memory Limit   2000 MB
Mega-Array Size       743 MB
MEM_STATIC part       760 MB

                       Distance Matrix (Angstroms)
             C (  1)   C (  2)   H (  3)   H (  4)
   C (  2)  1.305770
   H (  3)  1.098433  2.102297
   H (  4)  1.093265  2.102760  1.859535
   H (  5)  2.240533  1.085713  2.710190  3.163940
 
 A cutoff of  1.0D-08 yielded    732 shell pairs
 There are   6640 function pairs (  8147 Cartesian)
Evaluating contribution to one-electron hamiltonian from nuclear
 Smallest overlap matrix eigenvalue = 1.16E-04
 Multipole matrices computed through 2nd order

  Scale SEOQF with 1.000000e-01/1.000000e-01/1.000000e-01

 Standard Electronic Orientation quadrupole field applied
 Nucleus-field energy     =    -0.0000000016 hartrees
 Guess from superposition of atomic densities
 Warning:  Energy on first SCF cycle will be non-variational
 Long-range K will be added via erf
 Coulomb attenuation parameter = 0.9 bohr**(-1)
 A restricted Kohn-Sham SCF calculation will be
 performed using Pulay DIIS extrapolation
 Exchange:  wPBE + LR-HF      Correlation:  PBE
 Using SG-1 standard quadrature grid
 SCF converges when DIIS error is below 1.0E-05
 Requested basis set is G3large
 There are 38 shells and 114 basis functions
 A cutoff of  1.0D-08 yielded    732 shell pairs
 There are   6640 function pairs (  8147 Cartesian)
 Warning!  Inaccurate integrated density:
   Number of electrons =    14
   Numerical integral  =    14.999949395692
   Relative error      =     7.1424956835 %
 ---------------------------------------
  Cycle       Energy         DIIS Error
 ---------------------------------------
    1     -78.2028989583      3.80E-02
    2     -77.4118114612      4.75E-03
    3     -77.4691958057      2.17E-03
    4     -77.4790143398      8.28E-04
    5     -77.4825292511      4.09E-04
    6     -77.4841573914      2.94E-04
    7     -77.4861013843      1.89E-04
    8     -77.4872534533      7.96E-05
    9     -77.4874195012      2.43E-05
   10     -77.4874265207      8.03E-06 Convergence criterion met
 ---------------------------------------
 One-Electron    Energy =  -154.8192958700
 Total Coulomb   Energy =    60.4006540876
 Alpha Exchange  Energy =    -2.4425358819
 Beta  Exchange  Energy =    -2.4425358819
 DFT   Exchange  Energy =    -6.1490639112
 DFT Correlation Energy =    -0.4275969002
 Nuclear Repu.   Energy =    28.3929478369
 Nuclear Attr.   Energy =  -231.7989476228
 Kinetic         Energy =    76.9796517528
 SCF time:  CPU 26.26 s  wall 29.68 s
 Final Alpha MO Eigenvalues
            1           2           3           4           5           6
    1 -10.7931162 -10.6996930  -1.3564172  -1.0952434  -0.9600085  -0.9043502
            7           8           9          10          11          12
    1  -0.7534614  -0.3169682  -0.1753458  -0.1109872  -0.0898126  -0.0799376
 Analysis of SCF Wavefunction
 
 --------------------------------------------------------------
                    Orbital Energies (a.u.)
 --------------------------------------------------------------
 
 Alpha MOs
 -- Occupied --
-10.793 -10.700  -1.356  -1.095  -0.960  -0.904  -0.753
 -- Virtual --
 -0.317  -0.175  -0.111  -0.090  -0.080  -0.052  -0.034  -0.020
  0.001   0.009   0.023   0.042   0.045   0.049   0.056   0.166
  0.217   0.311   0.326   0.360   0.383   0.393   0.427   0.474
  0.481   0.498   0.517   0.522   0.549   0.598   0.619   0.653
  0.793   0.817   0.865   0.931   0.978   1.046   1.075   1.201
  1.218   1.265   1.325   1.361   1.391   1.433   1.566   2.319
  2.387   2.516   2.552   2.564   2.573   2.622   2.654   2.664
  2.740   2.766   2.829   2.946   2.962   3.029   3.034   3.061
  3.064   3.119   3.187   3.207   3.235   3.292   3.391   3.497
  3.580   3.603   3.665   3.829   4.038   4.046   4.111   4.210
  4.331   4.367   4.503   4.691   5.027   5.151   5.304   5.494
  6.037  23.612  24.612  27.077  27.297  27.363  28.044  28.191
 28.206  40.729  40.739  40.899  40.947  40.984  41.063  41.068
 41.146  41.218  41.237
 --------------------------------------------------------------
 
          Ground-State Mulliken Net Atomic Charges

     Atom                 Charge (a.u.)
  ----------------------------------------
      1 C                     0.016672
      2 C                     0.368451
      3 H                     0.194519
      4 H                     0.178911
      5 H                     0.241447
  ----------------------------------------
  Sum of atomic charges =     1.000000

 -----------------------------------------------------------------
                    Cartesian Multipole Moments
 -----------------------------------------------------------------
    Charge (ESU x 10^10)
                 4.8032
    Dipole Moment (Debye)
         X       0.4843      Y       0.0003      Z       3.4484
       Tot       3.4823
    Quadrupole Moments (Debye-Ang)
        XX      -7.2101     XY      -0.0005     YY     -12.3510
        XZ       1.0433     YZ       0.0005     ZZ      -0.4863
    Octapole Moments (Debye-Ang^2)
       XXX      -0.5756    XXY       0.0001    XYY      -0.5608
       YYY       0.0004    XXZ      -5.0495    XYZ      -0.0007
       YYZ      -7.6359    XZZ       2.9789    YZZ       0.0010
       ZZZ      -1.1212
    Hexadecapole Moments (Debye-Ang^3)
      XXXX     -12.1593   XXXY      -0.0003   XXYY      -4.8570
      XYYY      -0.0003   YYYY     -12.4155   XXXZ      -1.2897
      XXYZ       0.0001   XYYZ      -1.1484   YYYZ       0.0005
      XXZZ      -6.5754   XYZZ      -0.0011   YYZZ     -15.1333
      XZZZ       5.8653   YZZZ       0.0017   ZZZZ     -33.5665
 -----------------------------------------------------------------
 Total job time:  29.85s(wall), 26.37s(cpu) 
 Wed Mar 26 02:20:50 2014

        *************************************************************
        *                                                           *
        *  Thank you very much for using Q-Chem.  Have a nice day.  *
        *                                                           *
        *************************************************************


0 sent ACK to 0 
now end server 0 ... 
