Process 0 of 1 is on cl210.stfx.acenet.ca - thread support 1
initial socket setup ...start
initial socket setup ...done 
now start server 0 ... 

cmd = /usr/bin/ssh clhead /usr/local/qchem/bin/get_hostid 814084367 > /scratch/tmp/6027549.1.medium.q/qchem15099/lic.dat
                  Welcome to Q-Chem
     A Quantum Leap Into The Future Of Chemistry

 Y. Shao, L. Fusti-Molnar, Y. Jung, J. Kussmann, C. Ochsenfeld,
 S. T. Brown, A. T. B. Gilbert, L. V. Slipchenko,S. V. Levchenko,
 D. P. O'Neill, R. A. DiStasio Jr., R. C. Lochan, T. Wang,
 G. J. O. Beran, N. A. Besley, J. M. Herbert, C. Y. Lin,
 T. Van Voorhis, S. H. Chien, A. Sodt, R. P. Steele, 
 V. A. Rassolov, P. E. Maslen, P. P. Korambath, R. D. Adamson,
 B. Austin, J. Baker, E. F. C. Byrd, H. Dachsel, R. J. Doerksen,
 A. Dreuw, B. D. Dunietz, A. D. Dutoi, T. R. Furlani,
 S. R. Gwaltney, A. Heyden, S. Hirata, C.-P. Hsu, G. Kedziora,
 R. Z. Khaliullin, P. Klunzinger, A. M. Lee, M. S. Lee, W. Liang,
 I. Lotan, N. Nair, B. Peters, E. I. Proynov, P. A. Pieniazek, 
 Y. M. Rhee, J. Ritchie, E. Rosta, C. D. Sherrill, 
 A. C. Simmonett, J. E. Subotnik, H. L. Woodcock III,
 W. Zhang, A. T. Bell, A. K. Chakraborty, D. M. Chipman,
 F. J. Keil, A. Warshel, W. J. Hehre, H. F. Schaefer III,
 J. Kong, A. I. Krylov, P. M. W. Gill, M. Head-Gordon,
 Q-Chem, Version 3.1, Q-Chem, Inc., Pittsburgh, PA (2007).

 Additional authors for Version 3.1: 
 Z. Gan, Y. Zhao, N. E. Schultz, D. Truhlar, E. Epifanovsky and M. Oana.

 Additional authors for Version 3.2: 
 R. Baer, B. R. Brooks, D. Casanova, J.-D. Chai, C.-L. Cheng, 
 C. Cramer, D. Crittenden, A. Ghysels, G. Hawkins, E. G. Hohenstein, 
 C. Kelley, W. Kurlancheek, D. Liotard, E. Livshits, P. Manohar, 
 A. Marenich, D. Neuhauser, R. Olson, M. A. Rohrdanz, K. S. Thanthiriwatte, 
 A. J. W. Thom, V. Vanovschi, C. F. Williams, Q. Wu and Z.-Q. You. 


 Intel X86 Linux Version

 Q-chem begins on Mon Jun  3 15:25:49 2013  

 Parallel job on  1  processors
Processing $rem in /usr/local/qchem/config/preferences.

theFileMan(): MAXOPENFILES=974 MAX_SUB_FILE_NUM=16
Maximum size of a physical file is 2.0 GB, maximum size of a tmp-file is 32.0 GB


--------------------------------------------------------------
User input:
--------------------------------------------------------------

$molecule
0,6
c1
x1 c1 1.0
x2 c1 1.0 x1 90.0
x3 c1 1.00 x2 90.0 x1 90.0
c2 c1 rc2 x1 90.0 x3 tc2
c3 c1 rc2 x1 90.0 x3 -tc2
h1 c1 rh1 x2 90.0 x3 th1
h2 c2 rh2 c1 ah2 c3 th2
h3 c3 rh2 c1 ah2 c2 -th2
h4 c2 rh4 c1 ah4 h2 th4
h5 c2 rh5 c1 ah5 h2 th5
h6 c3 rh4 c1 ah4 h3 -th4
h7 c3 rh5 c1 ah5 h3 -th5

rc2=1.49278841
tc2=119.36176246
rh1=1.08776261
th1=-13.68721693
rh2=1.09598824
ah2=111.94844128
th2=166.03899954
rh4=1.10606929
ah4=112.23599989
th4=120.01472402
rh5=1.09933549
ah5=111.52123676
th5=-121.14926786


$end

$comment
negative
$end

$rem
   EXCHANGE B3LYP
   UNRESTRICTED TRUE
   BASIS G3large 
   SCF_PRINT 1
   PDB_PRINT 2
   INCDFT false
   VARTHRESH 0
   MAX_SCF_CYCLES 1000
   MEM_STATIC 256
   MEM_TOTAL 3000
   THRESH 140
   ITHRSH 14
   XC_GRID 75000302
   SCF_CONVERGENCE 6
$end

--------------------------------------------------------------
 Writing REM_CC_EA            0
 ----------------------------------------------------
       Standard Nuclear Orientation (Angstroms)
    I     Atom         X            Y            Z
 ----------------------------------------------------
    1      C       0.053211    -0.531980     0.000000
    2      C      -0.003757     0.197747    -1.301027
    3      C      -0.003757     0.197747     1.301027
    4      H      -0.121139    -1.605679     0.000000
    5      H       0.292039    -0.440101    -2.141767
    6      H       0.292039    -0.440101     2.141767
    7      H      -1.019839     0.571783    -1.526998
    8      H       0.651275     1.080616    -1.297248
    9      H      -1.019839     0.571783     1.526998
   10      H       0.651275     1.080616     1.297248
 ----------------------------------------------------
 Molecular Point Group                 Cs    NOp =  2
 Largest Abelian Subgroup              Cs    NOp =  2
 Nuclear Repulsion Energy =    75.2081375759 hartrees
 There are       15 alpha and       10 beta electrons
 Requested basis set is G3large
 There are 72 shells and 196 basis functions

Total QAlloc Memory Limit   3000 MB
Mega-Array Size       251 MB
MEM_STATIC part       256 MB

                       Distance Matrix (Angstroms)
             C (  1)   C (  2)   C (  3)   H (  4)   H (  5)   H (  6)
   C (  2)  1.492788
   C (  3)  1.492788  2.602053
   H (  4)  1.087763  2.226835  2.226835
   H (  5)  2.157000  1.095988  3.513855  2.473147
   H (  6)  2.157000  3.513855  1.095988  2.473147  4.283535
   H (  7)  2.168284  1.106069  3.028209  2.807264  1.767166  4.025516
   H (  8)  2.154298  1.099335  2.821269  3.081502  1.776188  3.777362
   H (  9)  2.168284  3.028209  1.106069  2.807264  4.025516  1.767166
   H ( 10)  2.154298  2.821269  1.099335  3.081502  3.777362  1.776188
             H (  7)   H (  8)   H (  9)
   H (  8)  1.761907
   H (  9)  3.053996  3.320828
   H ( 10)  3.320828  2.594497  1.761907
 
 A cutoff of  1.0D-14 yielded   2574 shell pairs
 There are  19128 function pairs ( 22871 Cartesian)
Evaluating contribution to one-electron hamiltonian from nuclear
 Smallest overlap matrix eigenvalue = 8.19E-05
 Multipole matrices computed through 2nd order

  Scale SEOQF with 1.000000e-01/1.000000e-01/1.000000e-01

 Standard Electronic Orientation quadrupole field applied
 Nucleus-field energy     =    -0.0000000033 hartrees
 Guess from superposition of atomic densities
 Warning:  Energy on first SCF cycle will be non-variational
 An unrestricted hybrid HF-DFT SCF calculation will be
 performed using Pulay DIIS extrapolation
 Exchange:     0.2000 Hartree-Fock + 0.0800 Slater + 0.7200 Becke88
 Correlation:  0.8100 LYP + 0.1900 VWN1RPA
 Using Euler-Maclaurin-Lebedev (75,302) quadrature formula
 SCF converges when DIIS error is below 1.0E-06
 Maximum number of SCF iterations = 1000

NRad = 75 NAng = 302
 ---------------------------------------
  Cycle       Energy         DIIS Error
 ---------------------------------------
    1    -118.7849309335      2.96E-02

NRad = 75 NAng = 302
    2    -118.5323840004      2.26E-02

NRad = 75 NAng = 302
    3     -91.9492928645      1.04E-01

NRad = 75 NAng = 302
    4    -113.8428871227      3.93E-02

NRad = 75 NAng = 302
    5    -125.0409473582      5.21E-02

NRad = 75 NAng = 302
    6    -121.1617556109      2.56E-02

NRad = 75 NAng = 302
    7    -122.3816497408      5.40E-02

NRad = 75 NAng = 302
    8    -116.1569317977      1.57E-02

NRad = 75 NAng = 302
    9    -107.4227769445      3.74E-01

NRad = 75 NAng = 302
   10    -113.3254927880      2.32E-02

NRad = 75 NAng = 302
   11    -111.1301070915      3.63E-02

NRad = 75 NAng = 302
   12    -103.2947115464      8.72E-02

NRad = 75 NAng = 302
   13    -110.5491998298      4.11E-02

NRad = 75 NAng = 302
   14    -121.3070143121      2.82E-02

NRad = 75 NAng = 302
   15    -113.4767161615      2.05E-02

NRad = 75 NAng = 302
   16    -113.6663788025      1.93E-02

NRad = 75 NAng = 302
   17    -113.9552966986      1.77E-02

NRad = 75 NAng = 302
   18    -113.6734788667      1.95E-02

NRad = 75 NAng = 302
   19    -113.1116599134      2.28E-02

NRad = 75 NAng = 302
   20    -113.3459240785      2.29E-02

NRad = 75 NAng = 302
   21    -114.3761024502      1.54E-02

NRad = 75 NAng = 302
   22    -115.5209849216      9.22E-03

NRad = 75 NAng = 302
   23    -115.1477622055      1.12E-02

NRad = 75 NAng = 302
   24    -116.6387965848      6.04E-03

NRad = 75 NAng = 302
   25    -116.5335338796      8.86E-03

NRad = 75 NAng = 302
   26    -115.1561223456      2.77E-02

NRad = 75 NAng = 302
   27    -115.9975432810      1.35E-02

NRad = 75 NAng = 302
   28    -117.7692743719      2.32E-03

NRad = 75 NAng = 302
   29    -117.8238704167      6.04E-04

NRad = 75 NAng = 302
   30    -117.8276644170      2.14E-04

NRad = 75 NAng = 302
   31    -117.8283669728      7.56E-05

NRad = 75 NAng = 302
   32    -117.8285713122      4.67E-05

NRad = 75 NAng = 302
   33    -117.8287552135      2.03E-05

NRad = 75 NAng = 302
   34    -117.8288317827      1.95E-05

NRad = 75 NAng = 302
   35    -117.8289095536      1.07E-05

NRad = 75 NAng = 302
   36    -117.8289503189      5.73E-06

NRad = 75 NAng = 302
   37    -117.8289644057      2.02E-06

NRad = 75 NAng = 302
   38    -117.8289603838      1.03E-06

NRad = 75 NAng = 302
   39    -117.8289593107      4.48E-07 Convergence criterion met
 ---------------------------------------
 One-Electron    Energy =  -301.9624362012
 Total Coulomb   Energy =   127.4153368514
 Alpha Exchange  Energy =    -1.9492901284
 Beta  Exchange  Energy =    -1.5636235779
 DFT   Exchange  Energy =   -14.0177231932
 DFT Correlation Energy =    -0.9593606339
 Nuclear Repu.   Energy =    75.2081375726
 Nuclear Attr.   Energy =  -419.7024502715
 Kinetic         Energy =   117.7400140703
 <S^2> = 8.7579
 SCF time:  CPU 1249.71 s  wall 1251.39 s
 Analysis of SCF Wavefunction
 
 --------------------------------------------------------------
             Orbital Energies (a.u.) and Symmetries
 --------------------------------------------------------------
 
 Alpha MOs, Unrestricted
 -- Occupied --                  
-10.362 -10.352 -10.352  -0.974  -0.881  -0.759  -0.655  -0.595
  1 A'    1 A"    2 A'    3 A'    2 A"    4 A'    5 A'    3 A"                 
 -0.588  -0.561  -0.544  -0.542  -0.346  -0.108  -0.087
  6 A'    4 A"    5 A"    7 A'    8 A'    9 A'   10 A'                         
 -- Virtual --                   
 -0.052  -0.032  -0.024  -0.011  -0.001   0.007   0.016   0.032
  6 A"   11 A'   12 A'    7 A"   13 A'    8 A"   14 A'    9 A"                 
  0.036   0.050   0.057   0.067   0.072   0.080   0.081   0.084
 15 A'   10 A"   16 A'   17 A'   11 A"   18 A'   12 A"   19 A'                 
  0.088   0.096   0.113   0.119   0.121   0.137   0.149   0.180
 13 A"   20 A'   14 A"   15 A"   21 A'   22 A'   23 A'   16 A"                 
  0.208   0.227   0.314   0.320   0.337   0.354   0.373   0.383
 24 A'   17 A"   25 A'   18 A"   26 A'   19 A"   27 A'   28 A'                 
  0.393   0.397   0.431   0.449   0.450   0.456   0.467   0.468
 20 A"   29 A'   21 A"   22 A"   30 A'   31 A'   32 A'   33 A'                 
  0.491   0.498   0.539   0.559   0.561   0.616   0.666   0.684
 23 A"   24 A"   34 A'   35 A'   25 A"   36 A'   26 A"   37 A'                 
  0.723   0.750   0.768   0.800   0.807   0.852   0.898   0.919
 27 A"   28 A"   38 A'   29 A"   39 A'   40 A'   41 A'   30 A"                 
  0.976   1.002   1.020   1.049   1.068   1.086   1.097   1.121
 42 A'   31 A"   43 A'   32 A"   44 A'   45 A'   33 A"   34 A"                 
  1.148   1.155   1.167   1.209   1.228   1.236   1.286   1.307
 46 A'   47 A'   35 A"   36 A"   37 A"   48 A'   49 A'   38 A"                 
  1.315   1.356   1.357   1.383   1.398   1.415   1.434   1.525
 50 A'   39 A"   51 A'   52 A'   40 A"   53 A'   41 A"   42 A"                 
  1.555   2.136   2.247   2.267   2.325   2.374   2.408   2.475
 54 A'   43 A"   55 A'   44 A"   56 A'   57 A'   58 A'   45 A"                 
  2.551   2.552   2.624   2.626   2.657   2.671   2.746   2.767
 46 A"   59 A'   60 A'   47 A"   61 A'   48 A"   62 A'   49 A"                 
  2.785   2.813   2.885   2.908   2.942   2.965   3.001   3.004
 63 A'   50 A"   64 A'   51 A"   65 A'   66 A'   52 A"   67 A'                 
  3.034   3.050   3.056   3.094   3.137   3.184   3.191   3.239
 53 A"   68 A'   54 A"   69 A'   55 A"   70 A'   71 A'   56 A"                 
  3.281   3.316   3.361   3.397   3.408   3.420   3.487   3.549
 72 A'   57 A"   73 A'   58 A"   59 A"   74 A'   75 A'   76 A'                 
  3.625   3.628   3.646   3.684   3.770   3.807   3.835   3.875
 60 A"   77 A'   61 A"   78 A'   62 A"   63 A"   79 A'   80 A'                 
  3.888   3.932   3.971   3.995   4.062   4.077   4.109   4.115
 64 A"   81 A'   65 A"   82 A'   66 A"   83 A'   84 A'   67 A"                 
  4.206   4.210   4.250   4.274   4.339   4.341   4.374   4.473
 85 A'   68 A"   69 A"   86 A'   87 A'   70 A"   71 A"   88 A'                 
  4.537   4.668   4.834   4.938   5.274   5.351   5.445   5.458
 89 A'   72 A"   73 A"   90 A'   74 A"   91 A'   75 A"   92 A'                 
  5.465   5.474  23.812  24.070  24.201  27.233  27.511  27.732
 76 A"   93 A'   94 A'   77 A"   95 A'   96 A'   78 A"   97 A'                 
 27.933  27.940  27.968  27.980  28.190  28.361  40.891  40.896
 79 A"   98 A'   99 A'   80 A"  100 A'   81 A"  101 A'  102 A'                 
 40.901  40.920  40.924  40.932  40.933  40.949  40.993  40.999
 82 A"  103 A'   83 A"   84 A"  104 A'   85 A"  105 A'  106 A'                 
 41.002  41.005  41.016  41.075  41.105
107 A'   86 A"   87 A"  108 A'   88 A"                                         
 
 Beta MOs, Unrestricted
 -- Occupied --                  
-10.342 -10.342 -10.339  -0.915  -0.832  -0.679  -0.569  -0.553
  1 A'    1 A"    2 A'    3 A'    2 A"    4 A'    5 A'    6 A'                 
 -0.539  -0.520
  3 A"    4 A"                                                                 
 -- Virtual --                   
 -0.434  -0.412  -0.180  -0.056  -0.033  -0.019  -0.013  -0.002
  5 A"    7 A'    8 A'    9 A'    6 A"   10 A'   11 A'   12 A'                 
  0.009   0.022   0.022   0.036   0.050   0.058   0.060   0.077
  7 A"    8 A"   13 A'   14 A'    9 A"   10 A"   15 A'   16 A'                 
  0.085   0.093   0.093   0.095   0.109   0.112   0.114   0.128
 11 A"   12 A"   17 A'   18 A'   19 A'   20 A'   13 A"   14 A"                 
  0.143   0.152   0.156   0.188   0.204   0.229   0.244   0.334
 15 A"   21 A'   22 A'   23 A'   16 A"   24 A'   17 A"   25 A'                 
  0.339   0.367   0.373   0.393   0.413   0.417   0.428   0.453
 18 A"   26 A'   19 A"   27 A'   20 A"   28 A'   29 A'   21 A"                 
  0.475   0.480   0.483   0.501   0.505   0.514   0.516   0.570
 22 A"   30 A'   31 A'   32 A'   23 A"   33 A'   24 A"   34 A'                 
  0.580   0.586   0.637   0.694   0.711   0.737   0.771   0.791
 35 A'   25 A"   36 A'   26 A"   37 A'   27 A"   28 A"   38 A'                 
  0.823   0.829   0.881   0.915   0.940   0.999   1.023   1.044
 29 A"   39 A'   40 A'   41 A'   30 A"   42 A'   31 A"   43 A'                 
  1.066   1.097   1.110   1.115   1.145   1.171   1.179   1.191
 32 A"   44 A'   45 A'   33 A"   34 A"   46 A'   47 A'   35 A"                 
  1.229   1.251   1.277   1.315   1.327   1.347   1.380   1.389
 36 A"   37 A"   48 A'   49 A'   38 A"   50 A'   39 A"   51 A'                 
  1.414   1.419   1.445   1.462   1.555   1.585   2.166   2.287
 52 A'   40 A"   53 A'   41 A"   42 A"   54 A'   43 A"   55 A'                 
  2.312   2.374   2.402   2.457   2.502   2.585   2.612   2.660
 44 A"   56 A'   57 A'   58 A'   45 A"   46 A"   59 A'   47 A"                 
  2.681   2.707   2.708   2.782   2.795   2.842   2.851   2.932
 60 A'   61 A'   48 A"   62 A'   49 A"   63 A'   50 A"   64 A'                 
  2.950   2.979   3.003   3.034   3.046   3.069   3.084   3.087
 51 A"   65 A'   66 A'   52 A"   67 A'   53 A"   54 A"   68 A'                 
  3.127   3.164   3.221   3.258   3.269   3.337   3.358   3.402
 69 A'   55 A"   70 A'   71 A'   56 A"   72 A'   57 A"   73 A'                 
  3.438   3.455   3.460   3.530   3.588   3.651   3.657   3.686
 58 A"   74 A'   59 A"   75 A'   76 A'   60 A"   77 A'   61 A"                 
  3.724   3.803   3.849   3.880   3.913   3.929   3.975   4.016
 78 A'   62 A"   63 A"   79 A'   80 A'   64 A"   81 A'   65 A"                 
  4.057   4.099   4.112   4.149   4.155   4.248   4.249   4.285
 82 A'   66 A"   83 A'   84 A'   67 A"   85 A'   68 A"   69 A"                 
  4.315   4.375   4.383   4.403   4.518   4.576   4.702   4.881
 86 A'   87 A'   70 A"   71 A"   88 A'   89 A'   72 A"   73 A"                 
  4.987   5.304   5.402   5.486   5.503   5.506   5.517  23.834
 90 A'   74 A"   91 A'   75 A"   92 A'   76 A"   93 A'   94 A'                 
 24.082  24.218  27.269  27.523  27.746  27.940  27.945  27.983
 77 A"   95 A'   96 A'   78 A"   97 A'   79 A"   98 A'   99 A'                 
 27.993  28.206  28.373  40.916  40.919  40.924  40.936  40.938
 80 A"  100 A'   81 A"  101 A'  102 A'   82 A"  103 A'   83 A"                 
 40.944  40.947  40.961  41.007  41.011  41.013  41.018  41.028
 84 A"  104 A'   85 A"  105 A'  106 A'   86 A"  107 A'   87 A"                 
 41.089  41.118
108 A'   88 A"                                                                 
 --------------------------------------------------------------
 
          Ground-State Mulliken Net Atomic Charges

     Atom                 Charge (a.u.)    Spin (a.u.)
  --------------------------------------------------------
      1 C                     0.933588       0.572820
      2 C                     0.570923      -0.322080
      3 C                     0.570923      -0.322080
      4 H                    -0.729662       1.320112
      5 H                    -0.163850       0.679911
      6 H                    -0.163850       0.679910
      7 H                    -0.073867       0.316893
      8 H                    -0.435169       0.878811
      9 H                    -0.073867       0.316893
     10 H                    -0.435169       0.878812
  --------------------------------------------------------
  Sum of atomic charges =     0.000000
  Sum of spin   charges =     5.000000

 -----------------------------------------------------------------
                    Cartesian Multipole Moments
 -----------------------------------------------------------------
    Charge (ESU x 10^10)
                 0.0000
    Dipole Moment (Debye)
         X      -1.4118      Y       0.8057      Z       0.0000
       Tot       1.6255
    Quadrupole Moments (Debye-Ang)
        XX     -38.6115     XY      -3.6632     YY     -54.4853
        XZ       0.0000     YZ       0.0000     ZZ     -26.9931
    Octapole Moments (Debye-Ang^2)
       XXX     -11.5575    XXY      -5.3375    XYY      -8.5431
       YYY      14.6017    XXZ       0.0000    XYZ       0.0000
       YYZ       0.0000    XZZ      -4.5461    YZZ       5.6858
       ZZZ       0.0000
    Hexadecapole Moments (Debye-Ang^3)
      XXXX    -197.6439   XXXY     -25.8101   XXYY    -110.8974
      XYYY     -32.7534   YYYY    -504.8211   XXXZ       0.0000
      XXYZ       0.0000   XYYZ       0.0000   YYYZ      -0.0001
      XXZZ    -100.2860   XYZZ      -9.4126   YYZZ    -155.7249
      XZZZ       0.0000   YZZZ      -0.0001   ZZZZ    -374.6593
 -----------------------------------------------------------------
 Total job time:  1251.93s(wall), 1250.23s(cpu) 
 Mon Jun  3 15:46:41 2013

        *************************************************************
        *                                                           *
        *  Thank you very much for using Q-Chem.  Have a nice day.  *
        *                                                           *
        *************************************************************


0 sent ACK to 0 
now end server 0 ... 
