Process 0 of 1 is on cl066.stfx.acenet.ca - thread support 1
initial socket setup ...start
initial socket setup ...done 
now start server 0 ... 

cmd = /usr/bin/ssh clhead /usr/local/qchem/bin/get_hostid 1711142964 > /scratch/tmp/6067137.1.short.q/qchem28840/lic.dat
                  Welcome to Q-Chem
     A Quantum Leap Into The Future Of Chemistry

 Y. Shao, L. Fusti-Molnar, Y. Jung, J. Kussmann, C. Ochsenfeld,
 S. T. Brown, A. T. B. Gilbert, L. V. Slipchenko,S. V. Levchenko,
 D. P. O'Neill, R. A. DiStasio Jr., R. C. Lochan, T. Wang,
 G. J. O. Beran, N. A. Besley, J. M. Herbert, C. Y. Lin,
 T. Van Voorhis, S. H. Chien, A. Sodt, R. P. Steele, 
 V. A. Rassolov, P. E. Maslen, P. P. Korambath, R. D. Adamson,
 B. Austin, J. Baker, E. F. C. Byrd, H. Dachsel, R. J. Doerksen,
 A. Dreuw, B. D. Dunietz, A. D. Dutoi, T. R. Furlani,
 S. R. Gwaltney, A. Heyden, S. Hirata, C.-P. Hsu, G. Kedziora,
 R. Z. Khaliullin, P. Klunzinger, A. M. Lee, M. S. Lee, W. Liang,
 I. Lotan, N. Nair, B. Peters, E. I. Proynov, P. A. Pieniazek, 
 Y. M. Rhee, J. Ritchie, E. Rosta, C. D. Sherrill, 
 A. C. Simmonett, J. E. Subotnik, H. L. Woodcock III,
 W. Zhang, A. T. Bell, A. K. Chakraborty, D. M. Chipman,
 F. J. Keil, A. Warshel, W. J. Hehre, H. F. Schaefer III,
 J. Kong, A. I. Krylov, P. M. W. Gill, M. Head-Gordon,
 Q-Chem, Version 3.1, Q-Chem, Inc., Pittsburgh, PA (2007).

 Additional authors for Version 3.1: 
 Z. Gan, Y. Zhao, N. E. Schultz, D. Truhlar, E. Epifanovsky and M. Oana.

 Additional authors for Version 3.2: 
 R. Baer, B. R. Brooks, D. Casanova, J.-D. Chai, C.-L. Cheng, 
 C. Cramer, D. Crittenden, A. Ghysels, G. Hawkins, E. G. Hohenstein, 
 C. Kelley, W. Kurlancheek, D. Liotard, E. Livshits, P. Manohar, 
 A. Marenich, D. Neuhauser, R. Olson, M. A. Rohrdanz, K. S. Thanthiriwatte, 
 A. J. W. Thom, V. Vanovschi, C. F. Williams, Q. Wu and Z.-Q. You. 


 Intel X86 Linux Version

 Q-chem begins on Wed Jul 24 16:04:07 2013  

 Parallel job on  1  processors
Processing $rem in /usr/local/qchem/config/preferences.

theFileMan(): MAXOPENFILES=974 MAX_SUB_FILE_NUM=16
Maximum size of a physical file is 2.0 GB, maximum size of a tmp-file is 32.0 GB


--------------------------------------------------------------
User input:
--------------------------------------------------------------

$molecule
0,1
C
C,1,R
H,1,RH,2,A
H,1,RH,2,A,3,180.00000,0
X,2,1.00000,1,90.00000,3,0.00000,0
O,2,RO,5,90.00000,1,180.00000,0

R=1.31493498
RH=1.08272621
RO=1.17138194
A=119.79095715

$end


$comment
b3lyp opt
$end

$rem
   EXCHANGE B3LYP
   UNRESTRICTED TRUE
   SYMMETRY_DECOMPOSITION	0
   BASIS                   g3large
   JOBTYPE                 opt
   mem_static              760
   max_scf_cycles          200
   scf_final_print         1
   sym_ignore              true
$end


--------------------------------------------------------------
 Writing REM_CC_EA            5
 ----------------------------------------------------
       Standard Nuclear Orientation (Angstroms)
    I     Atom         X            Y            Z
 ----------------------------------------------------
    1      C       0.000000     0.000000     0.000000
    2      C       0.000000     0.000000     1.314935
    3      H       0.939637     0.000000    -0.537938
    4      H      -0.939637     0.000000    -0.537938
    5      O       0.000000     0.000000     2.486317
 ----------------------------------------------------
 Nuclear Repulsion Energy =    58.2647349722 hartrees
 There are       11 alpha and       11 beta electrons
 Requested basis set is G3large
 There are 42 shells and 146 basis functions

Total QAlloc Memory Limit   2000 MB
Mega-Array Size       743 MB
MEM_STATIC part       760 MB
 A cutoff of  1.0D-11 yielded    861 shell pairs
 There are  10540 function pairs ( 13369 Cartesian)
Evaluating contribution to one-electron hamiltonian from nuclear
 Smallest overlap matrix eigenvalue = 5.35E-05
 Multipole matrices computed through 2nd order

  Scale SEOQF with 1.000000e-01/1.000000e-01/1.000000e-01

 Standard Electronic Orientation quadrupole field applied
 Nucleus-field energy     =    -0.0000000064 hartrees
 Guess from superposition of atomic densities
 Warning:  Energy on first SCF cycle will be non-variational
 An unrestricted hybrid HF-DFT SCF calculation will be
 performed using Pulay DIIS extrapolation
 Exchange:     0.2000 Hartree-Fock + 0.0800 Slater + 0.7200 Becke88
 Correlation:  0.8100 LYP + 0.1900 VWN1RPA
 Using SG-1 standard quadrature grid
 SCF converges when DIIS error is below 1.0E-08
 ---------------------------------------
  Cycle       Energy         DIIS Error
 ---------------------------------------
    1    -153.0998717083      3.92E-02
    2    -152.5795377104      6.02E-03
    3    -152.5184448959      8.19E-03
    4    -152.6553832945      1.69E-03
    5    -152.6605282053      6.80E-04
    6    -152.6614535876      2.35E-04
    7    -152.6616064454      1.05E-05
    8    -152.6616067962      2.80E-06
    9    -152.6616068205      8.05E-07
   10    -152.6616068041      1.42E-07
   11    -152.6616068182      3.64E-08
   12    -152.6616068185      9.24E-09 Convergence criterion met
 ---------------------------------------
 One-Electron    Energy =  -321.6142766718
 Total Coulomb   Energy =   130.8078559403
 Alpha Exchange  Energy =    -1.9213603505
 Beta  Exchange  Energy =    -1.9213603505
 DFT   Exchange  Energy =   -15.3149911386
 DFT Correlation Energy =    -0.9622092131
 Nuclear Repu.   Energy =    58.2647349658
 Nuclear Attr.   Energy =  -473.6209202600
 Kinetic         Energy =   152.0066435882
 <S^2> = 0.0000
 SCF time:  CPU 51.11 s  wall 51.39 s
 Final Alpha MO Eigenvalues
            1           2           3           4           5           6
    1 -19.1953946 -10.3031603 -10.1856947  -1.1225358  -0.7860369  -0.5503652
            7           8           9          10          11          12
    1  -0.4987938  -0.4943836  -0.4591756  -0.4153359  -0.2564703  -0.0514322
           13          14          15          16
    1  -0.0103791   0.0254225   0.0295004   0.0319361
 Final Beta MO Eigenvalues
            1           2           3           4           5           6
    1 -19.1953946 -10.3031603 -10.1856947  -1.1225358  -0.7860369  -0.5503652
            7           8           9          10          11          12
    1  -0.4987938  -0.4943836  -0.4591756  -0.4153359  -0.2564703  -0.0514322
           13          14          15          16
    1  -0.0103791   0.0254225   0.0295004   0.0319361
 Analysis of SCF Wavefunction
 
 --------------------------------------------------------------
                    Orbital Energies (a.u.)
 --------------------------------------------------------------
 
 Alpha MOs
 -- Occupied --
-19.195 -10.303 -10.186  -1.123  -0.786  -0.550  -0.499  -0.494
 -0.459  -0.415  -0.256
 -- Virtual --
 -0.051  -0.010   0.025   0.030   0.032   0.068   0.081   0.088
  0.105   0.109   0.137   0.140   0.147   0.223   0.240   0.265
  0.282   0.294   0.323   0.398   0.478   0.484   0.506   0.530
  0.540   0.569   0.585   0.636   0.636   0.689   0.712   0.752
  0.787   0.865   0.868   0.992   1.004   1.038   1.060   1.075
  1.107   1.140   1.284   1.302   1.389   1.405   1.462   1.508
  1.581   1.596   1.718   2.011   2.146   2.378   2.431   2.484
  2.551   2.629   2.652   2.665   2.687   2.699   2.718   2.729
  2.838   2.898   2.988   3.042   3.073   3.091   3.106   3.191
  3.244   3.263   3.268   3.290   3.486   3.525   3.593   3.668
  3.735   3.759   3.927   4.153   4.203   4.228   4.381   4.667
  4.747   4.965   5.005   5.005   5.052   5.163   5.222   5.238
  5.478   5.513   5.566   6.122   6.737   6.742   6.895   6.983
  7.240   7.307   7.327   7.923  24.363  24.749  27.268  27.451
 27.458  28.188  28.261  29.070  40.776  40.979  41.012  41.051
 41.142  41.152  41.153  41.240  41.327  41.359  43.633  43.688
 43.854  43.883  43.970  45.844  45.864  46.806  50.553
 
 Beta MOs
 -- Occupied --
-19.195 -10.303 -10.186  -1.123  -0.786  -0.550  -0.499  -0.494
 -0.459  -0.415  -0.256
 -- Virtual --
 -0.051  -0.010   0.025   0.030   0.032   0.068   0.081   0.088
  0.105   0.109   0.137   0.140   0.147   0.223   0.240   0.265
  0.282   0.294   0.323   0.398   0.478   0.484   0.506   0.530
  0.540   0.569   0.585   0.636   0.636   0.689   0.712   0.752
  0.787   0.865   0.868   0.992   1.004   1.038   1.060   1.075
  1.107   1.140   1.284   1.302   1.389   1.405   1.462   1.508
  1.581   1.596   1.718   2.011   2.146   2.378   2.431   2.484
  2.551   2.629   2.652   2.665   2.687   2.699   2.718   2.729
  2.838   2.898   2.988   3.042   3.073   3.091   3.106   3.191
  3.244   3.263   3.268   3.290   3.486   3.525   3.593   3.668
  3.735   3.759   3.927   4.153   4.203   4.228   4.381   4.667
  4.747   4.965   5.005   5.005   5.052   5.163   5.222   5.238
  5.478   5.513   5.566   6.122   6.737   6.742   6.895   6.983
  7.240   7.307   7.327   7.923  24.363  24.749  27.268  27.451
 27.458  28.188  28.261  29.070  40.776  40.979  41.012  41.051
 41.142  41.152  41.153  41.240  41.327  41.359  43.633  43.688
 43.854  43.883  43.970  45.844  45.864  46.806  50.553
 --------------------------------------------------------------
 
          Ground-State Mulliken Net Atomic Charges

     Atom                 Charge (a.u.)    Spin (a.u.)
  --------------------------------------------------------
      1 C                    -0.377416       0.000000
      2 C                     0.392778       0.000000
      3 H                     0.131657       0.000000
      4 H                     0.131657       0.000000
      5 O                    -0.278676       0.000000
  --------------------------------------------------------
  Sum of atomic charges =     0.000000
  Sum of spin   charges =     0.000000

 -----------------------------------------------------------------
                    Cartesian Multipole Moments
 -----------------------------------------------------------------
    Charge (ESU x 10^10)
                 0.0000
    Dipole Moment (Debye)
         X       0.0000      Y       0.0000      Z      -1.5967
       Tot       1.5967
    Quadrupole Moments (Debye-Ang)
        XX     -15.5243     XY       0.0000     YY     -19.2012
        XZ       0.0000     YZ       0.0000     ZZ     -22.0910
    Octapole Moments (Debye-Ang^2)
       XXX       0.0000    XXY       0.0000    XYY       0.0000
       YYY       0.0000    XXZ     -19.1089    XYZ       0.0000
       YYZ     -19.1767    XZZ       0.0000    YZZ       0.0000
       ZZZ     -74.2813
    Hexadecapole Moments (Debye-Ang^3)
      XXXX     -21.5866   XXXY       0.0000   XXYY      -7.7904
      XYYY       0.0000   YYYY     -22.3322   XXXZ       0.0000
      XXYZ       0.0000   XYYZ       0.0000   YYYZ       0.0000
      XXZZ     -46.8159   XYZZ       0.0000   YYZZ     -49.3533
      XZZZ       0.0000   YZZZ       0.0000   ZZZZ    -318.2049
 -----------------------------------------------------------------
 Calculating analytic gradient of the SCF energy
 Gradient of XC Energy
            1           2           3           4           5
    1   0.0000000   0.0000000   0.1766079  -0.1766079  -0.0000000
    2  -0.0000000   0.0000000   0.0000000  -0.0000000  -0.0000000
    3  -0.1537951  -0.0707853  -0.1038760  -0.1038760   0.4323324
 Gradient of SCF Energy
            1           2           3           4           5
    1   0.0000000   0.0000000   0.0024666  -0.0024666  -0.0000000
    2  -0.0000000   0.0000000   0.0000000  -0.0000000  -0.0000000
    3  -0.0058778  -0.0131969  -0.0020684  -0.0020684   0.0232115
 Max gradient component =       2.321E-02
 RMS gradient           =       7.156E-03
 Gradient time:  CPU 18.89 s  wall 18.93 s
 Geometry Optimization Parameters
   NAtoms,    NIC,     NZ,  NCons,   NDum,   NFix, NCnnct, MaxDiis
        5      20       6       0       0       0       0       0


** GEOMETRY OPTIMIZATION IN DELOCALIZED INTERNAL COORDINATES **
   Searching for a Minimum

   Optimization Cycle:   1

                       Coordinates (Angstroms)
     ATOM              X           Y           Z
    1  C           0.000000    0.000000    0.000000
    2  C           0.000000    0.000000    1.314935
    3  H           0.939637    0.000000   -0.537938
    4  H          -0.939637    0.000000   -0.537938
    5  O           0.000000    0.000000    2.486317
   Point Group: c1    Number of degrees of freedom:   9


   Energy is   -152.661606819


 Attempting to Generate Delocalized Internal Coordinates

  ***ERROR*** Wrong Number of Internal Coordinates
              Should be:   9  Found:   8
**WARNING** Problems with Internal Coordinates
  Switching to Cartesian Coordinates

 Translations and Rotations Projected Out of Hessian

  9 Hessian modes will be used to form the next step
  Hessian Eigenvalues:
     1.000000    1.000000    1.000000    1.000000    1.000000    1.000000
     1.000000    1.000000    1.000000

 Minimum Search - Taking Simple RFO Step
 Searching for Lamda that Minimizes Along All modes
 Value Taken    Lamda =  -0.00076820
 Step Taken.  Stepsize is  0.027695

                             Maximum     Tolerance    Cnvgd?
         Gradient           0.023211      0.000300      NO
         Displacement       0.023194      0.001200      NO
         Energy change     *********      0.000001      NO

 Writing REM_CC_EA            5
 ----------------------------------------------------
       Standard Nuclear Orientation (Angstroms)
    I     Atom         X            Y            Z
 ----------------------------------------------------
    1      C       0.000000     0.000000     0.003108
    2      C       0.000000     0.000000     1.321913
    3      H       0.938333     0.000000    -0.536845
    4      H      -0.938333     0.000000    -0.536845
    5      O       0.000000     0.000000     2.474043
 ----------------------------------------------------
 Nuclear Repulsion Energy =    58.6535438994 hartrees
 There are       11 alpha and       11 beta electrons
 Applying Cartesian multipole field
    Component          Value
    ---------          -----
     (2,0,0)        1.00000E-11
     (0,2,0)        2.00000E-11
     (0,0,2)       -3.00000E-11
 Nucleus-field energy     =    -0.0000000064 hartrees
 Requested basis set is G3large
 There are 42 shells and 146 basis functions
 A cutoff of  1.0D-11 yielded    862 shell pairs
 There are  10552 function pairs ( 13381 Cartesian)
Evaluating contribution to one-electron hamiltonian from nuclear
 Smallest overlap matrix eigenvalue = 5.39E-05
 Multipole matrices computed through 2nd order
 Guess MOs from SCF MO coefficient file
Reading MOs from coefficient file
Reading MOs from coefficient file
 An unrestricted hybrid HF-DFT SCF calculation will be
 performed using Pulay DIIS extrapolation
 Exchange:     0.2000 Hartree-Fock + 0.0800 Slater + 0.7200 Becke88
 Correlation:  0.8100 LYP + 0.1900 VWN1RPA
 Using SG-1 standard quadrature grid
 SCF converges when DIIS error is below 1.0E-08
 ---------------------------------------
  Cycle       Energy         DIIS Error
 ---------------------------------------
    1    -152.6618816955      1.17E-03
    2    -152.6614952213      2.75E-04
    3    -152.6610328627      5.20E-04
    4    -152.6616941233      7.62E-05
    5    -152.6617028781      3.51E-05
    6    -152.6617052937      3.37E-06
    7    -152.6617053221      9.67E-07
    8    -152.6617053207      1.75E-07
    9    -152.6617053158      1.32E-08
   10    -152.6617053130      1.87E-09 Convergence criterion met
 ---------------------------------------
 One-Electron    Energy =  -322.3487685436
 Total Coulomb   Energy =   131.1695025778
 Alpha Exchange  Energy =    -1.9231942555
 Beta  Exchange  Energy =    -1.9231942555
 DFT   Exchange  Energy =   -15.3267024196
 DFT Correlation Energy =    -0.9628923096
 Nuclear Repu.   Energy =    58.6535438931
 Nuclear Attr.   Energy =  -474.4277390305
 Kinetic         Energy =   152.0789704869
 <S^2> = 0.0000
 SCF time:  CPU 41.95 s  wall 42.22 s
 Final Alpha MO Eigenvalues
            1           2           3           4           5           6
    1 -19.1966003 -10.3010111 -10.1830924  -1.1353385  -0.7828039  -0.5506328
            7           8           9          10          11          12
    1  -0.5001508  -0.4964544  -0.4665901  -0.4185482  -0.2535673  -0.0467170
           13          14          15          16
    1  -0.0098342   0.0258964   0.0320753   0.0326388
 Final Beta MO Eigenvalues
            1           2           3           4           5           6
    1 -19.1966003 -10.3010111 -10.1830924  -1.1353385  -0.7828039  -0.5506328
            7           8           9          10          11          12
    1  -0.5001508  -0.4964544  -0.4665901  -0.4185482  -0.2535673  -0.0467170
           13          14          15          16
    1  -0.0098342   0.0258964   0.0320753   0.0326388
 Analysis of SCF Wavefunction
 
 --------------------------------------------------------------
                    Orbital Energies (a.u.)
 --------------------------------------------------------------
 
 Alpha MOs
 -- Occupied --
-19.197 -10.301 -10.183  -1.135  -0.783  -0.551  -0.500  -0.496
 -0.467  -0.419  -0.254
 -- Virtual --
 -0.047  -0.010   0.026   0.032   0.033   0.068   0.082   0.088
  0.105   0.109   0.138   0.141   0.148   0.225   0.241   0.264
  0.281   0.294   0.324   0.404   0.481   0.485   0.507   0.532
  0.541   0.570   0.586   0.636   0.638   0.688   0.712   0.749
  0.790   0.868   0.889   0.995   1.004   1.034   1.055   1.072
  1.110   1.139   1.285   1.310   1.391   1.409   1.463   1.516
  1.586   1.600   1.723   2.022   2.151   2.386   2.437   2.496
  2.556   2.627   2.649   2.671   2.687   2.699   2.722   2.729
  2.832   2.894   2.987   3.043   3.074   3.092   3.107   3.190
  3.251   3.264   3.280   3.289   3.497   3.538   3.595   3.664
  3.742   3.771   3.934   4.155   4.201   4.232   4.383   4.669
  4.774   4.970   5.004   5.005   5.063   5.185   5.228   5.254
  5.508   5.517   5.592   6.149   6.736   6.742   6.965   7.056
  7.243   7.309   7.332   7.967  24.414  24.737  27.272  27.452
 27.456  28.192  28.271  29.100  40.779  40.984  41.015  41.064
 41.156  41.159  41.166  41.240  41.329  41.357  43.632  43.687
 43.858  43.888  43.989  45.865  45.888  46.821  50.626
 
 Beta MOs
 -- Occupied --
-19.197 -10.301 -10.183  -1.135  -0.783  -0.551  -0.500  -0.496
 -0.467  -0.419  -0.254
 -- Virtual --
 -0.047  -0.010   0.026   0.032   0.033   0.068   0.082   0.088
  0.105   0.109   0.138   0.141   0.148   0.225   0.241   0.264
  0.281   0.294   0.324   0.404   0.481   0.485   0.507   0.532
  0.541   0.570   0.586   0.636   0.638   0.688   0.712   0.749
  0.790   0.868   0.889   0.995   1.004   1.034   1.055   1.072
  1.110   1.139   1.285   1.310   1.391   1.409   1.463   1.516
  1.586   1.600   1.723   2.022   2.151   2.386   2.437   2.496
  2.556   2.627   2.649   2.671   2.687   2.699   2.722   2.729
  2.832   2.894   2.987   3.043   3.074   3.092   3.107   3.190
  3.251   3.264   3.280   3.289   3.497   3.538   3.595   3.664
  3.742   3.771   3.934   4.155   4.201   4.232   4.383   4.669
  4.774   4.970   5.004   5.005   5.063   5.185   5.228   5.254
  5.508   5.517   5.592   6.149   6.736   6.742   6.965   7.056
  7.243   7.309   7.332   7.967  24.414  24.737  27.272  27.452
 27.456  28.192  28.271  29.100  40.779  40.984  41.015  41.064
 41.156  41.159  41.166  41.240  41.329  41.357  43.632  43.687
 43.858  43.888  43.989  45.865  45.888  46.821  50.626
 --------------------------------------------------------------
 
          Ground-State Mulliken Net Atomic Charges

     Atom                 Charge (a.u.)    Spin (a.u.)
  --------------------------------------------------------
      1 C                    -0.385922       0.000000
      2 C                     0.394392       0.000000
      3 H                     0.130560       0.000000
      4 H                     0.130560       0.000000
      5 O                    -0.269589       0.000000
  --------------------------------------------------------
  Sum of atomic charges =     0.000000
  Sum of spin   charges =     0.000000

 -----------------------------------------------------------------
                    Cartesian Multipole Moments
 -----------------------------------------------------------------
    Charge (ESU x 10^10)
                 0.0000
    Dipole Moment (Debye)
         X       0.0000      Y       0.0000      Z      -1.4318
       Tot       1.4318
    Quadrupole Moments (Debye-Ang)
        XX     -15.5115     XY       0.0000     YY     -19.2041
        XZ       0.0000     YZ       0.0000     ZZ     -21.6832
    Octapole Moments (Debye-Ang^2)
       XXX       0.0000    XXY       0.0000    XYY       0.0000
       YYY       0.0000    XXZ     -18.9161    XYZ       0.0000
       YYZ     -18.9776    XZZ       0.0000    YZZ       0.0000
       ZZZ     -73.0095
    Hexadecapole Moments (Debye-Ang^3)
      XXXX     -21.5871   XXXY       0.0000   XXYY      -7.8123
      XYYY       0.0000   YYYY     -22.4920   XXXZ       0.0000
      XXYZ       0.0000   XYYZ       0.0000   YYYZ       0.0000
      XXZZ     -46.2169   XYZZ       0.0000   YYZZ     -48.7185
      XZZZ       0.0000   YZZZ       0.0000   ZZZZ    -313.3242
 -----------------------------------------------------------------
 Calculating analytic gradient of the SCF energy
 Gradient of XC Energy
            1           2           3           4           5
    1  -0.0000000  -0.0000000   0.1762106  -0.1762106   0.0000000
    2   0.0000000  -0.0000000  -0.0000000  -0.0000000   0.0000000
    3  -0.1513563  -0.0691008  -0.1047452  -0.1047452   0.4299475
 Gradient of SCF Energy
            1           2           3           4           5
    1  -0.0000000  -0.0000000   0.0023357  -0.0023357   0.0000000
    2   0.0000000  -0.0000000   0.0000000   0.0000000  -0.0000000
    3  -0.0075628   0.0263811  -0.0025280  -0.0025280  -0.0137623
 Max gradient component =       2.638E-02
 RMS gradient           =       8.026E-03
 Gradient time:  CPU 21.07 s  wall 21.12 s
 Geometry Optimization Parameters
   NAtoms,    NIC,     NZ,  NCons,   NDum,   NFix, NCnnct, MaxDiis
        5      20       6       0       0       0       0       0

 Cartesian Hessian Update
 Hessian Updated using BFGS Update


** GEOMETRY OPTIMIZATION IN CARTESIAN COORDINATES **
   Searching for a Minimum

   Optimization Cycle:   2

                       Coordinates (Angstroms)
     ATOM              X           Y           Z
    1  C           0.000000    0.000000    0.003108
    2  C           0.000000    0.000000    1.321913
    3  H           0.938333    0.000000   -0.536845
    4  H          -0.938333    0.000000   -0.536845
    5  O           0.000000    0.000000    2.474043
   Point Group: c1    Number of degrees of freedom:   9


   Energy is   -152.661705313


 Translations and Rotations Projected Out of Hessian

  2 Hessian modes will be used to form the next step
  Hessian Eigenvalues:
     0.741969    2.404306

 Minimum Search - Taking Simple RFO Step
 Searching for Lamda that Minimizes Along All modes
 Value Taken    Lamda =  -0.00041975
 Step Taken.  Stepsize is  0.014091

                             Maximum     Tolerance    Cnvgd?
         Gradient           0.026381      0.000300      NO
         Displacement       0.012112      0.001200      NO
         Energy change     -0.000098      0.000001      NO

 Writing REM_CC_EA            5
 ----------------------------------------------------
       Standard Nuclear Orientation (Angstroms)
    I     Atom         X            Y            Z
 ----------------------------------------------------
    1      C       0.000000     0.000000     0.005985
    2      C       0.000000     0.000000     1.315504
    3      H       0.937375     0.000000    -0.535872
    4      H      -0.937375     0.000000    -0.535872
    5      O       0.000000     0.000000     2.475630
 ----------------------------------------------------
 Nuclear Repulsion Energy =    58.6190821272 hartrees
 There are       11 alpha and       11 beta electrons
 Applying Cartesian multipole field
    Component          Value
    ---------          -----
     (2,0,0)        1.00000E-11
     (0,2,0)        2.00000E-11
     (0,0,2)       -3.00000E-11
 Nucleus-field energy     =    -0.0000000064 hartrees
 Requested basis set is G3large
 There are 42 shells and 146 basis functions
 A cutoff of  1.0D-11 yielded    862 shell pairs
 There are  10552 function pairs ( 13381 Cartesian)
Evaluating contribution to one-electron hamiltonian from nuclear
 Smallest overlap matrix eigenvalue = 5.19E-05
 Multipole matrices computed through 2nd order
 Guess MOs from SCF MO coefficient file
Reading MOs from coefficient file
Reading MOs from coefficient file
 An unrestricted hybrid HF-DFT SCF calculation will be
 performed using Pulay DIIS extrapolation
 Exchange:     0.2000 Hartree-Fock + 0.0800 Slater + 0.7200 Becke88
 Correlation:  0.8100 LYP + 0.1900 VWN1RPA
 Using SG-1 standard quadrature grid
 SCF converges when DIIS error is below 1.0E-08
 ---------------------------------------
  Cycle       Energy         DIIS Error
 ---------------------------------------
    1    -152.6626001358      6.54E-04
    2    -152.6618610013      1.57E-04
    3    -152.6616598506      3.45E-04
    4    -152.6619240500      2.84E-05
    5    -152.6619253150      1.57E-05
    6    -152.6619258336      1.05E-06
    7    -152.6619258363      4.75E-07
    8    -152.6619258793      1.08E-07
    9    -152.6619258692      7.86E-09 Convergence criterion met
 ---------------------------------------
 One-Electron    Energy =  -322.3008271123
 Total Coulomb   Energy =   131.1545046286
 Alpha Exchange  Energy =    -1.9229894310
 Beta  Exchange  Energy =    -1.9229894310
 DFT   Exchange  Energy =   -15.3258045266
 DFT Correlation Energy =    -0.9629021178
 Nuclear Repu.   Energy =    58.6190821208
 Nuclear Attr.   Energy =  -474.3717964811
 Kinetic         Energy =   152.0709693688
 <S^2> = 0.0000
 SCF time:  CPU 38.45 s  wall 38.66 s
 Final Alpha MO Eigenvalues
            1           2           3           4           5           6
    1 -19.1950387 -10.3004600 -10.1831329  -1.1291469  -0.7861378  -0.5500423
            7           8           9          10          11          12
    1  -0.5000063  -0.4958195  -0.4631521  -0.4163922  -0.2554819  -0.0483459
           13          14          15          16
    1  -0.0099733   0.0257762   0.0320252   0.0323260
 Final Beta MO Eigenvalues
            1           2           3           4           5           6
    1 -19.1950387 -10.3004600 -10.1831329  -1.1291469  -0.7861378  -0.5500423
            7           8           9          10          11          12
    1  -0.5000063  -0.4958195  -0.4631521  -0.4163922  -0.2554819  -0.0483459
           13          14          15          16
    1  -0.0099733   0.0257762   0.0320252   0.0323260
 Analysis of SCF Wavefunction
 
 --------------------------------------------------------------
                    Orbital Energies (a.u.)
 --------------------------------------------------------------
 
 Alpha MOs
 -- Occupied --
-19.195 -10.300 -10.183  -1.129  -0.786  -0.550  -0.500  -0.496
 -0.463  -0.416  -0.255
 -- Virtual --
 -0.048  -0.010   0.026   0.032   0.032   0.068   0.081   0.088
  0.105   0.109   0.138   0.140   0.148   0.226   0.241   0.265
  0.282   0.295   0.325   0.401   0.480   0.484   0.506   0.531
  0.541   0.569   0.585   0.636   0.638   0.690   0.713   0.751
  0.791   0.868   0.885   0.995   1.005   1.037   1.057   1.074
  1.110   1.140   1.287   1.309   1.390   1.410   1.462   1.513
  1.585   1.600   1.723   2.018   2.151   2.386   2.435   2.491
  2.553   2.629   2.648   2.667   2.685   2.698   2.722   2.732
  2.836   2.901   2.988   3.044   3.072   3.093   3.107   3.191
  3.251   3.263   3.271   3.291   3.496   3.540   3.602   3.670
  3.741   3.774   3.939   4.153   4.203   4.235   4.391   4.684
  4.776   4.972   5.005   5.006   5.065   5.175   5.234   5.261
  5.499   5.516   5.588   6.151   6.738   6.744   6.947   7.038
  7.244   7.312   7.333   7.958  24.381  24.777  27.275  27.456
 27.466  28.191  28.268  29.117  40.779  40.982  41.015  41.056
 41.153  41.156  41.162  41.247  41.333  41.372  43.634  43.689
 43.858  43.888  43.983  45.859  45.881  46.819  50.605
 
 Beta MOs
 -- Occupied --
-19.195 -10.300 -10.183  -1.129  -0.786  -0.550  -0.500  -0.496
 -0.463  -0.416  -0.255
 -- Virtual --
 -0.048  -0.010   0.026   0.032   0.032   0.068   0.081   0.088
  0.105   0.109   0.138   0.140   0.148   0.226   0.241   0.265
  0.282   0.295   0.325   0.401   0.480   0.484   0.506   0.531
  0.541   0.569   0.585   0.636   0.638   0.690   0.713   0.751
  0.791   0.868   0.885   0.995   1.005   1.037   1.057   1.074
  1.110   1.140   1.287   1.309   1.390   1.410   1.462   1.513
  1.585   1.600   1.723   2.018   2.151   2.386   2.435   2.491
  2.553   2.629   2.648   2.667   2.685   2.698   2.722   2.732
  2.836   2.901   2.988   3.044   3.072   3.093   3.107   3.191
  3.251   3.263   3.271   3.291   3.496   3.540   3.602   3.670
  3.741   3.774   3.939   4.153   4.203   4.235   4.391   4.684
  4.776   4.972   5.005   5.006   5.065   5.175   5.234   5.261
  5.499   5.516   5.588   6.151   6.738   6.744   6.947   7.038
  7.244   7.312   7.333   7.958  24.381  24.777  27.275  27.456
 27.466  28.191  28.268  29.117  40.779  40.982  41.015  41.056
 41.153  41.156  41.162  41.247  41.333  41.372  43.634  43.689
 43.858  43.888  43.983  45.859  45.881  46.819  50.605
 --------------------------------------------------------------
 
          Ground-State Mulliken Net Atomic Charges

     Atom                 Charge (a.u.)    Spin (a.u.)
  --------------------------------------------------------
      1 C                    -0.382865       0.000000
      2 C                     0.397169       0.000000
      3 H                     0.131047       0.000000
      4 H                     0.131047       0.000000
      5 O                    -0.276397       0.000000
  --------------------------------------------------------
  Sum of atomic charges =     0.000000
  Sum of spin   charges =     0.000000

 -----------------------------------------------------------------
                    Cartesian Multipole Moments
 -----------------------------------------------------------------
    Charge (ESU x 10^10)
                 0.0000
    Dipole Moment (Debye)
         X       0.0000      Y       0.0000      Z      -1.5305
       Tot       1.5305
    Quadrupole Moments (Debye-Ang)
        XX     -15.5077     XY       0.0000     YY     -19.1686
        XZ       0.0000     YZ       0.0000     ZZ     -21.9028
    Octapole Moments (Debye-Ang^2)
       XXX       0.0000    XXY       0.0000    XYY       0.0000
       YYY       0.0000    XXZ     -18.9884    XYZ       0.0000
       YYZ     -19.0560    XZZ       0.0000    YZZ       0.0000
       ZZZ     -73.6385
    Hexadecapole Moments (Debye-Ang^3)
      XXXX     -21.5504   XXXY       0.0000   XXYY      -7.7734
      XYYY       0.0000   YYYY     -22.3043   XXXZ       0.0000
      XXYZ       0.0000   XYYZ       0.0000   YYYZ       0.0000
      XXZZ     -46.3459   XYZZ       0.0000   YYZZ     -48.8489
      XZZZ       0.0000   YZZZ       0.0000   ZZZZ    -314.8212
 -----------------------------------------------------------------
 Calculating analytic gradient of the SCF energy
 Gradient of XC Energy
            1           2           3           4           5
    1  -0.0000000  -0.0000000   0.1759256  -0.1759256   0.0000000
    2   0.0000000  -0.0000000   0.0000000  -0.0000000  -0.0000000
    3  -0.1523745  -0.0672922  -0.1049091  -0.1049091   0.4294850
 Gradient of SCF Energy
            1           2           3           4           5
    1  -0.0000000   0.0000000   0.0022696  -0.0022696   0.0000000
    2  -0.0000000  -0.0000000   0.0000000   0.0000000   0.0000000
    3   0.0017953   0.0015599  -0.0023899  -0.0023899   0.0014246
 Max gradient component =       2.390E-03
 RMS gradient           =       1.400E-03
 Gradient time:  CPU 21.09 s  wall 21.11 s
 Geometry Optimization Parameters
   NAtoms,    NIC,     NZ,  NCons,   NDum,   NFix, NCnnct, MaxDiis
        5      20       6       0       0       0       0       0

 Cartesian Hessian Update
 Hessian Updated using BFGS Update


** GEOMETRY OPTIMIZATION IN CARTESIAN COORDINATES **
   Searching for a Minimum

   Optimization Cycle:   3

                       Coordinates (Angstroms)
     ATOM              X           Y           Z
    1  C           0.000000    0.000000    0.005985
    2  C           0.000000    0.000000    1.315504
    3  H           0.937375    0.000000   -0.535872
    4  H          -0.937375    0.000000   -0.535872
    5  O           0.000000    0.000000    2.475630
   Point Group: c1    Number of degrees of freedom:   9


   Energy is   -152.661925869


 Translations and Rotations Projected Out of Hessian

  3 Hessian modes will be used to form the next step
  Hessian Eigenvalues:
     0.681347    0.980779    2.530930

 Minimum Search - Taking Simple RFO Step
 Searching for Lamda that Minimizes Along All modes
 Value Taken    Lamda =  -0.00003431
 Step Taken.  Stepsize is  0.006454

                             Maximum     Tolerance    Cnvgd?
         Gradient           0.002390      0.000300      NO
         Displacement       0.002802      0.001200      NO
         Energy change     -0.000221      0.000001      NO

 Writing REM_CC_EA            5
 ----------------------------------------------------
       Standard Nuclear Orientation (Angstroms)
    I     Atom         X            Y            Z
 ----------------------------------------------------
    1      C       0.000000     0.000000     0.005417
    2      C       0.000000     0.000000     1.314187
    3      H       0.935953     0.000000    -0.534389
    4      H      -0.935953     0.000000    -0.534389
    5      O       0.000000     0.000000     2.474550
 ----------------------------------------------------
 Nuclear Repulsion Energy =    58.6448303152 hartrees
 There are       11 alpha and       11 beta electrons
 Applying Cartesian multipole field
    Component          Value
    ---------          -----
     (2,0,0)        1.00000E-11
     (0,2,0)        2.00000E-11
     (0,0,2)       -3.00000E-11
 Nucleus-field energy     =    -0.0000000064 hartrees
 Requested basis set is G3large
 There are 42 shells and 146 basis functions
 A cutoff of  1.0D-11 yielded    862 shell pairs
 There are  10552 function pairs ( 13381 Cartesian)
Evaluating contribution to one-electron hamiltonian from nuclear
 Smallest overlap matrix eigenvalue = 5.18E-05
 Multipole matrices computed through 2nd order
 Guess MOs from SCF MO coefficient file
Reading MOs from coefficient file
Reading MOs from coefficient file
 An unrestricted hybrid HF-DFT SCF calculation will be
 performed using Pulay DIIS extrapolation
 Exchange:     0.2000 Hartree-Fock + 0.0800 Slater + 0.7200 Becke88
 Correlation:  0.8100 LYP + 0.1900 VWN1RPA
 Using SG-1 standard quadrature grid
 SCF converges when DIIS error is below 1.0E-08
 ---------------------------------------
  Cycle       Energy         DIIS Error
 ---------------------------------------
    1    -152.6627695624      5.14E-05
    2    -152.6619504652      2.53E-05
    3    -152.6619479022      4.47E-05
    4    -152.6619523639      5.57E-06
    5    -152.6619524359      2.30E-06
    6    -152.6619524462      4.05E-07
    7    -152.6619524078      7.98E-08
    8    -152.6619524207      1.11E-08
    9    -152.6619524202      1.78E-09 Convergence criterion met
 ---------------------------------------
 One-Electron    Energy =  -322.3506193401
 Total Coulomb   Energy =   131.1805450322
 Alpha Exchange  Energy =    -1.9231988158
 Beta  Exchange  Energy =    -1.9231988158
 DFT   Exchange  Energy =   -15.3273137758
 DFT Correlation Energy =    -0.9629970136
 Nuclear Repu.   Energy =    58.6448303089
 Nuclear Attr.   Energy =  -474.4292429212
 Kinetic         Energy =   152.0786235811
 <S^2> = 0.0000
 SCF time:  CPU 37.16 s  wall 37.37 s
 Final Alpha MO Eigenvalues
            1           2           3           4           5           6
    1 -19.1949329 -10.3003394 -10.1826629  -1.1289213  -0.7865827  -0.5501519
            7           8           9          10          11          12
    1  -0.5000982  -0.4962089  -0.4630430  -0.4165885  -0.2555999  -0.0481780
           13          14          15          16
    1  -0.0099125   0.0257630   0.0320712   0.0323933
 Final Beta MO Eigenvalues
            1           2           3           4           5           6
    1 -19.1949329 -10.3003394 -10.1826629  -1.1289213  -0.7865827  -0.5501519
            7           8           9          10          11          12
    1  -0.5000982  -0.4962089  -0.4630430  -0.4165885  -0.2555999  -0.0481780
           13          14          15          16
    1  -0.0099125   0.0257630   0.0320712   0.0323933
 Analysis of SCF Wavefunction
 
 --------------------------------------------------------------
                    Orbital Energies (a.u.)
 --------------------------------------------------------------
 
 Alpha MOs
 -- Occupied --
-19.195 -10.300 -10.183  -1.129  -0.787  -0.550  -0.500  -0.496
 -0.463  -0.417  -0.256
 -- Virtual --
 -0.048  -0.010   0.026   0.032   0.032   0.068   0.081   0.088
  0.105   0.109   0.138   0.140   0.148   0.226   0.241   0.265
  0.282   0.295   0.325   0.401   0.481   0.484   0.506   0.531
  0.542   0.570   0.585   0.636   0.638   0.690   0.713   0.751
  0.791   0.868   0.885   0.995   1.006   1.037   1.057   1.074
  1.111   1.141   1.288   1.309   1.392   1.410   1.465   1.513
  1.586   1.601   1.723   2.018   2.151   2.387   2.433   2.491
  2.552   2.629   2.647   2.667   2.686   2.698   2.723   2.732
  2.837   2.902   2.989   3.045   3.071   3.092   3.109   3.191
  3.251   3.263   3.271   3.291   3.497   3.540   3.604   3.671
  3.746   3.774   3.942   4.157   4.208   4.238   4.394   4.686
  4.778   4.974   5.005   5.006   5.065   5.175   5.238   5.265
  5.499   5.524   5.588   6.154   6.738   6.744   6.947   7.038
  7.244   7.313   7.333   7.959  24.382  24.784  27.276  27.457
 27.467  28.194  28.269  29.119  40.780  40.983  41.015  41.056
 41.153  41.156  41.162  41.248  41.335  41.374  43.634  43.689
 43.858  43.888  43.983  45.859  45.881  46.819  50.605
 
 Beta MOs
 -- Occupied --
-19.195 -10.300 -10.183  -1.129  -0.787  -0.550  -0.500  -0.496
 -0.463  -0.417  -0.256
 -- Virtual --
 -0.048  -0.010   0.026   0.032   0.032   0.068   0.081   0.088
  0.105   0.109   0.138   0.140   0.148   0.226   0.241   0.265
  0.282   0.295   0.325   0.401   0.481   0.484   0.506   0.531
  0.542   0.570   0.585   0.636   0.638   0.690   0.713   0.751
  0.791   0.868   0.885   0.995   1.006   1.037   1.057   1.074
  1.111   1.141   1.288   1.309   1.392   1.410   1.465   1.513
  1.586   1.601   1.723   2.018   2.151   2.387   2.433   2.491
  2.552   2.629   2.647   2.667   2.686   2.698   2.723   2.732
  2.837   2.902   2.989   3.045   3.071   3.092   3.109   3.191
  3.251   3.263   3.271   3.291   3.497   3.540   3.604   3.671
  3.746   3.774   3.942   4.157   4.208   4.238   4.394   4.686
  4.778   4.974   5.005   5.006   5.065   5.175   5.238   5.265
  5.499   5.524   5.588   6.154   6.738   6.744   6.947   7.038
  7.244   7.313   7.333   7.959  24.382  24.784  27.276  27.457
 27.467  28.194  28.269  29.119  40.780  40.983  41.015  41.056
 41.153  41.156  41.162  41.248  41.335  41.374  43.634  43.689
 43.858  43.888  43.983  45.859  45.881  46.819  50.605
 --------------------------------------------------------------
 
          Ground-State Mulliken Net Atomic Charges

     Atom                 Charge (a.u.)    Spin (a.u.)
  --------------------------------------------------------
      1 C                    -0.383884       0.000000
      2 C                     0.397819       0.000000
      3 H                     0.131386       0.000000
      4 H                     0.131386       0.000000
      5 O                    -0.276707       0.000000
  --------------------------------------------------------
  Sum of atomic charges =     0.000000
  Sum of spin   charges =     0.000000

 -----------------------------------------------------------------
                    Cartesian Multipole Moments
 -----------------------------------------------------------------
    Charge (ESU x 10^10)
                 0.0000
    Dipole Moment (Debye)
         X       0.0000      Y       0.0000      Z      -1.5325
       Tot       1.5325
    Quadrupole Moments (Debye-Ang)
        XX     -15.5048     XY       0.0000     YY     -19.1601
        XZ       0.0000     YZ       0.0000     ZZ     -21.9106
    Octapole Moments (Debye-Ang^2)
       XXX       0.0000    XXY       0.0000    XYY       0.0000
       YYY       0.0000    XXZ     -18.9724    XYZ       0.0000
       YYZ     -19.0465    XZZ       0.0000    YZZ       0.0000
       ZZZ     -73.6152
    Hexadecapole Moments (Debye-Ang^3)
      XXXX     -21.5084   XXXY       0.0000   XXYY      -7.7603
      XYYY       0.0000   YYYY     -22.2823   XXXZ       0.0000
      XXYZ       0.0000   XYYZ       0.0000   YYYZ       0.0000
      XXZZ     -46.3042   XYZZ       0.0000   YYZZ     -48.8031
      XZZZ       0.0000   YZZZ       0.0000   ZZZZ    -314.5389
 -----------------------------------------------------------------
 Calculating analytic gradient of the SCF energy
 Gradient of XC Energy
            1           2           3           4           5
    1   0.0000000   0.0000000   0.1762679  -0.1762679  -0.0000000
    2  -0.0000000   0.0000000   0.0000000   0.0000000  -0.0000000
    3  -0.1523841  -0.0675387  -0.1047456  -0.1047456   0.4294139
 Gradient of SCF Energy
            1           2           3           4           5
    1  -0.0000000  -0.0000000   0.0009979  -0.0009979  -0.0000000
    2   0.0000000  -0.0000000  -0.0000000  -0.0000000   0.0000000
    3   0.0009900   0.0001333  -0.0014899  -0.0014899   0.0018566
 Max gradient component =       1.857E-03
 RMS gradient           =       8.515E-04
 Gradient time:  CPU 18.89 s  wall 18.94 s
 Geometry Optimization Parameters
   NAtoms,    NIC,     NZ,  NCons,   NDum,   NFix, NCnnct, MaxDiis
        5      20       6       0       0       0       0       0

 Cartesian Hessian Update
 Hessian Updated using BFGS Update


** GEOMETRY OPTIMIZATION IN CARTESIAN COORDINATES **
   Searching for a Minimum

   Optimization Cycle:   4

                       Coordinates (Angstroms)
     ATOM              X           Y           Z
    1  C           0.000000    0.000000    0.005417
    2  C           0.000000    0.000000    1.314187
    3  H           0.935953    0.000000   -0.534389
    4  H          -0.935953    0.000000   -0.534389
    5  O           0.000000    0.000000    2.474550
   Point Group: c1    Number of degrees of freedom:   9


   Energy is   -152.661952420


 Translations and Rotations Projected Out of Hessian

  4 Hessian modes will be used to form the next step
  Hessian Eigenvalues:
     0.318581    0.886560    1.036422    2.595452

 Minimum Search - Taking Simple RFO Step
 Searching for Lamda that Minimizes Along All modes
 Value Taken    Lamda =  -0.00002853
 Step Taken.  Stepsize is  0.009291

                             Maximum     Tolerance    Cnvgd?
         Gradient           0.001857      0.000300      NO
         Displacement       0.004463      0.001200      NO
         Energy change     -0.000027      0.000001      NO

 Writing REM_CC_EA            5
 ----------------------------------------------------
       Standard Nuclear Orientation (Angstroms)
    I     Atom         X            Y            Z
 ----------------------------------------------------
    1      C       0.000000     0.000000     0.004937
    2      C       0.000000     0.000000     1.312533
    3      H       0.934291     0.000000    -0.532142
    4      H      -0.934291     0.000000    -0.532142
    5      O       0.000000     0.000000     2.472189
 ----------------------------------------------------
 Nuclear Repulsion Energy =    58.7053347046 hartrees
 There are       11 alpha and       11 beta electrons
 Applying Cartesian multipole field
    Component          Value
    ---------          -----
     (2,0,0)        1.00000E-11
     (0,2,0)        2.00000E-11
     (0,0,2)       -3.00000E-11
 Nucleus-field energy     =    -0.0000000063 hartrees
 Requested basis set is G3large
 There are 42 shells and 146 basis functions
 A cutoff of  1.0D-11 yielded    862 shell pairs
 There are  10552 function pairs ( 13381 Cartesian)
Evaluating contribution to one-electron hamiltonian from nuclear
 Smallest overlap matrix eigenvalue = 5.15E-05
 Multipole matrices computed through 2nd order
 Guess MOs from SCF MO coefficient file
Reading MOs from coefficient file
Reading MOs from coefficient file
 An unrestricted hybrid HF-DFT SCF calculation will be
 performed using Pulay DIIS extrapolation
 Exchange:     0.2000 Hartree-Fock + 0.0800 Slater + 0.7200 Becke88
 Correlation:  0.8100 LYP + 0.1900 VWN1RPA
 Using SG-1 standard quadrature grid
 SCF converges when DIIS error is below 1.0E-08
 ---------------------------------------
  Cycle       Energy         DIIS Error
 ---------------------------------------
    1    -152.6628731974      7.15E-05
    2    -152.6619653632      2.54E-05
    3    -152.6619616490      5.07E-05
    4    -152.6619672113      5.31E-06
    5    -152.6619672719      1.65E-06
    6    -152.6619672749      6.79E-07
    7    -152.6619672703      1.30E-07
    8    -152.6619672908      1.43E-08
    9    -152.6619672902      3.48E-09 Convergence criterion met
 ---------------------------------------
 One-Electron    Energy =  -322.4673976396
 Total Coulomb   Energy =   131.2404956766
 Alpha Exchange  Energy =    -1.9235900306
 Beta  Exchange  Energy =    -1.9235900306
 DFT   Exchange  Energy =   -15.3300511925
 DFT Correlation Energy =    -0.9631687718
 Nuclear Repu.   Energy =    58.7053346983
 Nuclear Attr.   Energy =  -474.5607955541
 Kinetic         Energy =   152.0933979145
 <S^2> = 0.0000
 SCF time:  CPU 36.50 s  wall 36.74 s
 Final Alpha MO Eigenvalues
            1           2           3           4           5           6
    1 -19.1947955 -10.2999801 -10.1818832  -1.1292548  -0.7870987  -0.5502354
            7           8           9          10          11          12
    1  -0.5002529  -0.4968674  -0.4632719  -0.4169756  -0.2556359  -0.0476780
           13          14          15          16
    1  -0.0098070   0.0257670   0.0321444   0.0326996
 Final Beta MO Eigenvalues
            1           2           3           4           5           6
    1 -19.1947955 -10.2999801 -10.1818832  -1.1292548  -0.7870987  -0.5502354
            7           8           9          10          11          12
    1  -0.5002529  -0.4968674  -0.4632719  -0.4169756  -0.2556359  -0.0476780
           13          14          15          16
    1  -0.0098070   0.0257670   0.0321444   0.0326996
 Analysis of SCF Wavefunction
 
 --------------------------------------------------------------
                    Orbital Energies (a.u.)
 --------------------------------------------------------------
 
 Alpha MOs
 -- Occupied --
-19.195 -10.300 -10.182  -1.129  -0.787  -0.550  -0.500  -0.497
 -0.463  -0.417  -0.256
 -- Virtual --
 -0.048  -0.010   0.026   0.032   0.033   0.068   0.082   0.088
  0.105   0.110   0.139   0.140   0.148   0.226   0.242   0.265
  0.283   0.295   0.326   0.401   0.482   0.484   0.506   0.531
  0.543   0.570   0.585   0.636   0.638   0.691   0.713   0.751
  0.792   0.869   0.886   0.996   1.007   1.038   1.057   1.074
  1.112   1.142   1.290   1.310   1.394   1.410   1.467   1.514
  1.586   1.601   1.723   2.018   2.152   2.388   2.431   2.491
  2.550   2.629   2.646   2.667   2.686   2.698   2.724   2.732
  2.838   2.902   2.990   3.046   3.069   3.092   3.111   3.190
  3.252   3.264   3.271   3.290   3.500   3.542   3.606   3.673
  3.753   3.776   3.945   4.162   4.215   4.243   4.400   4.689
  4.782   4.977   5.006   5.007   5.067   5.176   5.244   5.270
  5.501   5.535   5.591   6.159   6.738   6.744   6.951   7.043
  7.244   7.314   7.334   7.962  24.386  24.793  27.277  27.458
 27.469  28.198  28.270  29.126  40.780  40.985  41.016  41.057
 41.154  41.157  41.163  41.250  41.338  41.377  43.634  43.689
 43.859  43.889  43.984  45.860  45.883  46.820  50.609
 
 Beta MOs
 -- Occupied --
-19.195 -10.300 -10.182  -1.129  -0.787  -0.550  -0.500  -0.497
 -0.463  -0.417  -0.256
 -- Virtual --
 -0.048  -0.010   0.026   0.032   0.033   0.068   0.082   0.088
  0.105   0.110   0.139   0.140   0.148   0.226   0.242   0.265
  0.283   0.295   0.326   0.401   0.482   0.484   0.506   0.531
  0.543   0.570   0.585   0.636   0.638   0.691   0.713   0.751
  0.792   0.869   0.886   0.996   1.007   1.038   1.057   1.074
  1.112   1.142   1.290   1.310   1.394   1.410   1.467   1.514
  1.586   1.601   1.723   2.018   2.152   2.388   2.431   2.491
  2.550   2.629   2.646   2.667   2.686   2.698   2.724   2.732
  2.838   2.902   2.990   3.046   3.069   3.092   3.111   3.190
  3.252   3.264   3.271   3.290   3.500   3.542   3.606   3.673
  3.753   3.776   3.945   4.162   4.215   4.243   4.400   4.689
  4.782   4.977   5.006   5.007   5.067   5.176   5.244   5.270
  5.501   5.535   5.591   6.159   6.738   6.744   6.951   7.043
  7.244   7.314   7.334   7.962  24.386  24.793  27.277  27.458
 27.469  28.198  28.270  29.126  40.780  40.985  41.016  41.057
 41.154  41.157  41.163  41.250  41.338  41.377  43.634  43.689
 43.859  43.889  43.984  45.860  45.883  46.820  50.609
 --------------------------------------------------------------
 
          Ground-State Mulliken Net Atomic Charges

     Atom                 Charge (a.u.)    Spin (a.u.)
  --------------------------------------------------------
      1 C                    -0.385605       0.000000
      2 C                     0.398901       0.000000
      3 H                     0.131749       0.000000
      4 H                     0.131749       0.000000
      5 O                    -0.276796       0.000000
  --------------------------------------------------------
  Sum of atomic charges =     0.000000
  Sum of spin   charges =     0.000000

 -----------------------------------------------------------------
                    Cartesian Multipole Moments
 -----------------------------------------------------------------
    Charge (ESU x 10^10)
                 0.0000
    Dipole Moment (Debye)
         X       0.0000      Y       0.0000      Z      -1.5277
       Tot       1.5277
    Quadrupole Moments (Debye-Ang)
        XX     -15.4985     XY       0.0000     YY     -19.1478
        XZ       0.0000     YZ       0.0000     ZZ     -21.9032
    Octapole Moments (Debye-Ang^2)
       XXX       0.0000    XXY       0.0000    XYY       0.0000
       YYY       0.0000    XXZ     -18.9397    XYZ       0.0000
       YYZ     -19.0215    XZZ       0.0000    YZZ       0.0000
       ZZZ     -73.5163
    Hexadecapole Moments (Debye-Ang^3)
      XXXX     -21.4534   XXXY       0.0000   XXYY      -7.7439
      XYYY       0.0000   YYYY     -22.2563   XXXZ       0.0000
      XXYZ       0.0000   XYYZ       0.0000   YYYZ       0.0000
      XXZZ     -46.2088   XYZZ       0.0000   YYZZ     -48.6984
      XZZZ       0.0000   YZZZ       0.0000   ZZZZ    -313.8538
 -----------------------------------------------------------------
 Calculating analytic gradient of the SCF energy
 Gradient of XC Energy
            1           2           3           4           5
    1  -0.0000000   0.0000000   0.1767331  -0.1767331  -0.0000000
    2   0.0000000  -0.0000000  -0.0000000  -0.0000000   0.0000000
    3  -0.1524500  -0.0676931  -0.1044794  -0.1044794   0.4291018
 Gradient of SCF Energy
            1           2           3           4           5
    1  -0.0000000   0.0000000  -0.0005822   0.0005822  -0.0000000
    2  -0.0000000   0.0000000  -0.0000000  -0.0000000  -0.0000000
    3   0.0003261  -0.0000558  -0.0003348  -0.0003348   0.0003992
 Max gradient component =       5.822E-04
 RMS gradient           =       2.794E-04
 Gradient time:  CPU 18.92 s  wall 18.95 s
 Geometry Optimization Parameters
   NAtoms,    NIC,     NZ,  NCons,   NDum,   NFix, NCnnct, MaxDiis
        5      20       6       0       0       0       0       0

 Cartesian Hessian Update
 Hessian Updated using BFGS Update


** GEOMETRY OPTIMIZATION IN CARTESIAN COORDINATES **
   Searching for a Minimum

   Optimization Cycle:   5

                       Coordinates (Angstroms)
     ATOM              X           Y           Z
    1  C           0.000000    0.000000    0.004937
    2  C           0.000000    0.000000    1.312533
    3  H           0.934291    0.000000   -0.532142
    4  H          -0.934291    0.000000   -0.532142
    5  O           0.000000    0.000000    2.472189
   Point Group: c1    Number of degrees of freedom:   9


   Energy is   -152.661967290


 Translations and Rotations Projected Out of Hessian

  4 Hessian modes will be used to form the next step
  Hessian Eigenvalues:
     0.299969    0.871659    1.086997    2.571201

 Minimum Search - Taking Simple RFO Step
 Searching for Lamda that Minimizes Along All modes
 Value Taken    Lamda =  -0.00000117
 Step Taken.  Stepsize is  0.001224

                             Maximum     Tolerance    Cnvgd?
         Gradient           0.000582      0.000300      NO
         Displacement       0.000585      0.001200     YES
         Energy change     -0.000015      0.000001      NO

 Writing REM_CC_EA            5
 ----------------------------------------------------
       Standard Nuclear Orientation (Angstroms)
    I     Atom         X            Y            Z
 ----------------------------------------------------
    1      C       0.000000     0.000000     0.004739
    2      C       0.000000     0.000000     1.312377
    3      H       0.934508     0.000000    -0.531832
    4      H      -0.934508     0.000000    -0.531832
    5      O       0.000000     0.000000     2.471923
 ----------------------------------------------------
 Nuclear Repulsion Energy =    58.7084071930 hartrees
 There are       11 alpha and       11 beta electrons
 Applying Cartesian multipole field
    Component          Value
    ---------          -----
     (2,0,0)        1.00000E-11
     (0,2,0)        2.00000E-11
     (0,0,2)       -3.00000E-11
 Nucleus-field energy     =    -0.0000000063 hartrees
 Requested basis set is G3large
 There are 42 shells and 146 basis functions
 A cutoff of  1.0D-11 yielded    862 shell pairs
 There are  10552 function pairs ( 13381 Cartesian)
Evaluating contribution to one-electron hamiltonian from nuclear
 Smallest overlap matrix eigenvalue = 5.15E-05
 Multipole matrices computed through 2nd order
 Guess MOs from SCF MO coefficient file
Reading MOs from coefficient file
Reading MOs from coefficient file
 An unrestricted hybrid HF-DFT SCF calculation will be
 performed using Pulay DIIS extrapolation
 Exchange:     0.2000 Hartree-Fock + 0.0800 Slater + 0.7200 Becke88
 Correlation:  0.8100 LYP + 0.1900 VWN1RPA
 Using SG-1 standard quadrature grid
 SCF converges when DIIS error is below 1.0E-08
 ---------------------------------------
  Cycle       Energy         DIIS Error
 ---------------------------------------
    1    -152.6619873473      8.74E-06
    2    -152.6619683599      1.06E-06
    3    -152.6619683559      1.67E-06
    4    -152.6619683606      4.44E-07
    5    -152.6619683850      1.68E-07
    6    -152.6619683663      1.50E-08
    7    -152.6619683645      5.56E-09 Convergence criterion met
 ---------------------------------------
 One-Electron    Energy =  -322.4732748171
 Total Coulomb   Energy =   131.2434407875
 Alpha Exchange  Energy =    -1.9236060923
 Beta  Exchange  Energy =    -1.9236060923
 DFT   Exchange  Energy =   -15.3301543154
 DFT Correlation Energy =    -0.9631750216
 Nuclear Repu.   Energy =    58.7084071867
 Nuclear Attr.   Energy =  -474.5672949208
 Kinetic         Energy =   152.0940201037
 <S^2> = 0.0000
 SCF time:  CPU 28.13 s  wall 28.30 s
 Final Alpha MO Eigenvalues
            1           2           3           4           5           6
    1 -19.1947985 -10.2999584 -10.1818608  -1.1293253  -0.7870969  -0.5502033
            7           8           9          10          11          12
    1  -0.5002097  -0.4969325  -0.4633115  -0.4170347  -0.2556182  -0.0476213
           13          14          15          16
    1  -0.0098042   0.0257602   0.0321554   0.0327226
 Final Beta MO Eigenvalues
            1           2           3           4           5           6
    1 -19.1947985 -10.2999584 -10.1818608  -1.1293253  -0.7870969  -0.5502033
            7           8           9          10          11          12
    1  -0.5002097  -0.4969325  -0.4633115  -0.4170347  -0.2556182  -0.0476213
           13          14          15          16
    1  -0.0098042   0.0257602   0.0321554   0.0327226
 Analysis of SCF Wavefunction
 
 --------------------------------------------------------------
                    Orbital Energies (a.u.)
 --------------------------------------------------------------
 
 Alpha MOs
 -- Occupied --
-19.195 -10.300 -10.182  -1.129  -0.787  -0.550  -0.500  -0.497
 -0.463  -0.417  -0.256
 -- Virtual --
 -0.048  -0.010   0.026   0.032   0.033   0.068   0.082   0.088
  0.105   0.110   0.139   0.140   0.148   0.226   0.242   0.265
  0.283   0.295   0.326   0.401   0.482   0.484   0.506   0.531
  0.543   0.570   0.585   0.636   0.638   0.691   0.713   0.751
  0.792   0.868   0.886   0.996   1.007   1.038   1.057   1.074
  1.112   1.142   1.290   1.310   1.394   1.410   1.467   1.514
  1.586   1.601   1.723   2.018   2.152   2.388   2.431   2.491
  2.550   2.629   2.646   2.667   2.686   2.698   2.724   2.732
  2.838   2.902   2.990   3.046   3.069   3.092   3.111   3.190
  3.252   3.264   3.271   3.290   3.500   3.542   3.606   3.673
  3.754   3.776   3.944   4.162   4.215   4.242   4.401   4.689
  4.783   4.977   5.006   5.007   5.067   5.177   5.244   5.269
  5.501   5.535   5.591   6.159   6.738   6.744   6.952   7.043
  7.244   7.314   7.334   7.962  24.387  24.793  27.277  27.458
 27.469  28.199  28.270  29.126  40.780  40.985  41.016  41.058
 41.154  41.157  41.163  41.250  41.338  41.377  43.634  43.689
 43.859  43.889  43.984  45.860  45.883  46.820  50.610
 
 Beta MOs
 -- Occupied --
-19.195 -10.300 -10.182  -1.129  -0.787  -0.550  -0.500  -0.497
 -0.463  -0.417  -0.256
 -- Virtual --
 -0.048  -0.010   0.026   0.032   0.033   0.068   0.082   0.088
  0.105   0.110   0.139   0.140   0.148   0.226   0.242   0.265
  0.283   0.295   0.326   0.401   0.482   0.484   0.506   0.531
  0.543   0.570   0.585   0.636   0.638   0.691   0.713   0.751
  0.792   0.868   0.886   0.996   1.007   1.038   1.057   1.074
  1.112   1.142   1.290   1.310   1.394   1.410   1.467   1.514
  1.586   1.601   1.723   2.018   2.152   2.388   2.431   2.491
  2.550   2.629   2.646   2.667   2.686   2.698   2.724   2.732
  2.838   2.902   2.990   3.046   3.069   3.092   3.111   3.190
  3.252   3.264   3.271   3.290   3.500   3.542   3.606   3.673
  3.754   3.776   3.944   4.162   4.215   4.242   4.401   4.689
  4.783   4.977   5.006   5.007   5.067   5.177   5.244   5.269
  5.501   5.535   5.591   6.159   6.738   6.744   6.952   7.043
  7.244   7.314   7.334   7.962  24.387  24.793  27.277  27.458
 27.469  28.199  28.270  29.126  40.780  40.985  41.016  41.058
 41.154  41.157  41.163  41.250  41.338  41.377  43.634  43.689
 43.859  43.889  43.984  45.860  45.883  46.820  50.610
 --------------------------------------------------------------
 
          Ground-State Mulliken Net Atomic Charges

     Atom                 Charge (a.u.)    Spin (a.u.)
  --------------------------------------------------------
      1 C                    -0.385659       0.000000
      2 C                     0.398900       0.000000
      3 H                     0.131747       0.000000
      4 H                     0.131747       0.000000
      5 O                    -0.276735       0.000000
  --------------------------------------------------------
  Sum of atomic charges =     0.000000
  Sum of spin   charges =     0.000000

 -----------------------------------------------------------------
                    Cartesian Multipole Moments
 -----------------------------------------------------------------
    Charge (ESU x 10^10)
                 0.0000
    Dipole Moment (Debye)
         X       0.0000      Y       0.0000      Z      -1.5262
       Tot       1.5262
    Quadrupole Moments (Debye-Ang)
        XX     -15.4968     XY       0.0000     YY     -19.1478
        XZ       0.0000     YZ       0.0000     ZZ     -21.9019
    Octapole Moments (Debye-Ang^2)
       XXX       0.0000    XXY       0.0000    XYY       0.0000
       YYY       0.0000    XXZ     -18.9358    XYZ       0.0000
       YYZ     -19.0174    XZZ       0.0000    YZZ       0.0000
       ZZZ     -73.4979
    Hexadecapole Moments (Debye-Ang^3)
      XXXX     -21.4514   XXXY       0.0000   XXYY      -7.7443
      XYYY       0.0000   YYYY     -22.2573   XXXZ       0.0000
      XXYZ       0.0000   XYYZ       0.0000   YYYZ       0.0000
      XXZZ     -46.1990   XYZZ       0.0000   YYZZ     -48.6869
      XZZZ       0.0000   YZZZ       0.0000   ZZZZ    -313.7685
 -----------------------------------------------------------------
 Calculating analytic gradient of the SCF energy
 Gradient of XC Energy
            1           2           3           4           5
    1   0.0000000  -0.0000000   0.1768315  -0.1768315   0.0000000
    2   0.0000000  -0.0000000  -0.0000000   0.0000000  -0.0000000
    3  -0.1526294  -0.0677854  -0.1043403  -0.1043403   0.4290953
 Gradient of SCF Energy
            1           2           3           4           5
    1  -0.0000000  -0.0000000  -0.0005834   0.0005834   0.0000000
    2  -0.0000000  -0.0000000   0.0000000  -0.0000000   0.0000000
    3   0.0001781   0.0001486  -0.0002580  -0.0002580   0.0001894
 Max gradient component =       5.834E-04
 RMS gradient           =       2.454E-04
 Gradient time:  CPU 18.83 s  wall 18.88 s
 Geometry Optimization Parameters
   NAtoms,    NIC,     NZ,  NCons,   NDum,   NFix, NCnnct, MaxDiis
        5      20       6       0       0       0       0       0

 Cartesian Hessian Update
 Hessian Updated using BFGS Update


** GEOMETRY OPTIMIZATION IN CARTESIAN COORDINATES **
   Searching for a Minimum

   Optimization Cycle:   6

                       Coordinates (Angstroms)
     ATOM              X           Y           Z
    1  C           0.000000    0.000000    0.004739
    2  C           0.000000    0.000000    1.312377
    3  H           0.934508    0.000000   -0.531832
    4  H          -0.934508    0.000000   -0.531832
    5  O           0.000000    0.000000    2.471923
   Point Group: c1    Number of degrees of freedom:   9


   Energy is   -152.661968365


 Translations and Rotations Projected Out of Hessian

  4 Hessian modes will be used to form the next step
  Hessian Eigenvalues:
     0.101915    0.407703    0.936985    3.018834

 Minimum Search - Taking Simple RFO Step
 Searching for Lamda that Minimizes Along All modes
 Value Taken    Lamda =  -0.00000739
 Step Taken.  Stepsize is  0.008314

                             Maximum     Tolerance    Cnvgd?
         Gradient           0.000583      0.000300      NO
         Displacement       0.003738      0.001200      NO
         Energy change     -0.000001      0.000001      NO

 Writing REM_CC_EA            5
 ----------------------------------------------------
       Standard Nuclear Orientation (Angstroms)
    I     Atom         X            Y            Z
 ----------------------------------------------------
    1      C       0.000000     0.000000     0.003579
    2      C       0.000000     0.000000     1.311254
    3      H       0.936486     0.000000    -0.529977
    4      H      -0.936486     0.000000    -0.529977
    5      O       0.000000     0.000000     2.470495
 ----------------------------------------------------
 Nuclear Repulsion Energy =    58.7178586655 hartrees
 There are       11 alpha and       11 beta electrons
 Applying Cartesian multipole field
    Component          Value
    ---------          -----
     (2,0,0)        1.00000E-11
     (0,2,0)        2.00000E-11
     (0,0,2)       -3.00000E-11
 Nucleus-field energy     =    -0.0000000063 hartrees
 Requested basis set is G3large
 There are 42 shells and 146 basis functions
 A cutoff of  1.0D-11 yielded    862 shell pairs
 There are  10552 function pairs ( 13381 Cartesian)
Evaluating contribution to one-electron hamiltonian from nuclear
 Smallest overlap matrix eigenvalue = 5.15E-05
 Multipole matrices computed through 2nd order
 Guess MOs from SCF MO coefficient file
Reading MOs from coefficient file
Reading MOs from coefficient file
 An unrestricted hybrid HF-DFT SCF calculation will be
 performed using Pulay DIIS extrapolation
 Exchange:     0.2000 Hartree-Fock + 0.0800 Slater + 0.7200 Becke88
 Correlation:  0.8100 LYP + 0.1900 VWN1RPA
 Using SG-1 standard quadrature grid
 SCF converges when DIIS error is below 1.0E-08
 ---------------------------------------
  Cycle       Energy         DIIS Error
 ---------------------------------------
    1    -152.6618808547      3.17E-05
    2    -152.6619724065      4.58E-06
    3    -152.6619723120      7.79E-06
    4    -152.6619724607      1.73E-06
    5    -152.6619724834      8.06E-07
    6    -152.6619724723      5.91E-08
    7    -152.6619724909      2.79E-08
    8    -152.6619724848      2.44E-09 Convergence criterion met
 ---------------------------------------
 One-Electron    Energy =  -322.4921189408
 Total Coulomb   Energy =   131.2530405824
 Alpha Exchange  Energy =    -1.9236333075
 Beta  Exchange  Energy =    -1.9236333075
 DFT   Exchange  Energy =   -15.3302999440
 DFT Correlation Energy =    -0.9631862265
 Nuclear Repu.   Energy =    58.7178586592
 Nuclear Attr.   Energy =  -474.5873256788
 Kinetic         Energy =   152.0952067380
 <S^2> = 0.0000
 SCF time:  CPU 32.50 s  wall 32.70 s
 Final Alpha MO Eigenvalues
            1           2           3           4           5           6
    1 -19.1947655 -10.2998286 -10.1818653  -1.1294899  -0.7871422  -0.5499135
            7           8           9          10          11          12
    1  -0.4998396  -0.4972484  -0.4634005  -0.4172654  -0.2555727  -0.0473792
           13          14          15          16
    1  -0.0098135   0.0257042   0.0322181   0.0328274
 Final Beta MO Eigenvalues
            1           2           3           4           5           6
    1 -19.1947655 -10.2998286 -10.1818653  -1.1294899  -0.7871422  -0.5499135
            7           8           9          10          11          12
    1  -0.4998396  -0.4972484  -0.4634005  -0.4172654  -0.2555727  -0.0473792
           13          14          15          16
    1  -0.0098135   0.0257042   0.0322181   0.0328274
 Analysis of SCF Wavefunction
 
 --------------------------------------------------------------
                    Orbital Energies (a.u.)
 --------------------------------------------------------------
 
 Alpha MOs
 -- Occupied --
-19.195 -10.300 -10.182  -1.129  -0.787  -0.550  -0.500  -0.497
 -0.463  -0.417  -0.256
 -- Virtual --
 -0.047  -0.010   0.026   0.032   0.033   0.068   0.081   0.088
  0.105   0.110   0.139   0.140   0.148   0.226   0.242   0.265
  0.283   0.295   0.326   0.401   0.481   0.484   0.506   0.531
  0.544   0.570   0.585   0.636   0.638   0.691   0.713   0.751
  0.793   0.866   0.887   0.994   1.007   1.038   1.057   1.074
  1.113   1.143   1.291   1.310   1.394   1.408   1.467   1.514
  1.586   1.601   1.723   2.018   2.152   2.389   2.431   2.492
  2.549   2.629   2.645   2.667   2.686   2.698   2.723   2.730
  2.839   2.902   2.991   3.046   3.069   3.091   3.112   3.191
  3.252   3.264   3.271   3.290   3.502   3.543   3.607   3.673
  3.753   3.777   3.938   4.163   4.218   4.239   4.403   4.689
  4.784   4.977   5.006   5.007   5.067   5.178   5.244   5.265
  5.501   5.534   5.591   6.159   6.738   6.744   6.953   7.043
  7.244   7.314   7.334   7.963  24.388  24.793  27.277  27.458
 27.470  28.199  28.269  29.127  40.780  40.985  41.016  41.058
 41.154  41.157  41.163  41.250  41.338  41.377  43.634  43.689
 43.859  43.889  43.984  45.861  45.883  46.820  50.611
 
 Beta MOs
 -- Occupied --
-19.195 -10.300 -10.182  -1.129  -0.787  -0.550  -0.500  -0.497
 -0.463  -0.417  -0.256
 -- Virtual --
 -0.047  -0.010   0.026   0.032   0.033   0.068   0.081   0.088
  0.105   0.110   0.139   0.140   0.148   0.226   0.242   0.265
  0.283   0.295   0.326   0.401   0.481   0.484   0.506   0.531
  0.544   0.570   0.585   0.636   0.638   0.691   0.713   0.751
  0.793   0.866   0.887   0.994   1.007   1.038   1.057   1.074
  1.113   1.143   1.291   1.310   1.394   1.408   1.467   1.514
  1.586   1.601   1.723   2.018   2.152   2.389   2.431   2.492
  2.549   2.629   2.645   2.667   2.686   2.698   2.723   2.730
  2.839   2.902   2.991   3.046   3.069   3.091   3.112   3.191
  3.252   3.264   3.271   3.290   3.502   3.543   3.607   3.673
  3.753   3.777   3.938   4.163   4.218   4.239   4.403   4.689
  4.784   4.977   5.006   5.007   5.067   5.178   5.244   5.265
  5.501   5.534   5.591   6.159   6.738   6.744   6.953   7.043
  7.244   7.314   7.334   7.963  24.388  24.793  27.277  27.458
 27.470  28.199  28.269  29.127  40.780  40.985  41.016  41.058
 41.154  41.157  41.163  41.250  41.338  41.377  43.634  43.689
 43.859  43.889  43.984  45.861  45.883  46.820  50.611
 --------------------------------------------------------------
 
          Ground-State Mulliken Net Atomic Charges

     Atom                 Charge (a.u.)    Spin (a.u.)
  --------------------------------------------------------
      1 C                    -0.385506       0.000000
      2 C                     0.398800       0.000000
      3 H                     0.131660       0.000000
      4 H                     0.131660       0.000000
      5 O                    -0.276614       0.000000
  --------------------------------------------------------
  Sum of atomic charges =     0.000000
  Sum of spin   charges =     0.000000

 -----------------------------------------------------------------
                    Cartesian Multipole Moments
 -----------------------------------------------------------------
    Charge (ESU x 10^10)
                 0.0000
    Dipole Moment (Debye)
         X       0.0000      Y       0.0000      Z      -1.5206
       Tot       1.5206
    Quadrupole Moments (Debye-Ang)
        XX     -15.4849     XY       0.0000     YY     -19.1485
        XZ       0.0000     YZ       0.0000     ZZ     -21.9049
    Octapole Moments (Debye-Ang^2)
       XXX       0.0000    XXY       0.0000    XYY       0.0000
       YYY       0.0000    XXZ     -18.9176    XYZ       0.0000
       YYZ     -18.9959    XZZ       0.0000    YZZ       0.0000
       ZZZ     -73.4126
    Hexadecapole Moments (Debye-Ang^3)
      XXXX     -21.4481   XXXY       0.0000   XXYY      -7.7489
      XYYY       0.0000   YYYY     -22.2609   XXXZ       0.0000
      XXYZ       0.0000   XYYZ       0.0000   YYYZ       0.0000
      XXZZ     -46.1516   XYZZ       0.0000   YYZZ     -48.6283
      XZZZ       0.0000   YZZZ       0.0000   ZZZZ    -313.3471
 -----------------------------------------------------------------
 Calculating analytic gradient of the SCF energy
 Gradient of XC Energy
            1           2           3           4           5
    1  -0.0000000   0.0000000   0.1774355  -0.1774355  -0.0000000
    2   0.0000000  -0.0000000  -0.0000000  -0.0000000  -0.0000000
    3  -0.1540091  -0.0683159  -0.1033719  -0.1033719   0.4290689
 Gradient of SCF Energy
            1           2           3           4           5
    1   0.0000000   0.0000000  -0.0002022   0.0002022  -0.0000000
    2   0.0000000  -0.0000000   0.0000000  -0.0000000   0.0000000
    3  -0.0001646   0.0004929   0.0000390   0.0000390  -0.0004063
 Max gradient component =       4.929E-04
 RMS gradient           =       1.862E-04
 Gradient time:  CPU 19.07 s  wall 19.09 s
 Geometry Optimization Parameters
   NAtoms,    NIC,     NZ,  NCons,   NDum,   NFix, NCnnct, MaxDiis
        5      20       6       0       0       0       0       0

 Cartesian Hessian Update
 Hessian Updated using BFGS Update


** GEOMETRY OPTIMIZATION IN CARTESIAN COORDINATES **
   Searching for a Minimum

   Optimization Cycle:   7

                       Coordinates (Angstroms)
     ATOM              X           Y           Z
    1  C           0.000000    0.000000    0.003579
    2  C           0.000000    0.000000    1.311254
    3  H           0.936486    0.000000   -0.529977
    4  H          -0.936486    0.000000   -0.529977
    5  O           0.000000    0.000000    2.470495
   Point Group: c1    Number of degrees of freedom:   9


   Energy is   -152.661972485


 Translations and Rotations Projected Out of Hessian

  4 Hessian modes will be used to form the next step
  Hessian Eigenvalues:
     0.092167    0.392604    0.935188    3.084447

 Minimum Search - Taking Simple RFO Step
 Searching for Lamda that Minimizes Along All modes
 Value Taken    Lamda =   0.00000000
 Step Taken.  Stepsize is  0.001294

                             Maximum     Tolerance    Cnvgd?
         Gradient           0.000493      0.000300      NO
         Displacement       0.000788      0.001200     YES
         Energy change     -0.000004      0.000001      NO

 Writing REM_CC_EA            5
 ----------------------------------------------------
       Standard Nuclear Orientation (Angstroms)
    I     Atom         X            Y            Z
 ----------------------------------------------------
    1      C       0.000000     0.000000     0.003437
    2      C       0.000000     0.000000     1.311074
    3      H       0.936903     0.000000    -0.529795
    4      H      -0.936903     0.000000    -0.529795
    5      O       0.000000     0.000000     2.470453
 ----------------------------------------------------
 Nuclear Repulsion Energy =    58.7143103308 hartrees
 There are       11 alpha and       11 beta electrons
 Applying Cartesian multipole field
    Component          Value
    ---------          -----
     (2,0,0)        1.00000E-11
     (0,2,0)        2.00000E-11
     (0,0,2)       -3.00000E-11
 Nucleus-field energy     =    -0.0000000063 hartrees
 Requested basis set is G3large
 There are 42 shells and 146 basis functions
 A cutoff of  1.0D-11 yielded    862 shell pairs
 There are  10552 function pairs ( 13381 Cartesian)
Evaluating contribution to one-electron hamiltonian from nuclear
 Smallest overlap matrix eigenvalue = 5.15E-05
 Multipole matrices computed through 2nd order
 Guess MOs from SCF MO coefficient file
Reading MOs from coefficient file
Reading MOs from coefficient file
 An unrestricted hybrid HF-DFT SCF calculation will be
 performed using Pulay DIIS extrapolation
 Exchange:     0.2000 Hartree-Fock + 0.0800 Slater + 0.7200 Becke88
 Correlation:  0.8100 LYP + 0.1900 VWN1RPA
 Using SG-1 standard quadrature grid
 SCF converges when DIIS error is below 1.0E-08
 ---------------------------------------
  Cycle       Energy         DIIS Error
 ---------------------------------------
    1    -152.6619093962      1.02E-05
    2    -152.6619726978      1.41E-06
    3    -152.6619726891      1.44E-06
    4    -152.6619726869      5.75E-07
    5    -152.6619727265      2.15E-07
    6    -152.6619727536      6.04E-08
    7    -152.6619727526      1.29E-08
    8    -152.6619727513      1.46E-09 Convergence criterion met
 ---------------------------------------
 One-Electron    Energy =  -322.4856176611
 Total Coulomb   Energy =   131.2498431611
 Alpha Exchange  Energy =    -1.9236070780
 Beta  Exchange  Energy =    -1.9236070780
 DFT   Exchange  Energy =   -15.3301183736
 DFT Correlation Energy =    -0.9631760460
 Nuclear Repu.   Energy =    58.7143103244
 Nuclear Attr.   Energy =  -474.5798516473
 Kinetic         Energy =   152.0942339862
 <S^2> = 0.0000
 SCF time:  CPU 32.57 s  wall 32.76 s
 Final Alpha MO Eigenvalues
            1           2           3           4           5           6
    1 -19.1947474 -10.2998287 -10.1819201  -1.1293906  -0.7871658  -0.5498552
            7           8           9          10          11          12
    1  -0.4997625  -0.4972508  -0.4633420  -0.4172450  -0.2555928  -0.0474008
           13          14          15          16
    1  -0.0098245   0.0256920   0.0322231   0.0328141
 Final Beta MO Eigenvalues
            1           2           3           4           5           6
    1 -19.1947474 -10.2998287 -10.1819201  -1.1293906  -0.7871658  -0.5498552
            7           8           9          10          11          12
    1  -0.4997625  -0.4972508  -0.4633420  -0.4172450  -0.2555928  -0.0474008
           13          14          15          16
    1  -0.0098245   0.0256920   0.0322231   0.0328141
 Analysis of SCF Wavefunction
 
 --------------------------------------------------------------
                    Orbital Energies (a.u.)
 --------------------------------------------------------------
 
 Alpha MOs
 -- Occupied --
-19.195 -10.300 -10.182  -1.129  -0.787  -0.550  -0.500  -0.497
 -0.463  -0.417  -0.256
 -- Virtual --
 -0.047  -0.010   0.026   0.032   0.033   0.068   0.081   0.088
  0.105   0.110   0.139   0.140   0.148   0.226   0.242   0.265
  0.283   0.295   0.326   0.401   0.481   0.484   0.506   0.531
  0.544   0.570   0.585   0.636   0.638   0.691   0.713   0.751
  0.793   0.866   0.886   0.994   1.007   1.038   1.057   1.074
  1.113   1.143   1.291   1.310   1.394   1.407   1.467   1.514
  1.586   1.601   1.723   2.018   2.152   2.389   2.431   2.492
  2.549   2.629   2.645   2.667   2.686   2.698   2.723   2.730
  2.839   2.902   2.992   3.045   3.070   3.091   3.112   3.191
  3.252   3.264   3.270   3.290   3.502   3.543   3.607   3.673
  3.753   3.777   3.936   4.163   4.218   4.238   4.403   4.689
  4.784   4.977   5.006   5.007   5.067   5.177   5.244   5.264
  5.501   5.533   5.591   6.159   6.738   6.744   6.952   7.042
  7.244   7.313   7.334   7.962  24.387  24.793  27.277  27.458
 27.470  28.199  28.269  29.126  40.780  40.985  41.016  41.058
 41.154  41.157  41.163  41.250  41.338  41.377  43.634  43.689
 43.859  43.889  43.984  45.861  45.883  46.820  50.610
 
 Beta MOs
 -- Occupied --
-19.195 -10.300 -10.182  -1.129  -0.787  -0.550  -0.500  -0.497
 -0.463  -0.417  -0.256
 -- Virtual --
 -0.047  -0.010   0.026   0.032   0.033   0.068   0.081   0.088
  0.105   0.110   0.139   0.140   0.148   0.226   0.242   0.265
  0.283   0.295   0.326   0.401   0.481   0.484   0.506   0.531
  0.544   0.570   0.585   0.636   0.638   0.691   0.713   0.751
  0.793   0.866   0.886   0.994   1.007   1.038   1.057   1.074
  1.113   1.143   1.291   1.310   1.394   1.407   1.467   1.514
  1.586   1.601   1.723   2.018   2.152   2.389   2.431   2.492
  2.549   2.629   2.645   2.667   2.686   2.698   2.723   2.730
  2.839   2.902   2.992   3.045   3.070   3.091   3.112   3.191
  3.252   3.264   3.270   3.290   3.502   3.543   3.607   3.673
  3.753   3.777   3.936   4.163   4.218   4.238   4.403   4.689
  4.784   4.977   5.006   5.007   5.067   5.177   5.244   5.264
  5.501   5.533   5.591   6.159   6.738   6.744   6.952   7.042
  7.244   7.313   7.334   7.962  24.387  24.793  27.277  27.458
 27.470  28.199  28.269  29.126  40.780  40.985  41.016  41.058
 41.154  41.157  41.163  41.250  41.338  41.377  43.634  43.689
 43.859  43.889  43.984  45.861  45.883  46.820  50.610
 --------------------------------------------------------------
 
          Ground-State Mulliken Net Atomic Charges

     Atom                 Charge (a.u.)    Spin (a.u.)
  --------------------------------------------------------
[...]
    1  -0.0097952   0.0257151   0.0322339   0.0330007
 Final Beta MO Eigenvalues
            1           2           3           4           5           6
    1 -19.1947787 -10.2996728 -10.1817584  -1.1300328  -0.7870550  -0.5498402
            7           8           9          10          11          12
    1  -0.4998228  -0.4973784  -0.4637177  -0.4174055  -0.2554600  -0.0471353
           13          14          15          16
    1  -0.0097952   0.0257151   0.0322339   0.0330007
 Analysis of SCF Wavefunction
 
 --------------------------------------------------------------
                    Orbital Energies (a.u.)
 --------------------------------------------------------------
 
 Alpha MOs
 -- Occupied --
-19.195 -10.300 -10.182  -1.130  -0.787  -0.550  -0.500  -0.497
 -0.464  -0.417  -0.255
 -- Virtual --
 -0.047  -0.010   0.026   0.032   0.033   0.068   0.081   0.088
  0.105   0.110   0.139   0.140   0.148   0.226   0.242   0.265
  0.283   0.295   0.326   0.401   0.481   0.484   0.506   0.531
  0.545   0.570   0.585   0.636   0.639   0.691   0.713   0.751
  0.793   0.866   0.888   0.994   1.007   1.038   1.057   1.073
  1.113   1.143   1.291   1.310   1.394   1.407   1.467   1.515
  1.587   1.602   1.723   2.019   2.152   2.389   2.432   2.492
  2.549   2.629   2.645   2.668   2.686   2.698   2.723   2.730
  2.839   2.902   2.992   3.046   3.070   3.091   3.112   3.191
  3.252   3.265   3.271   3.290   3.503   3.544   3.607   3.673
  3.753   3.778   3.936   4.163   4.218   4.238   4.404   4.689
  4.786   4.977   5.006   5.007   5.068   5.179   5.244   5.265
  5.503   5.533   5.593   6.160   6.738   6.744   6.956   7.046
  7.244   7.314   7.334   7.965  24.389  24.793  27.277  27.459
 27.470  28.199  28.269  29.129  40.780  40.985  41.016  41.058
 41.155  41.158  41.164  41.250  41.338  41.378  43.634  43.689
 43.859  43.889  43.985  45.862  45.884  46.821  50.614
 
 Beta MOs
 -- Occupied --
-19.195 -10.300 -10.182  -1.130  -0.787  -0.550  -0.500  -0.497
 -0.464  -0.417  -0.255
 -- Virtual --
 -0.047  -0.010   0.026   0.032   0.033   0.068   0.081   0.088
  0.105   0.110   0.139   0.140   0.148   0.226   0.242   0.265
  0.283   0.295   0.326   0.401   0.481   0.484   0.506   0.531
  0.545   0.570   0.585   0.636   0.639   0.691   0.713   0.751
  0.793   0.866   0.888   0.994   1.007   1.038   1.057   1.073
  1.113   1.143   1.291   1.310   1.394   1.407   1.467   1.515
  1.587   1.602   1.723   2.019   2.152   2.389   2.432   2.492
  2.549   2.629   2.645   2.668   2.686   2.698   2.723   2.730
  2.839   2.902   2.992   3.046   3.070   3.091   3.112   3.191
  3.252   3.265   3.271   3.290   3.503   3.544   3.607   3.673
  3.753   3.778   3.936   4.163   4.218   4.238   4.404   4.689
  4.786   4.977   5.006   5.007   5.068   5.179   5.244   5.265
  5.503   5.533   5.593   6.160   6.738   6.744   6.956   7.046
  7.244   7.314   7.334   7.965  24.389  24.793  27.277  27.459
 27.470  28.199  28.269  29.129  40.780  40.985  41.016  41.058
 41.155  41.158  41.164  41.250  41.338  41.378  43.634  43.689
 43.859  43.889  43.985  45.862  45.884  46.821  50.614
 --------------------------------------------------------------
 
          Ground-State Mulliken Net Atomic Charges

     Atom                 Charge (a.u.)    Spin (a.u.)
  --------------------------------------------------------
      1 C                    -0.385761       0.000000
      2 C                     0.398913       0.000000
      3 H                     0.131574       0.000000
      4 H                     0.131574       0.000000
      5 O                    -0.276300       0.000000
  --------------------------------------------------------
  Sum of atomic charges =     0.000000
  Sum of spin   charges =     0.000000

 -----------------------------------------------------------------
                    Cartesian Multipole Moments
 -----------------------------------------------------------------
    Charge (ESU x 10^10)
                 0.0000
    Dipole Moment (Debye)
         X       0.0000      Y       0.0000      Z      -1.5136
       Tot       1.5136
    Quadrupole Moments (Debye-Ang)
        XX     -15.4818     XY       0.0000     YY     -19.1483
        XZ       0.0000     YZ       0.0000     ZZ     -21.8895
    Octapole Moments (Debye-Ang^2)
       XXX       0.0000    XXY       0.0000    XYY       0.0000
       YYY       0.0000    XXZ     -18.9037    XYZ       0.0000
       YYZ     -18.9800    XZZ       0.0000    YZZ       0.0000
       ZZZ     -73.3349
    Hexadecapole Moments (Debye-Ang^3)
      XXXX     -21.4491   XXXY       0.0000   XXYY      -7.7507
      XYYY       0.0000   YYYY     -22.2657   XXXZ       0.0000
      XXYZ       0.0000   XYYZ       0.0000   YYYZ       0.0000
      XXZZ     -46.1087   XYZZ       0.0000   YYZZ     -48.5814
      XZZZ       0.0000   YZZZ       0.0000   ZZZZ    -313.0040
 -----------------------------------------------------------------
 Calculating analytic gradient of the SCF energy
 Gradient of XC Energy
            1           2           3           4           5
    1  -0.0000000  -0.0000000   0.1775081  -0.1775080   0.0000000
    2   0.0000000  -0.0000000  -0.0000000  -0.0000000   0.0000000
    3  -0.1541940  -0.0682495  -0.1032315  -0.1032315   0.4289064
 Gradient of SCF Energy
            1           2           3           4           5
    1   0.0000000   0.0000000  -0.0000388   0.0000388   0.0000000
    2  -0.0000000   0.0000000  -0.0000000  -0.0000000  -0.0000000
    3   0.0000420   0.0020438   0.0000181   0.0000181  -0.0021220
 Max gradient component =       2.122E-03
 RMS gradient           =       7.609E-04
 Gradient time:  CPU 18.66 s  wall 18.67 s
Dipole drv :
gprntSymmMtrx error report: 
 Final Hessian.
            1           2           3           4           5           6
    1   0.6153451   0.0000009  -0.0000020  -0.1086897   0.0000003  -0.0000053
    2   0.0000009   0.0440475  -0.0000004   0.0000000  -0.0366626   0.0000004
    3  -0.0000020  -0.0000004   0.8192977   0.0000003  -0.0000025  -0.5271003
    4  -0.1086897   0.0000000   0.0000003   0.1666116   0.0000013   0.0000000
    5   0.0000003  -0.0366626  -0.0000025   0.0000013   0.1018600  -0.0000079
    6  -0.0000053   0.0000004  -0.5271003   0.0000000  -0.0000079   1.5648904
    7  -0.2730014   0.0000000   0.1329085   0.0040585  -0.0000021   0.0001661
    8   0.0000021  -0.0110323  -0.0000055   0.0000002  -0.0045304  -0.0000082
    9   0.1311908   0.0000001  -0.1164544   0.0271592   0.0000010  -0.0234286
   10  -0.2729986   0.0000000  -0.1329087   0.0040592   0.0000000  -0.0001680
   11   0.0000020  -0.0110323  -0.0000029   0.0000003  -0.0045305  -0.0000134
   12  -0.1311893   0.0000003  -0.1164544  -0.0271588   0.0000012  -0.0234286
   13   0.0393463   0.0000000   0.0000021  -0.0660396  -0.0000015  -0.0000021
   14   0.0000008   0.0146812   0.0000005   0.0000001  -0.0561364   0.0000000
   15   0.0000000  -0.0000004  -0.0592817   0.0000006   0.0000079  -0.9909455
            7           8           9          10          11          12
    1  -0.2730014   0.0000021   0.1311908  -0.2729986   0.0000020  -0.1311893
    2   0.0000000  -0.0110323   0.0000001   0.0000000  -0.0110323   0.0000003
    3   0.1329085  -0.0000055  -0.1164544  -0.1329087  -0.0000029  -0.1164544
    4   0.0040585   0.0000002   0.0271592   0.0040592   0.0000003  -0.0271588
    5  -0.0000021  -0.0045304   0.0000010   0.0000000  -0.0045305   0.0000012
    6   0.0001661  -0.0000082  -0.0234286  -0.0001680  -0.0000134  -0.0234286
    7   0.2849622  -0.0000031  -0.1417131  -0.0138744  -0.0000043   0.0126144
    8  -0.0000031   0.0052763   0.0000029   0.0000000   0.0054587  -0.0000003
    9  -0.1417131   0.0000029   0.1260500  -0.0126137   0.0000018   0.0111033
   10  -0.0138744   0.0000000  -0.0126137   0.2849620   0.0000020   0.1417129
   11  -0.0000043   0.0054587   0.0000018   0.0000020   0.0052763   0.0000019
   12   0.0126144  -0.0000003   0.0111033   0.1417129   0.0000019   0.1260499
   13  -0.0021489   0.0000000  -0.0040201  -0.0021472   0.0000000   0.0040207
   14  -0.0000005   0.0048269   0.0000004  -0.0000005   0.0048269  -0.0000002
   15  -0.0039796   0.0000110   0.0027316   0.0039812   0.0000126   0.0027316
           13          14          15
    1   0.0393463   0.0000008   0.0000000
    2   0.0000000   0.0146812  -0.0000004
    3   0.0000021   0.0000005  -0.0592817
    4  -0.0660396   0.0000001   0.0000006
    5  -0.0000015  -0.0561364   0.0000079
    6  -0.0000021   0.0000000  -0.9909455
    7  -0.0021489  -0.0000005  -0.0039796
    8   0.0000000   0.0048269   0.0000110
    9  -0.0040201   0.0000004   0.0027316
   10  -0.0021472  -0.0000005   0.0039812
   11   0.0000000   0.0048269   0.0000126
   12   0.0040207  -0.0000002   0.0027316
   13   0.0309905   0.0000001  -0.0000007
   14   0.0000001   0.0318017  -0.0000002
   15  -0.0000007  -0.0000002   1.0447658
 Writing REM_CC_EA            5
 ----------------------------------------------------
       Standard Nuclear Orientation (Angstroms)
    I     Atom         X            Y            Z
 ----------------------------------------------------
    1      C       0.000000     0.000000     0.003437
    2      C       0.000000     0.000000     1.311074
    3      H       0.936903     0.000000    -0.529795
    4      H      -0.936903     0.000000    -0.529795
    5      O       0.000000     0.000000     2.470453
 ----------------------------------------------------
 Nuclear Repulsion Energy =    58.7143103308 hartrees
 There are       11 alpha and       11 beta electrons
 old dipole drv.
            1           2           3           4           5           6
    1  -0.1375662   0.0000107  -0.0000002   0.2421815   0.0000081   0.0000008
    2  -0.0000006  -0.5165101  -0.0000375   0.0000002   0.2026778  -0.0000083
    3   0.0001050  -0.0000050  -0.9660724   0.0000312   0.0001185   2.3940239
            7           8           9          10          11          12
    1   0.0664429  -0.0000807  -0.0123767   0.0664051  -0.0000790   0.0123772
    2  -0.0000002   0.2260575   0.0000108   0.0000001   0.2260629   0.0000104
    3  -0.0189974   0.0001384   0.1148560   0.0190235   0.0002326   0.1148549
           13          14          15
    1  -0.2376060  -0.0000228  -0.0000004
    2  -0.0000000  -0.1382471  -0.0000114
    3  -0.0000063  -0.0000074  -1.6574925
 New transposed dipole drv.
            1           2           3
    1  -0.1375662  -0.0000006   0.0001050
    2   0.0000107  -0.5165101  -0.0000050
    3  -0.0000002  -0.0000375  -0.9660724
    4   0.2421815   0.0000002   0.0000312
    5   0.0000081   0.2026778   0.0001185
    6   0.0000008  -0.0000083   2.3940239
    7   0.0664429  -0.0000002  -0.0189974
    8  -0.0000807   0.2260575   0.0001384
    9  -0.0123767   0.0000108   0.1148560
   10   0.0664051   0.0000001   0.0190235
   11  -0.0000790   0.2260629   0.0002326
   12   0.0123772   0.0000104   0.1148549
   13  -0.2376060  -0.0000000  -0.0000063
   14  -0.0000228  -0.1382471  -0.0000074
   15  -0.0000004  -0.0000114  -1.6574925
FINAL TENSOR RESULT:
Order 2, Length 15
Order 1, Length 15
   0.6153451   0.0000009  -0.0000020  -0.1086897   0.0000003  -0.0000053  -0.2730014   0.0000021   0.1311908  -0.2729986   0.0000020  -0.1311893   0.0393463   0.0000008   0.0000000
Order 1, Length 15
   0.0000009   0.0440475  -0.0000004   0.0000000  -0.0366626   0.0000004   0.0000000  -0.0110323   0.0000001   0.0000000  -0.0110323   0.0000003   0.0000000   0.0146812  -0.0000004
Order 1, Length 15
  -0.0000020  -0.0000004   0.8192977   0.0000003  -0.0000025  -0.5271003   0.1329085  -0.0000055  -0.1164544  -0.1329087  -0.0000029  -0.1164544   0.0000021   0.0000005  -0.0592817
Order 1, Length 15
  -0.1086897   0.0000000   0.0000003   0.1666116   0.0000013   0.0000000   0.0040585   0.0000002   0.0271592   0.0040592   0.0000003  -0.0271588  -0.0660396   0.0000001   0.0000006
Order 1, Length 15
   0.0000003  -0.0366626  -0.0000025   0.0000013   0.1018600  -0.0000079  -0.0000021  -0.0045304   0.0000010   0.0000000  -0.0045305   0.0000012  -0.0000015  -0.0561364   0.0000079
Order 1, Length 15
  -0.0000053   0.0000004  -0.5271003   0.0000000  -0.0000079   1.5648904   0.0001661  -0.0000082  -0.0234286  -0.0001680  -0.0000134  -0.0234286  -0.0000021   0.0000000  -0.9909455
Order 1, Length 15
  -0.2730014   0.0000000   0.1329085   0.0040585  -0.0000021   0.0001661   0.2849622  -0.0000031  -0.1417131  -0.0138744  -0.0000043   0.0126144  -0.0021489  -0.0000005  -0.0039796
Order 1, Length 15
   0.0000021  -0.0110323  -0.0000055   0.0000002  -0.0045304  -0.0000082  -0.0000031   0.0052763   0.0000029   0.0000000   0.0054587  -0.0000003   0.0000000   0.0048269   0.0000110
Order 1, Length 15
   0.1311908   0.0000001  -0.1164544   0.0271592   0.0000010  -0.0234286  -0.1417131   0.0000029   0.1260500  -0.0126137   0.0000018   0.0111033  -0.0040201   0.0000004   0.0027316
Order 1, Length 15
  -0.2729986   0.0000000  -0.1329087   0.0040592   0.0000000  -0.0001680  -0.0138744   0.0000000  -0.0126137   0.2849620   0.0000020   0.1417129  -0.0021472  -0.0000005   0.0039812
Order 1, Length 15
   0.0000020  -0.0110323  -0.0000029   0.0000003  -0.0045305  -0.0000134  -0.0000043   0.0054587   0.0000018   0.0000020   0.0052763   0.0000019   0.0000000   0.0048269   0.0000126
Order 1, Length 15
  -0.1311893   0.0000003  -0.1164544  -0.0271588   0.0000012  -0.0234286   0.0126144  -0.0000003   0.0111033   0.1417129   0.0000019   0.1260499   0.0040207  -0.0000002   0.0027316
Order 1, Length 15
   0.0393463   0.0000000   0.0000021  -0.0660396  -0.0000015  -0.0000021  -0.0021489   0.0000000  -0.0040201  -0.0021472   0.0000000   0.0040207   0.0309905   0.0000001  -0.0000007
Order 1, Length 15
   0.0000008   0.0146812   0.0000005   0.0000001  -0.0561364   0.0000000  -0.0000005   0.0048269   0.0000004  -0.0000005   0.0048269  -0.0000002   0.0000001   0.0318017  -0.0000002
Order 1, Length 15
   0.0000000  -0.0000004  -0.0592817   0.0000006   0.0000079  -0.9909455  -0.0039796   0.0000110   0.0027316   0.0039812   0.0000126   0.0027316  -0.0000007  -0.0000002   1.0447658


 # Finishing finite difference calculation for IDERIV #
 ######################################################
 ######################################################
 Requested basis set is G3large
 There are 42 shells and 146 basis functions
 **********************************************************************
 **                                                                  **
 **                       VIBRATIONAL ANALYSIS                       **
 **                       --------------------                       **
 **                                                                  **
 **        VIBRATIONAL FREQUENCIES (CM**-1) AND NORMAL MODES         **
 **     FORCE CONSTANTS (mDYN/ANGSTROM) AND REDUCED MASSES (AMU)     **
 **                  INFRARED INTENSITIES (KM/MOL)                   **
 **                                                                  **
 **********************************************************************
 

 Mode:                 1                      2                      3
 Frequency:       444.33                 552.74                 591.94
 Force Cnst:      0.2560                 1.2270                 0.2725
 Red. Mass:       2.2008                 6.8166                 1.3201
 IR Active:          YES                    YES                    YES
 IR Intens:        2.306                 44.941                 78.121
 Raman Active:       YES                    YES                    YES
               X      Y      Z        X      Y      Z        X      Y      Z
 C         -0.022  0.000  0.000    0.000 -0.370  0.000    0.000 -0.085  0.000
 C          0.280  0.000  0.000    0.000  0.573  0.000    0.000 -0.122  0.000
 H         -0.360  0.000 -0.566    0.000  0.494  0.000    0.000  0.698  0.000
 H         -0.360  0.000  0.566    0.000  0.494  0.000    0.000  0.698  0.000
 O         -0.148  0.000  0.000    0.000 -0.214  0.000    0.000  0.068  0.000
 TransDip   0.049  0.000  0.000    0.000  0.215  0.000    0.000  0.283  0.000

 Mode:                 4                      5                      6
 Frequency:       990.60                1171.67                1412.50
 Force Cnst:      1.1132                 2.0880                 1.7387
 Red. Mass:       1.9255                 2.5815                 1.4791
 IR Active:          YES                    YES                    YES
 IR Intens:        5.118                  4.966                 17.989
 Raman Active:       YES                    YES                    YES
               X      Y      Z        X      Y      Z        X      Y      Z
 C         -0.184  0.000  0.000    0.000  0.000 -0.261    0.000  0.000  0.188
 C          0.215  0.000  0.000    0.000  0.000  0.063    0.000  0.000  0.001
 H          0.206  0.000  0.645   -0.188  0.000 -0.634   -0.429  0.000 -0.544
 H          0.206  0.000 -0.645    0.188  0.000 -0.634    0.429  0.000 -0.544
 O         -0.049  0.000  0.000    0.000  0.000  0.228    0.000  0.000 -0.074
 TransDip   0.072  0.000  0.000    0.000  0.000 -0.071    0.000  0.000 -0.136

 Mode:                 7                      8                      9
 Frequency:      2216.43                3182.30                3273.61
 Force Cnst:     34.6601                 6.2962                 7.0551
 Red. Mass:      11.9749                 1.0552                 1.1174
 IR Active:          YES                    YES                    YES
 IR Intens:      682.979                 29.348                  9.220
 Raman Active:       YES                    YES                    YES
               X      Y      Z        X      Y      Z        X      Y      Z
 C          0.000  0.000 -0.248    0.000  0.000 -0.065   -0.100  0.000  0.000
 C          0.000  0.000  0.833    0.000  0.000  0.006   -0.001  0.000  0.000
 H          0.118  0.000 -0.140   -0.614  0.000  0.348    0.604  0.000 -0.362
 H         -0.118  0.000 -0.140    0.614  0.000  0.348    0.603  0.000  0.362
 O          0.000  0.000 -0.421    0.000  0.000  0.001   -0.001  0.000  0.000
 TransDip   0.000  0.000  0.837    0.000  0.000  0.173    0.097  0.000  0.000

 STANDARD THERMODYNAMIC QUANTITIES AT   298.18 K  AND     1.00 ATM

   This Molecule has  0 Imaginary Frequencies
   Zero point vibrational energy:       19.780 kcal/mol

   Atom    1 Element C  Has Mass   12.00000
   Atom    2 Element C  Has Mass   12.00000
   Atom    3 Element H  Has Mass    1.00783
   Atom    4 Element H  Has Mass    1.00783
   Atom    5 Element O  Has Mass   15.99491
   Molecular Mass:    42.010570 amu
   Principal axes and moments of inertia in atomic units:
                             1           2           3
    Eigenvalues --        6.31836   174.38158   180.69994
          X               0.00000     1.00000     0.00000
          Y               0.00000     0.00000     1.00000
          Z               1.00000     0.00000     0.00000
   Rotational Symmetry Number is   1
   The Molecule is an Asymmetric Top
   Translational Enthalpy:        0.889 kcal/mol
   Rotational Enthalpy:           0.889 kcal/mol
   Vibrational Enthalpy:         20.210 kcal/mol
   gas constant (RT):             0.593 kcal/mol
   Translational Entropy:        37.133  cal/mol.K
   Rotational Entropy:           19.926  cal/mol.K
   Vibrational Entropy:           1.977  cal/mol.K

   Total Enthalpy:               22.580 kcal/mol
   Total Entropy:                59.037  cal/mol.K
 Total job time:  1620.44s(wall), 1612.88s(cpu) 
 Wed Jul 24 16:38:50 2013

        *************************************************************
        *                                                           *
        *  Thank you very much for using Q-Chem.  Have a nice day.  *
        *                                                           *
        *************************************************************


0 sent ACK to 0 
now end server 0 ... 
