Process 0 of 1 is on cl138.stfx.acenet.ca - thread support 1
initial socket setup ...start
initial socket setup ...done 
now start server 0 ... 

cmd = /usr/bin/ssh clhead /usr/local/qchem/bin/get_hostid 136102042 > /scratch/tmp/4789459.1.medium.q/qchem15169/lic.dat
                  Welcome to Q-Chem
     A Quantum Leap Into The Future Of Chemistry

 Y. Shao, L. Fusti-Molnar, Y. Jung, J. Kussmann, C. Ochsenfeld,
 S. T. Brown, A. T. B. Gilbert, L. V. Slipchenko,S. V. Levchenko,
 D. P. O'Neill, R. A. DiStasio Jr., R. C. Lochan, T. Wang,
 G. J. O. Beran, N. A. Besley, J. M. Herbert, C. Y. Lin,
 T. Van Voorhis, S. H. Chien, A. Sodt, R. P. Steele, 
 V. A. Rassolov, P. E. Maslen, P. P. Korambath, R. D. Adamson,
 B. Austin, J. Baker, E. F. C. Byrd, H. Dachsel, R. J. Doerksen,
 A. Dreuw, B. D. Dunietz, A. D. Dutoi, T. R. Furlani,
 S. R. Gwaltney, A. Heyden, S. Hirata, C.-P. Hsu, G. Kedziora,
 R. Z. Khaliullin, P. Klunzinger, A. M. Lee, M. S. Lee, W. Liang,
 I. Lotan, N. Nair, B. Peters, E. I. Proynov, P. A. Pieniazek, 
 Y. M. Rhee, J. Ritchie, E. Rosta, C. D. Sherrill, 
 A. C. Simmonett, J. E. Subotnik, H. L. Woodcock III,
 W. Zhang, A. T. Bell, A. K. Chakraborty, D. M. Chipman,
 F. J. Keil, A. Warshel, W. J. Hehre, H. F. Schaefer III,
 J. Kong, A. I. Krylov, P. M. W. Gill, M. Head-Gordon,
 Q-Chem, Version 3.1, Q-Chem, Inc., Pittsburgh, PA (2007).

 Additional authors for Version 3.1: 
 Z. Gan, Y. Zhao, N. E. Schultz, D. Truhlar, E. Epifanovsky and M. Oana.

 Additional authors for Version 3.2: 
 R. Baer, B. R. Brooks, D. Casanova, J.-D. Chai, C.-L. Cheng, 
 C. Cramer, D. Crittenden, A. Ghysels, G. Hawkins, E. G. Hohenstein, 
 C. Kelley, W. Kurlancheek, D. Liotard, E. Livshits, P. Manohar, 
 A. Marenich, D. Neuhauser, R. Olson, M. A. Rohrdanz, K. S. Thanthiriwatte, 
 A. J. W. Thom, V. Vanovschi, C. F. Williams, Q. Wu and Z.-Q. You. 


 Intel X86 Linux Version

 Q-chem begins on Thu Nov 10 20:31:45 2011  

 Parallel job on  1  processors
Processing $rem in /usr/local/qchem/config/preferences.

theFileMan(): MAXOPENFILES=974 MAX_SUB_FILE_NUM=16
Maximum size of a physical file is 2.0 GB, maximum size of a tmp-file is 32.0 GB


--------------------------------------------------------------
User input:
--------------------------------------------------------------

$molecule
-1,2
Si
Si,1,R

 R=2.28638903

$end

$comment
negative
$end

$xc_functional
   X HF 1.0
   X BNL 1.0
   C LYP 1.0
$end

$rem
SYMMETRY_DECOMPOSITION	0
exchange 		general
BASIS                   g3large
omega			200
separate_jk		true
mem_static              760
max_scf_cycles          200
scf_final_print         1
sym_ignore              true
$end

--------------------------------------------------------------
 Writing REM_CC_EA            2
 ----------------------------------------------------
       Standard Nuclear Orientation (Angstroms)
    I     Atom         X            Y            Z
 ----------------------------------------------------
    1      Si      0.000000     0.000000     0.000000
    2      Si      0.000000     0.000000     2.286389
 ----------------------------------------------------
 Nuclear Repulsion Energy =    45.3635544765 hartrees
 There are       15 alpha and       14 beta electrons
 Requested basis set is G3large
 There are 38 shells and 132 basis functions

Total QAlloc Memory Limit   2000 MB
Mega-Array Size       743 MB
MEM_STATIC part       760 MB

                       Distance Matrix (Angstroms)
             Si(  1)
   Si(  2)  2.286389
 
 A cutoff of  1.0D-08 yielded    673 shell pairs
 There are   8434 function pairs ( 12149 Cartesian)
Evaluating contribution to one-electron hamiltonian from nuclear
 Smallest overlap matrix eigenvalue = 8.57E-04
 Multipole matrices computed through 2nd order

  Scale SEOQF with 1.000000e-01/1.000000e-01/1.000000e-01

 Standard Electronic Orientation quadrupole field applied
 Nucleus-field energy     =    -0.0000000078 hartrees
 Guess from superposition of atomic densities
 Warning:  Energy on first SCF cycle will be non-variational
 An unrestricted hybrid HF-DFT SCF calculation will be
 performed using Pulay DIIS extrapolation
 Exchange:     1.0000 Hartree-Fock + 1.0000 BNL
 Correlation:  1.0000 LYP
 Using SG-1 standard quadrature grid
 SCF converges when DIIS error is below 1.0E-05
 Warning!  Inaccurate integrated density:
   Number of electrons =    29
   Numerical integral  =    28.000028981927
   Relative error      =    -3.4481759244 %
 ---------------------------------------
  Cycle       Energy         DIIS Error
 ---------------------------------------
    1    -575.6148267848      1.98E-02
    2    -575.7423507721      2.37E-03
    3    -575.7673467627      1.57E-03
    4    -575.7745013705      2.85E-04
    5    -575.7747112722      6.00E-05
    6    -575.7747774936      1.74E-05
    7    -575.7747846418      8.43E-06 Convergence criterion met
 ---------------------------------------
 One-Electron    Energy =  -897.8225550203
 Total Coulomb   Energy =   315.2475024118
 Alpha Exchange  Energy =    -1.6065559261
 Beta  Exchange  Energy =    -1.5113550471
 DFT   Exchange  Energy =   -34.3189644853
 DFT Correlation Energy =    -1.1264110435
 Nuclear Repu.   Energy =    45.3635544686
 Nuclear Attr.   Energy = -1472.5537417458
 Kinetic         Energy =   574.7311867255
 <S^2> = 0.7521
 SCF time:  CPU 33.30 s  wall 35.55 s
 Final Alpha MO Eigenvalues
            1           2           3           4           5           6
    1 -65.0040978 -65.0040859  -4.9232432  -4.9231306  -3.3678764  -3.3678192
            7           8           9          10          11          12
    1  -3.3627797  -3.3627230  -3.3590003  -3.3582338  -0.3666081  -0.2288071
           13          14          15          16          17          18
    1  -0.0865153  -0.0737919  -0.0678157   0.1500681   0.1597985   0.1628715
           19          20
    1   0.1855353   0.1973163
 Final Beta MO Eigenvalues
            1           2           3           4           5           6
    1 -65.0027867 -65.0027747  -4.9217472  -4.9216468  -3.3645382  -3.3644818
            7           8           9          10          11          12
    1  -3.3614704  -3.3614132  -3.3580446  -3.3572848  -0.3480830  -0.2185449
           13          14          15          16          17          18
    1  -0.0680875  -0.0616604   0.0997263   0.1617656   0.1631565   0.1678973
           19
    1   0.1865759
 Analysis of SCF Wavefunction
 
 --------------------------------------------------------------
                    Orbital Energies (a.u.)
 --------------------------------------------------------------
 
 Alpha MOs
 -- Occupied --
-65.004 -65.004  -4.923  -4.923  -3.368  -3.368  -3.363  -3.363
 -3.359  -3.358  -0.367  -0.229  -0.087  -0.074  -0.068
 -- Virtual --
  0.150   0.160   0.163   0.186   0.197   0.201   0.215   0.227
  0.233   0.262   0.303   0.347   0.347   0.380   0.391   0.423
  0.432   0.446   0.447   0.489   0.496   0.501   0.505   0.509
  0.575   0.585   0.647   0.654   0.688   0.688   0.727   0.727
  0.787   0.796   0.796   0.799   0.899   0.902   0.932   0.941
  0.944   0.991   0.992   0.997   1.006   1.033   1.033   1.088
  1.101   1.124   1.137   1.173   1.232   1.431   1.445   1.630
  1.642   1.675   1.889   2.215   2.237   2.249   2.321   2.321
  2.329   2.330   2.347   2.347   2.403   2.403   2.546   2.558
  2.653   3.643   3.645   3.651   3.656   3.658   3.673   3.676
  3.793   3.801   4.251   5.752   5.770  11.392  11.398  11.507
 11.513  11.571  11.718  17.541  17.550  17.555  17.717  17.723
 17.727  17.731  17.784  17.788  17.830  22.314  22.318  22.319
 22.322  22.323  22.330  22.334  22.335  22.337  22.339  22.341
 22.348  22.351  22.364 141.087 141.138
 
 Beta MOs
 -- Occupied --
-65.003 -65.003  -4.922  -4.922  -3.365  -3.364  -3.361  -3.361
 -3.358  -3.357  -0.348  -0.219  -0.068  -0.062
 -- Virtual --
  0.100   0.162   0.163   0.168   0.187   0.200   0.202   0.217
  0.236   0.236   0.261   0.308   0.361   0.361   0.392   0.394
  0.428   0.436   0.454   0.454   0.497   0.502   0.503   0.507
  0.512   0.582   0.587   0.653   0.661   0.696   0.696   0.735
  0.735   0.799   0.803   0.803   0.803   0.902   0.910   0.939
  0.948   0.949   1.002   1.003   1.003   1.007   1.042   1.042
  1.102   1.105   1.136   1.141   1.176   1.238   1.444   1.448
  1.641   1.646   1.682   1.894   2.224   2.251   2.253   2.336
  2.336   2.340   2.341   2.362   2.362   2.414   2.414   2.560
  2.562   2.660   3.648   3.651   3.656   3.657   3.659   3.678
  3.682   3.800   3.803   4.256   5.756   5.773  11.397  11.401
 11.512  11.515  11.572  11.720  17.545  17.552  17.558  17.720
 17.726  17.727  17.734  17.787  17.789  17.831  22.315  22.319
 22.320  22.324  22.324  22.332  22.335  22.336  22.338  22.340
 22.342  22.349  22.352  22.364 141.089 141.140
 --------------------------------------------------------------
 
          Ground-State Mulliken Net Atomic Charges

     Atom                 Charge (a.u.)    Spin (a.u.)
  --------------------------------------------------------
      1 Si                   -0.500017       0.500000
      2 Si                   -0.499983       0.500000
  --------------------------------------------------------
  Sum of atomic charges =    -1.000000
  Sum of spin   charges =     1.000000

 -----------------------------------------------------------------
                    Cartesian Multipole Moments
 -----------------------------------------------------------------
    Charge (ESU x 10^10)
                -4.8032
    Dipole Moment (Debye)
         X       0.0000      Y       0.0000      Z      -5.4908
       Tot       5.4908
    Quadrupole Moments (Debye-Ang)
        XX     -37.3131     XY       2.9987     YY     -37.3113
        XZ       0.0155     YZ       0.0127     ZZ     -55.3533
    Octapole Moments (Debye-Ang^2)
       XXX       0.0002    XXY       0.0000    XYY       0.0001
       YYY      -0.0001    XXZ     -42.6560    XYZ       3.4281
       YYZ     -42.6539    XZZ       0.0356    YZZ       0.0290
       ZZZ    -175.4866
    Hexadecapole Moments (Debye-Ang^3)
      XXXX    -117.3226   XXXY      10.2992   XXYY     -39.0679
      XYYY      10.2992   YYYY    -117.3103   XXXZ       0.0634
      XXYZ       0.0178   XYYZ       0.0219   YYYZ       0.0509
      XXZZ    -140.0578   XYZZ       9.5234   YYZZ    -140.0520
      XZZZ       0.1895   YZZZ       0.1531   ZZZZ    -881.6651
 -----------------------------------------------------------------
 Total job time:  36.00s(wall), 33.45s(cpu) 
 Thu Nov 10 20:32:21 2011

        *************************************************************
        *                                                           *
        *  Thank you very much for using Q-Chem.  Have a nice day.  *
        *                                                           *
        *************************************************************


0 sent ACK to 0 
now end server 0 ... 
 
**********************************************************************
Job 2 of 3 
**********************************************************************
 
Process 0 of 1 is on cl138.stfx.acenet.ca - thread support 1
initial socket setup ...start
initial socket setup ...done 
now start server 0 ... 

cmd = /usr/bin/ssh clhead /usr/local/qchem/bin/get_hostid 87469143 > /scratch/tmp/4789459.1.medium.q/qchem15169/lic.dat
                  Welcome to Q-Chem
     A Quantum Leap Into The Future Of Chemistry

 Y. Shao, L. Fusti-Molnar, Y. Jung, J. Kussmann, C. Ochsenfeld,
 S. T. Brown, A. T. B. Gilbert, L. V. Slipchenko,S. V. Levchenko,
 D. P. O'Neill, R. A. DiStasio Jr., R. C. Lochan, T. Wang,
 G. J. O. Beran, N. A. Besley, J. M. Herbert, C. Y. Lin,
 T. Van Voorhis, S. H. Chien, A. Sodt, R. P. Steele, 
 V. A. Rassolov, P. E. Maslen, P. P. Korambath, R. D. Adamson,
 B. Austin, J. Baker, E. F. C. Byrd, H. Dachsel, R. J. Doerksen,
 A. Dreuw, B. D. Dunietz, A. D. Dutoi, T. R. Furlani,
 S. R. Gwaltney, A. Heyden, S. Hirata, C.-P. Hsu, G. Kedziora,
 R. Z. Khaliullin, P. Klunzinger, A. M. Lee, M. S. Lee, W. Liang,
 I. Lotan, N. Nair, B. Peters, E. I. Proynov, P. A. Pieniazek, 
 Y. M. Rhee, J. Ritchie, E. Rosta, C. D. Sherrill, 
 A. C. Simmonett, J. E. Subotnik, H. L. Woodcock III,
 W. Zhang, A. T. Bell, A. K. Chakraborty, D. M. Chipman,
 F. J. Keil, A. Warshel, W. J. Hehre, H. F. Schaefer III,
 J. Kong, A. I. Krylov, P. M. W. Gill, M. Head-Gordon,
 Q-Chem, Version 3.1, Q-Chem, Inc., Pittsburgh, PA (2007).

 Additional authors for Version 3.1: 
 Z. Gan, Y. Zhao, N. E. Schultz, D. Truhlar, E. Epifanovsky and M. Oana.

 Additional authors for Version 3.2: 
 R. Baer, B. R. Brooks, D. Casanova, J.-D. Chai, C.-L. Cheng, 
 C. Cramer, D. Crittenden, A. Ghysels, G. Hawkins, E. G. Hohenstein, 
 C. Kelley, W. Kurlancheek, D. Liotard, E. Livshits, P. Manohar, 
 A. Marenich, D. Neuhauser, R. Olson, M. A. Rohrdanz, K. S. Thanthiriwatte, 
 A. J. W. Thom, V. Vanovschi, C. F. Williams, Q. Wu and Z.-Q. You. 


 Intel X86 Linux Version

 Q-chem begins on Thu Nov 10 20:32:23 2011  

 Parallel job on  1  processors
Processing $rem in /usr/local/qchem/config/preferences.

theFileMan(): MAXOPENFILES=974 MAX_SUB_FILE_NUM=16
Maximum size of a physical file is 2.0 GB, maximum size of a tmp-file is 32.0 GB


--------------------------------------------------------------
User input:
--------------------------------------------------------------

$molecule
0,3
Si
Si,1,R

 R=2.28638903

$end

$comment
neutral
$end

$xc_functional
   X HF 1.0
   X BNL 1.0
   C LYP 1.0
$end

$rem
SYMMETRY_DECOMPOSITION	0
exchange 		general
BASIS                   g3large
omega			200
separate_jk		true
mem_static              760
max_scf_cycles          200
scf_final_print         1
sym_ignore              true
$end

--------------------------------------------------------------
 Writing REM_CC_EA            2
 ----------------------------------------------------
       Standard Nuclear Orientation (Angstroms)
    I     Atom         X            Y            Z
 ----------------------------------------------------
    1      Si      0.000000     0.000000     0.000000
    2      Si      0.000000     0.000000     2.286389
 ----------------------------------------------------
 Nuclear Repulsion Energy =    45.3635544765 hartrees
 There are       15 alpha and       13 beta electrons
 Requested basis set is G3large
 There are 38 shells and 132 basis functions

Total QAlloc Memory Limit   2000 MB
Mega-Array Size       743 MB
MEM_STATIC part       760 MB

                       Distance Matrix (Angstroms)
             Si(  1)
   Si(  2)  2.286389
 
 A cutoff of  1.0D-08 yielded    673 shell pairs
 There are   8434 function pairs ( 12149 Cartesian)
Evaluating contribution to one-electron hamiltonian from nuclear
 Smallest overlap matrix eigenvalue = 8.57E-04
 Multipole matrices computed through 2nd order

  Scale SEOQF with 1.000000e-01/1.000000e-01/1.000000e-01

 Standard Electronic Orientation quadrupole field applied
 Nucleus-field energy     =    -0.0000000078 hartrees
 Guess from superposition of atomic densities
 Warning:  Energy on first SCF cycle will be non-variational
 An unrestricted hybrid HF-DFT SCF calculation will be
 performed using Pulay DIIS extrapolation
 Exchange:     1.0000 Hartree-Fock + 1.0000 BNL
 Correlation:  1.0000 LYP
 Using SG-1 standard quadrature grid
 SCF converges when DIIS error is below 1.0E-05
 ---------------------------------------
  Cycle       Energy         DIIS Error
 ---------------------------------------
    1    -575.6148267848      1.98E-02
    2    -575.6899700616      1.46E-03
    3    -575.6939943246      7.19E-04
    4    -575.6945670268      5.98E-05
    5    -575.6946565958      2.76E-05
    6    -575.6946699538      1.11E-05
    7    -575.6946721183      3.87E-06 Convergence criterion met
 ---------------------------------------
 One-Electron    Energy =  -891.6180740742
 Total Coulomb   Energy =   308.9346894092
 Alpha Exchange  Energy =    -1.6169054985
 Beta  Exchange  Energy =    -1.4149035938
 DFT   Exchange  Energy =   -34.2436409232
 DFT Correlation Energy =    -1.0993919064
 Nuclear Repu.   Energy =    45.3635544686
 Nuclear Attr.   Energy = -1466.2722056725
 Kinetic         Energy =   574.6541315982
 <S^2> = 2.0045
 SCF time:  CPU 32.61 s  wall 34.09 s
 Final Alpha MO Eigenvalues
            1           2           3           4           5           6
    1 -65.2320556 -65.2320121  -5.1496698  -5.1495476  -3.5927727  -3.5927065
            7           8           9          10          11          12
    1  -3.5908467  -3.5900607  -3.5868734  -3.5868076  -0.5895695  -0.4478523
           13          14          15          16          17          18
    1  -0.3006260  -0.2880519  -0.2678696  -0.0356447  -0.0213330   0.0399983
           19          20
    1   0.0520954   0.0725783
 Final Beta MO Eigenvalues
            1           2           3           4           5           6
    1 -65.2284875 -65.2284437  -5.1456369  -5.1455280  -3.5874464  -3.5873840
            7           8           9          10          11          12
    1  -3.5839707  -3.5838885  -3.5838256  -3.5832144  -0.5514250  -0.4047903
           13          14          15          16          17          18
    1  -0.2548055  -0.0959347  -0.0851751  -0.0095163  -0.0001775   0.0425692
 Analysis of SCF Wavefunction
 
 --------------------------------------------------------------
                    Orbital Energies (a.u.)
 --------------------------------------------------------------
 
 Alpha MOs
 -- Occupied --
-65.232 -65.232  -5.150  -5.150  -3.593  -3.593  -3.591  -3.590
 -3.587  -3.587  -0.590  -0.448  -0.301  -0.288  -0.268
 -- Virtual --
 -0.036  -0.021   0.040   0.052   0.073   0.076   0.081   0.100
  0.103   0.106   0.150   0.167   0.167   0.187   0.199   0.245
  0.263   0.266   0.270   0.321   0.332   0.333   0.338   0.342
  0.392   0.402   0.455   0.464   0.510   0.510   0.540   0.541
  0.588   0.599   0.619   0.619   0.696   0.714   0.742   0.752
  0.754   0.786   0.787   0.815   0.823   0.834   0.835   0.874
  0.887   0.916   0.930   0.971   1.005   1.229   1.244   1.426
  1.439   1.455   1.675   1.982   2.008   2.021   2.107   2.108
  2.110   2.111   2.138   2.138   2.180   2.181   2.315   2.329
  2.419   3.421   3.423   3.425   3.431   3.432   3.455   3.459
  3.566   3.575   4.025   5.528   5.543  11.169  11.176  11.283
 11.290  11.339  11.487  17.318  17.320  17.332  17.494  17.494
 17.498  17.507  17.555  17.560  17.599  22.085  22.094  22.094
 22.099  22.100  22.104  22.108  22.109  22.111  22.113  22.115
 22.119  22.124  22.135 140.860 140.911
 
 Beta MOs
 -- Occupied --
-65.228 -65.228  -5.146  -5.146  -3.587  -3.587  -3.584  -3.584
 -3.584  -3.583  -0.551  -0.405  -0.255
 -- Virtual --
 -0.096  -0.085  -0.010   0.000   0.043   0.054   0.073   0.076
  0.082   0.100   0.103   0.124   0.155   0.183   0.184   0.215
  0.217   0.261   0.275   0.277   0.279   0.331   0.337   0.341
  0.346   0.348   0.407   0.413   0.472   0.479   0.520   0.520
  0.555   0.555   0.611   0.614   0.627   0.628   0.716   0.728
  0.758   0.765   0.766   0.803   0.803   0.830   0.835   0.849
  0.849   0.900   0.903   0.941   0.946   0.990   1.030   1.248
  1.253   1.446   1.450   1.478   1.695   2.017   2.045   2.047
  2.131   2.131   2.135   2.135   2.158   2.159   2.209   2.209
  2.353   2.355   2.450   3.433   3.435   3.437   3.439   3.441
  3.463   3.467   3.581   3.585   4.039   5.539   5.555  11.176
 11.180  11.291  11.295  11.350  11.498  17.323  17.328  17.337
 17.498  17.502  17.504  17.512  17.563  17.565  17.607  22.088
 22.096  22.097  22.102  22.102  22.107  22.110  22.112  22.114
 22.116  22.117  22.123  22.126  22.138 140.864 140.915
 --------------------------------------------------------------
 
          Ground-State Mulliken Net Atomic Charges

     Atom                 Charge (a.u.)    Spin (a.u.)
  --------------------------------------------------------
      1 Si                    0.000070       1.000035
      2 Si                   -0.000070       0.999965
  --------------------------------------------------------
  Sum of atomic charges =     0.000000
  Sum of spin   charges =     2.000000

 -----------------------------------------------------------------
                    Cartesian Multipole Moments
 -----------------------------------------------------------------
    Charge (ESU x 10^10)
                 0.0000
    Dipole Moment (Debye)
         X       0.0000      Y       0.0000      Z      -0.0008
       Tot       0.0008
    Quadrupole Moments (Debye-Ang)
        XX     -28.7764     XY       2.2701     YY     -28.7750
        XZ       0.0052     YZ       0.0045     ZZ     -23.9733
    Octapole Moments (Debye-Ang^2)
       XXX      -0.0001    XXY       0.0000    XYY       0.0000
       YYY       0.0001    XXZ     -32.8976    XYZ       2.5953
       YYZ     -32.8960    XZZ       0.0117    YZZ       0.0103
       ZZZ     -82.2175
    Hexadecapole Moments (Debye-Ang^3)
      XXXX     -63.9120   XXXY       5.2927   XXYY     -21.2724
      XYYY       5.2928   YYYY     -63.9054   XXXZ       0.0108
      XXYZ       0.0035   XYYZ       0.0039   YYYZ       0.0092
      XXZZ     -90.2119   XYZZ       6.3490   YYZZ     -90.2080
      XZZZ       0.0551   YZZZ       0.0482   ZZZZ    -441.5376
 -----------------------------------------------------------------
 Total job time:  34.25s(wall), 32.76s(cpu) 
 Thu Nov 10 20:32:58 2011

        *************************************************************
        *                                                           *
        *  Thank you very much for using Q-Chem.  Have a nice day.  *
        *                                                           *
        *************************************************************


0 sent ACK to 0 
now end server 0 ... 
 
**********************************************************************
Job 3 of 3 
**********************************************************************
 
Process 0 of 1 is on cl138.stfx.acenet.ca - thread support 1
initial socket setup ...start
initial socket setup ...done 
now start server 0 ... 

cmd = /usr/bin/ssh clhead /usr/local/qchem/bin/get_hostid 652685744 > /scratch/tmp/4789459.1.medium.q/qchem15169/lic.dat
                  Welcome to Q-Chem
     A Quantum Leap Into The Future Of Chemistry

 Y. Shao, L. Fusti-Molnar, Y. Jung, J. Kussmann, C. Ochsenfeld,
 S. T. Brown, A. T. B. Gilbert, L. V. Slipchenko,S. V. Levchenko,
 D. P. O'Neill, R. A. DiStasio Jr., R. C. Lochan, T. Wang,
 G. J. O. Beran, N. A. Besley, J. M. Herbert, C. Y. Lin,
 T. Van Voorhis, S. H. Chien, A. Sodt, R. P. Steele, 
 V. A. Rassolov, P. E. Maslen, P. P. Korambath, R. D. Adamson,
 B. Austin, J. Baker, E. F. C. Byrd, H. Dachsel, R. J. Doerksen,
 A. Dreuw, B. D. Dunietz, A. D. Dutoi, T. R. Furlani,
 S. R. Gwaltney, A. Heyden, S. Hirata, C.-P. Hsu, G. Kedziora,
 R. Z. Khaliullin, P. Klunzinger, A. M. Lee, M. S. Lee, W. Liang,
 I. Lotan, N. Nair, B. Peters, E. I. Proynov, P. A. Pieniazek, 
 Y. M. Rhee, J. Ritchie, E. Rosta, C. D. Sherrill, 
 A. C. Simmonett, J. E. Subotnik, H. L. Woodcock III,
 W. Zhang, A. T. Bell, A. K. Chakraborty, D. M. Chipman,
 F. J. Keil, A. Warshel, W. J. Hehre, H. F. Schaefer III,
 J. Kong, A. I. Krylov, P. M. W. Gill, M. Head-Gordon,
 Q-Chem, Version 3.1, Q-Chem, Inc., Pittsburgh, PA (2007).

 Additional authors for Version 3.1: 
 Z. Gan, Y. Zhao, N. E. Schultz, D. Truhlar, E. Epifanovsky and M. Oana.

 Additional authors for Version 3.2: 
 R. Baer, B. R. Brooks, D. Casanova, J.-D. Chai, C.-L. Cheng, 
 C. Cramer, D. Crittenden, A. Ghysels, G. Hawkins, E. G. Hohenstein, 
 C. Kelley, W. Kurlancheek, D. Liotard, E. Livshits, P. Manohar, 
 A. Marenich, D. Neuhauser, R. Olson, M. A. Rohrdanz, K. S. Thanthiriwatte, 
 A. J. W. Thom, V. Vanovschi, C. F. Williams, Q. Wu and Z.-Q. You. 


 Intel X86 Linux Version

 Q-chem begins on Thu Nov 10 20:33:00 2011  

 Parallel job on  1  processors
Processing $rem in /usr/local/qchem/config/preferences.

theFileMan(): MAXOPENFILES=974 MAX_SUB_FILE_NUM=16
Maximum size of a physical file is 2.0 GB, maximum size of a tmp-file is 32.0 GB


--------------------------------------------------------------
User input:
--------------------------------------------------------------

$molecule
1,4
Si
Si,1,R

 R=2.28638903

$end

$comment
positive
$end

$xc_functional
   X HF 1.0
   X BNL 1.0
   C LYP 1.0
$end

$rem
SYMMETRY_DECOMPOSITION	0
exchange 		general
BASIS                   g3large
omega			200
separate_jk		true
mem_static              760
max_scf_cycles          200
scf_final_print         1
sym_ignore              true
$end

--------------------------------------------------------------
 Writing REM_CC_EA            2
 ----------------------------------------------------
       Standard Nuclear Orientation (Angstroms)
    I     Atom         X            Y            Z
 ----------------------------------------------------
    1      Si      0.000000     0.000000     0.000000
    2      Si      0.000000     0.000000     2.286389
 ----------------------------------------------------
 Nuclear Repulsion Energy =    45.3635544765 hartrees
 There are       15 alpha and       12 beta electrons
 Requested basis set is G3large
 There are 38 shells and 132 basis functions

Total QAlloc Memory Limit   2000 MB
Mega-Array Size       743 MB
MEM_STATIC part       760 MB

                       Distance Matrix (Angstroms)
             Si(  1)
   Si(  2)  2.286389
 
 A cutoff of  1.0D-08 yielded    673 shell pairs
 There are   8434 function pairs ( 12149 Cartesian)
Evaluating contribution to one-electron hamiltonian from nuclear
 Smallest overlap matrix eigenvalue = 8.57E-04
 Multipole matrices computed through 2nd order

  Scale SEOQF with 1.000000e-01/1.000000e-01/1.000000e-01

 Standard Electronic Orientation quadrupole field applied
 Nucleus-field energy     =    -0.0000000078 hartrees
 Guess from superposition of atomic densities
 Warning:  Energy on first SCF cycle will be non-variational
 An unrestricted hybrid HF-DFT SCF calculation will be
 performed using Pulay DIIS extrapolation
 Exchange:     1.0000 Hartree-Fock + 1.0000 BNL
 Correlation:  1.0000 LYP
 Using SG-1 standard quadrature grid
 SCF converges when DIIS error is below 1.0E-05
 Warning!  Inaccurate integrated density:
   Number of electrons =    27
   Numerical integral  =    28.000028981927
   Relative error      =     3.7038110442 %
 ---------------------------------------
  Cycle       Energy         DIIS Error
 ---------------------------------------
    1    -575.6148267848      1.98E-02
    2    -575.3904757662      2.37E-03
    3    -575.4154765677      1.38E-03
    4    -575.4176567722      1.68E-04
    5    -575.4178449060      3.80E-05
    6    -575.4178710692      1.10E-05
    7    -575.4178742085      3.91E-06 Convergence criterion met
 ---------------------------------------
 One-Electron    Energy =  -884.6062591970
 Total Coulomb   Energy =   301.9981919456
 Alpha Exchange  Energy =    -1.6231418038
 Beta  Exchange  Energy =    -1.3209398597
 DFT   Exchange  Energy =   -34.1628561174
 DFT Correlation Energy =    -1.0664236447
 Nuclear Repu.   Energy =    45.3635544686
 Nuclear Attr.   Energy = -1459.1391850931
 Kinetic         Energy =   574.5329258961
 <S^2> = 3.7515
 SCF time:  CPU 33.19 s  wall 34.74 s
 Final Alpha MO Eigenvalues
            1           2           3           4           5           6
    1 -65.4905486 -65.4905457  -5.4060726  -5.4059506  -3.8476048  -3.8476045
            7           8           9          10          11          12
    1  -3.8475504  -3.8475501  -3.8459977  -3.8452079  -0.8430234  -0.6853262
           13          14          15          16          17          18
    1  -0.5307612  -0.5194261  -0.5194258  -0.2515603  -0.2515599  -0.1352299
           19          20
    1  -0.1080342  -0.0649011
 Final Beta MO Eigenvalues
            1           2           3           4           5           6
    1 -65.4849475 -65.4849450  -5.3997106  -5.3996204  -3.8400118  -3.8400117
            7           8           9          10          11          12
    1  -3.8399631  -3.8399629  -3.8373547  -3.8366058  -0.7827705  -0.6273128
           13          14          15          16          17
    1  -0.3127213  -0.3011010  -0.3011006  -0.2048756  -0.2048749
 Analysis of SCF Wavefunction
 
 --------------------------------------------------------------
                    Orbital Energies (a.u.)
 --------------------------------------------------------------
 
 Alpha MOs
 -- Occupied --
-65.491 -65.491  -5.406  -5.406  -3.848  -3.848  -3.848  -3.848
 -3.846  -3.845  -0.843  -0.685  -0.531  -0.519  -0.519
 -- Virtual --
 -0.252  -0.252  -0.135  -0.108  -0.065  -0.065  -0.056  -0.053
 -0.045  -0.045  -0.026  -0.026  -0.013  -0.013   0.015   0.060
  0.060   0.067   0.114   0.145   0.145   0.160   0.160   0.168
  0.207   0.207   0.248   0.264   0.303   0.303   0.333   0.333
  0.383   0.383   0.417   0.417   0.479   0.530   0.538   0.538
  0.544   0.545   0.546   0.612   0.612   0.625   0.625   0.653
  0.653   0.694   0.694   0.766   0.771   1.006   1.006   1.206
  1.206   1.214   1.453   1.737   1.771   1.771   1.858   1.858
  1.859   1.859   1.886   1.886   1.932   1.932   2.075   2.075
  2.174   3.171   3.174   3.175   3.177   3.177   3.201   3.205
  3.318   3.318   3.773   5.277   5.291  10.916  10.916  11.031
 11.031  11.085  11.234  17.060  17.064  17.074  17.236  17.240
 17.240  17.249  17.301  17.301  17.343  21.830  21.838  21.838
 21.843  21.843  21.850  21.850  21.853  21.855  21.857  21.859
 21.866  21.866  21.880 140.602 140.653
 
 Beta MOs
 -- Occupied --
-65.485 -65.485  -5.400  -5.400  -3.840  -3.840  -3.840  -3.840
 -3.837  -3.837  -0.783  -0.627
 -- Virtual --
 -0.313  -0.301  -0.301  -0.205  -0.205  -0.104  -0.102  -0.064
 -0.064  -0.053  -0.043  -0.027  -0.027  -0.015  -0.015   0.014
  0.018   0.018   0.081   0.081   0.085   0.119   0.154   0.154
  0.172   0.172   0.177   0.220   0.220   0.270   0.284   0.319
  0.319   0.355   0.355   0.408   0.408   0.431   0.431   0.505
  0.547   0.562   0.562   0.562   0.576   0.576   0.634   0.634
  0.644   0.644   0.680   0.680   0.724   0.724   0.793   0.799
  1.030   1.030   1.231   1.231   1.247   1.480   1.783   1.815
  1.815   1.900   1.900   1.903   1.903   1.927   1.927   1.976
  1.976   2.120   2.120   2.216   3.187   3.191   3.192   3.194
  3.194   3.217   3.221   3.337   3.337   3.795   5.294   5.309
 10.927  10.927  11.042  11.042  11.098  11.247  17.069  17.075
 17.083  17.244  17.249  17.249  17.258  17.311  17.311  17.354
 21.835  21.842  21.842  21.847  21.847  21.854  21.854  21.858
 21.859  21.862  21.863  21.871  21.871  21.884 140.608 140.660
 --------------------------------------------------------------
 
          Ground-State Mulliken Net Atomic Charges

     Atom                 Charge (a.u.)    Spin (a.u.)
  --------------------------------------------------------
      1 Si                    0.499995       1.500010
      2 Si                    0.500005       1.499990
  --------------------------------------------------------
  Sum of atomic charges =     1.000000
  Sum of spin   charges =     3.000000

 -----------------------------------------------------------------
                    Cartesian Multipole Moments
 -----------------------------------------------------------------
    Charge (ESU x 10^10)
                 4.8032
    Dipole Moment (Debye)
         X       0.0000      Y       0.0000      Z       5.4910
       Tot       5.4910
    Quadrupole Moments (Debye-Ang)
        XX     -21.5013     XY       0.0001     YY     -21.5013
        XZ       0.0043     YZ       0.0036     ZZ      -5.5997
    Octapole Moments (Debye-Ang^2)
       XXX       0.0000    XXY       0.0000    XYY       0.0000
       YYY       0.0000    XXZ     -24.5802    XYZ       0.0001
       YYZ     -24.5802    XZZ       0.0099    YZZ       0.0082
       ZZZ     -33.5570
    Hexadecapole Moments (Debye-Ang^3)
      XXXX     -34.8361   XXXY       0.0002   XXYY     -11.6120
      XYYY       0.0002   YYYY     -34.8361   XXXZ       0.0070
      XXYZ       0.0019   XYYZ       0.0023   YYYZ       0.0058
      XXZZ     -64.4625   XYZZ       0.0002   YYZZ     -64.4625
      XZZZ       0.0415   YZZZ       0.0343   ZZZZ    -266.9027
 -----------------------------------------------------------------
 Total job time:  34.91s(wall), 33.34s(cpu) 
 Thu Nov 10 20:33:35 2011

        *************************************************************
        *                                                           *
        *  Thank you very much for using Q-Chem.  Have a nice day.  *
        *                                                           *
        *************************************************************


0 sent ACK to 0 
now end server 0 ... 
