Process 0 of 1 is on cl082.stfx.acenet.ca - thread support 1
initial socket setup ...start
initial socket setup ...done 
now start server 0 ... 

cmd = /usr/bin/ssh clhead /usr/local/qchem/bin/get_hostid 386545400 > /scratch/tmp/6064073.1.short.q/qchem21615/lic.dat
                  Welcome to Q-Chem
     A Quantum Leap Into The Future Of Chemistry

 Y. Shao, L. Fusti-Molnar, Y. Jung, J. Kussmann, C. Ochsenfeld,
 S. T. Brown, A. T. B. Gilbert, L. V. Slipchenko,S. V. Levchenko,
 D. P. O'Neill, R. A. DiStasio Jr., R. C. Lochan, T. Wang,
 G. J. O. Beran, N. A. Besley, J. M. Herbert, C. Y. Lin,
 T. Van Voorhis, S. H. Chien, A. Sodt, R. P. Steele, 
 V. A. Rassolov, P. E. Maslen, P. P. Korambath, R. D. Adamson,
 B. Austin, J. Baker, E. F. C. Byrd, H. Dachsel, R. J. Doerksen,
 A. Dreuw, B. D. Dunietz, A. D. Dutoi, T. R. Furlani,
 S. R. Gwaltney, A. Heyden, S. Hirata, C.-P. Hsu, G. Kedziora,
 R. Z. Khaliullin, P. Klunzinger, A. M. Lee, M. S. Lee, W. Liang,
 I. Lotan, N. Nair, B. Peters, E. I. Proynov, P. A. Pieniazek, 
 Y. M. Rhee, J. Ritchie, E. Rosta, C. D. Sherrill, 
 A. C. Simmonett, J. E. Subotnik, H. L. Woodcock III,
 W. Zhang, A. T. Bell, A. K. Chakraborty, D. M. Chipman,
 F. J. Keil, A. Warshel, W. J. Hehre, H. F. Schaefer III,
 J. Kong, A. I. Krylov, P. M. W. Gill, M. Head-Gordon,
 Q-Chem, Version 3.1, Q-Chem, Inc., Pittsburgh, PA (2007).

 Additional authors for Version 3.1: 
 Z. Gan, Y. Zhao, N. E. Schultz, D. Truhlar, E. Epifanovsky and M. Oana.

 Additional authors for Version 3.2: 
 R. Baer, B. R. Brooks, D. Casanova, J.-D. Chai, C.-L. Cheng, 
 C. Cramer, D. Crittenden, A. Ghysels, G. Hawkins, E. G. Hohenstein, 
 C. Kelley, W. Kurlancheek, D. Liotard, E. Livshits, P. Manohar, 
 A. Marenich, D. Neuhauser, R. Olson, M. A. Rohrdanz, K. S. Thanthiriwatte, 
 A. J. W. Thom, V. Vanovschi, C. F. Williams, Q. Wu and Z.-Q. You. 


 Intel X86 Linux Version

 Q-chem begins on Sun Jul  7 09:41:04 2013  

 Parallel job on  1  processors
Processing $rem in /usr/local/qchem/config/preferences.

theFileMan(): MAXOPENFILES=974 MAX_SUB_FILE_NUM=16
Maximum size of a physical file is 2.0 GB, maximum size of a tmp-file is 32.0 GB


--------------------------------------------------------------
User input:
--------------------------------------------------------------

$molecule
-1,2
C         -0.00239        0.00000        0.00366
C          0.00239        0.00000        1.52136
O          1.01667        0.00000       -0.61795
H         -1.00159        0.00000       -0.46287
O         -1.01667        0.00000        2.14296
H          1.00159        0.00000        1.98789
$end

$comment
negative
$end

$xc_functional
C PBE   1.00
X wPBE  1.00
$end

$rem
SYMMETRY_DECOMPOSITION	0
exchange 		general
LRC_DFT                 true
BASIS                   g3large
omega			360
mem_static              760
max_scf_cycles          200
scf_final_print         1
sym_ignore              true
$end

--------------------------------------------------------------
 Writing REM_CC_EA            6
 ----------------------------------------------------
       Standard Nuclear Orientation (Angstroms)
    I     Atom         X            Y            Z
 ----------------------------------------------------
    1      C      -0.002390     0.000000     0.003660
    2      C       0.002390     0.000000     1.521360
    3      O       1.016670     0.000000    -0.617950
    4      H      -1.001590     0.000000    -0.462870
    5      O      -1.016670     0.000000     2.142960
    6      H       1.001590     0.000000     1.987890
 ----------------------------------------------------
 Nuclear Repulsion Energy =   102.6576218305 hartrees
 There are       16 alpha and       15 beta electrons
 Requested basis set is G3large
 There are 52 shells and 188 basis functions

Total QAlloc Memory Limit   2000 MB
Mega-Array Size       743 MB
MEM_STATIC part       760 MB

                       Distance Matrix (Angstroms)
             C (  1)   C (  2)   O (  3)   H (  4)   O (  5)
   C (  2)  1.517708
   O (  3)  1.193684  2.367575
   H (  4)  1.102747  2.223768  2.024209
   O (  5)  2.367566  1.193679  3.428862  2.605874
   H (  6)  2.223768  1.102747  2.605884  3.165273  2.024209
 
 A cutoff of  1.0D-08 yielded   1239 shell pairs
 There are  16161 function pairs ( 20529 Cartesian)
Evaluating contribution to one-electron hamiltonian from nuclear
 Smallest overlap matrix eigenvalue = 1.78E-04
 Multipole matrices computed through 2nd order

  Scale SEOQF with 1.000000e-01/1.000000e-01/1.000000e-01

 Standard Electronic Orientation quadrupole field applied
 Nucleus-field energy     =    -0.0000000055 hartrees
 Guess from superposition of atomic densities
 Warning:  Energy on first SCF cycle will be non-variational
 Long-range K will be added via erf
 Coulomb attenuation parameter = 0.36 bohr**(-1)
 An unrestricted Kohn-Sham SCF calculation will be
 performed using Pulay DIIS extrapolation
 Exchange:  wPBE + LR-HF      Correlation:  PBE
 Using SG-1 standard quadrature grid
 SCF converges when DIIS error is below 1.0E-05
 Requested basis set is G3large
 There are 52 shells and 188 basis functions
 A cutoff of  1.0D-08 yielded   1239 shell pairs
 There are  16161 function pairs ( 20529 Cartesian)
 Warning!  Inaccurate integrated density:
   Number of electrons =    31
   Numerical integral  =    29.999861636644
   Relative error      =    -3.2262527850 %
 ---------------------------------------
  Cycle       Energy         DIIS Error
 ---------------------------------------
    1    -228.7396947978      3.72E-02
    2    -227.5438080436      7.61E-03
    3    -227.4748231688      9.68E-03
    4    -227.7536606000      4.96E-04
    5    -227.7552693305      2.38E-04
    6    -227.7557919077      6.37E-05
    7    -227.7558885899      2.27E-05
    8    -227.7559351053      9.50E-06 Convergence criterion met
 ---------------------------------------
 One-Electron    Energy =  -521.5667365659
 Total Coulomb   Energy =   220.0242488317
 Alpha Exchange  Energy =    -2.9467104341
 Beta  Exchange  Energy =    -2.7686267629
 DFT   Exchange  Energy =   -22.1300610400
 DFT Correlation Energy =    -1.0256709591
 Nuclear Repu.   Energy =   102.6576218250
 Nuclear Attr.   Energy =  -749.0005843372
 Kinetic         Energy =   227.4338477712
 <S^2> = 0.7579
 SCF time:  CPU 81.76 s  wall 82.19 s
 Final Alpha MO Eigenvalues
            1           2           3           4           5           6
    1 -18.6981406 -18.6981315  -9.9196295  -9.9194605  -0.9499725  -0.9350672
            7           8           9          10          11          12
    1  -0.5764046  -0.4799779  -0.3697079  -0.3572237  -0.3366565  -0.3226599
           13          14          15          16          17          18
    1  -0.2837019  -0.1901351  -0.1223008  -0.0326126   0.1773761   0.1780814
           19          20          21
    1   0.2369705   0.2552346   0.2606146
 Final Beta MO Eigenvalues
            1           2           3           4           5           6
    1 -18.6913536 -18.6913480  -9.9171388  -9.9170307  -0.9389391  -0.9240209
            7           8           9          10          11          12
    1  -0.5547290  -0.4733144  -0.3657432  -0.3480760  -0.3155983  -0.2991094
           13          14          15          16          17          18
    1  -0.2380137  -0.1831574  -0.1153988   0.1774686   0.1784654   0.2372920
           19          20
    1   0.2389674   0.2557168
 Analysis of SCF Wavefunction
 
 --------------------------------------------------------------
                    Orbital Energies (a.u.)
 --------------------------------------------------------------
 
 Alpha MOs
 -- Occupied --
-18.698 -18.698  -9.920  -9.919  -0.950  -0.935  -0.576  -0.480
 -0.370  -0.357  -0.337  -0.323  -0.284  -0.190  -0.122  -0.033
 -- Virtual --
  0.177   0.178   0.237   0.255   0.261   0.263   0.277   0.309
  0.314   0.336   0.347   0.428   0.431   0.444   0.465   0.491
  0.508   0.520   0.524   0.542   0.572   0.653   0.701   0.710
  0.783   0.811   0.829   0.840   0.867   0.903   0.908   0.910
  0.990   1.017   1.055   1.084   1.128   1.264   1.274   1.304
  1.317   1.332   1.356   1.374   1.375   1.419   1.427   1.429
  1.473   1.508   1.565   1.630   1.685   1.795   1.813   1.846
  1.948   2.032   2.032   2.079   2.117   2.238   2.322   2.403
  2.507   2.733   2.744   2.770   2.866   2.920   2.936   2.987
  3.061   3.155   3.212   3.216   3.218   3.318   3.352   3.399
  3.442   3.534   3.556   3.616   3.638   3.651   3.669   3.737
  3.811   3.842   3.947   3.956   3.976   4.104   4.139   4.156
  4.370   4.431   4.473   4.488   4.500   4.769   4.919   4.934
  5.274   5.283   5.293   5.338   5.367   5.388   5.391   5.420
  5.579   5.690   5.773   5.792   5.801   5.804   6.097   6.167
  6.577   6.596   6.818   7.090   7.109   7.126   7.129   7.235
  7.276   7.284   7.463   7.522   7.703   7.739   7.888   7.958
 24.692  24.820  27.411  27.531  27.884  28.380  28.430  28.723
 41.049  41.146  41.196  41.250  41.296  41.302  41.373  41.377
 41.525  41.534  43.927  43.947  43.971  43.981  44.067  44.091
 44.095  44.138  44.217  44.239  45.930  45.935  46.037  46.074
 46.762  46.797  50.279  50.312
 
 Beta MOs
 -- Occupied --
-18.691 -18.691  -9.917  -9.917  -0.939  -0.924  -0.555  -0.473
 -0.366  -0.348  -0.316  -0.299  -0.238  -0.183  -0.115
 -- Virtual --
  0.177   0.178   0.237   0.239   0.256   0.271   0.277   0.280
  0.310   0.320   0.348   0.371   0.430   0.433   0.446   0.485
  0.497   0.510   0.522   0.526   0.544   0.573   0.662   0.704
  0.718   0.785   0.828   0.844   0.851   0.871   0.909   0.920
  0.925   1.006   1.023   1.058   1.089   1.139   1.272   1.282
  1.309   1.319   1.345   1.359   1.379   1.391   1.422   1.432
  1.444   1.476   1.522   1.571   1.634   1.688   1.800   1.823
  1.854   1.964   2.046   2.046   2.095   2.125   2.254   2.329
  2.420   2.509   2.737   2.749   2.777   2.882   2.923   2.948
  3.005   3.081   3.161   3.217   3.227   3.229   3.328   3.358
  3.416   3.455   3.544   3.569   3.628   3.644   3.667   3.677
  3.752   3.815   3.855   3.962   3.962   3.980   4.106   4.144
  4.161   4.383   4.435   4.480   4.493   4.504   4.772   4.923
  4.937   5.298   5.308   5.314   5.356   5.388   5.406   5.407
  5.426   5.588   5.699   5.791   5.806   5.816   5.818   6.101
  6.169   6.596   6.615   6.821   7.105   7.138   7.155   7.155
  7.240   7.291   7.293   7.490   7.549   7.708   7.745   7.900
  7.970  24.695  24.823  27.419  27.539  27.886  28.382  28.431
 28.724  41.056  41.153  41.198  41.251  41.302  41.307  41.378
 41.382  41.526  41.535  43.946  43.967  43.988  43.998  44.084
 44.096  44.108  44.139  44.222  44.245  45.950  45.956  46.041
 46.078  46.766  46.802  50.285  50.318
 --------------------------------------------------------------
 
          Ground-State Mulliken Net Atomic Charges

     Atom                 Charge (a.u.)    Spin (a.u.)
  --------------------------------------------------------
      1 C                    -0.075804       0.283086
      2 C                    -0.075807       0.283067
      3 O                    -0.437203       0.242326
      4 H                     0.013005      -0.025408
      5 O                    -0.437196       0.242331
      6 H                     0.013004      -0.025402
  --------------------------------------------------------
  Sum of atomic charges =    -1.000000
  Sum of spin   charges =     1.000000

 -----------------------------------------------------------------
                    Cartesian Multipole Moments
 -----------------------------------------------------------------
    Charge (ESU x 10^10)
                -4.8032
    Dipole Moment (Debye)
         X       0.0000      Y       0.0000      Z      -3.6624
       Tot       3.6624
    Quadrupole Moments (Debye-Ang)
        XX     -33.1737     XY       0.0009     YY     -26.1983
        XZ       8.7792     YZ       0.0004     ZZ     -39.7619
    Octapole Moments (Debye-Ang^2)
       XXX      -0.0002    XXY       0.0000    XYY       0.0000
       YYY       0.0000    XXZ     -25.2951    XYZ       0.0007
       YYZ     -19.9764    XZZ      13.3883    YZZ       0.0006
       ZZZ     -86.6973
    Hexadecapole Moments (Debye-Ang^3)
      XXXX    -135.5283   XXXY       0.0043   XXYY     -26.2616
      XYYY       0.0041   YYYY     -33.8101   XXXZ      55.2708
      XXYZ       0.0010   XYYZ      14.5027   YYYZ       0.0046
      XXZZ     -92.5145   XYZZ       0.0055   YYZZ     -58.9754
      XZZZ      82.4450   YZZZ       0.0018   ZZZZ    -392.4455
 -----------------------------------------------------------------
 Total job time:  82.42s(wall), 81.98s(cpu) 
 Sun Jul  7 09:42:26 2013

        *************************************************************
        *                                                           *
        *  Thank you very much for using Q-Chem.  Have a nice day.  *
        *                                                           *
        *************************************************************


0 sent ACK to 0 
now end server 0 ... 
 
**********************************************************************
Job 2 of 3 
**********************************************************************
 
Process 0 of 1 is on cl082.stfx.acenet.ca - thread support 1
initial socket setup ...start
initial socket setup ...done 
now start server 0 ... 

cmd = /usr/bin/ssh clhead /usr/local/qchem/bin/get_hostid 1074774994 > /scratch/tmp/6064073.1.short.q/qchem21615/lic.dat
                  Welcome to Q-Chem
     A Quantum Leap Into The Future Of Chemistry

 Y. Shao, L. Fusti-Molnar, Y. Jung, J. Kussmann, C. Ochsenfeld,
 S. T. Brown, A. T. B. Gilbert, L. V. Slipchenko,S. V. Levchenko,
 D. P. O'Neill, R. A. DiStasio Jr., R. C. Lochan, T. Wang,
 G. J. O. Beran, N. A. Besley, J. M. Herbert, C. Y. Lin,
 T. Van Voorhis, S. H. Chien, A. Sodt, R. P. Steele, 
 V. A. Rassolov, P. E. Maslen, P. P. Korambath, R. D. Adamson,
 B. Austin, J. Baker, E. F. C. Byrd, H. Dachsel, R. J. Doerksen,
 A. Dreuw, B. D. Dunietz, A. D. Dutoi, T. R. Furlani,
 S. R. Gwaltney, A. Heyden, S. Hirata, C.-P. Hsu, G. Kedziora,
 R. Z. Khaliullin, P. Klunzinger, A. M. Lee, M. S. Lee, W. Liang,
 I. Lotan, N. Nair, B. Peters, E. I. Proynov, P. A. Pieniazek, 
 Y. M. Rhee, J. Ritchie, E. Rosta, C. D. Sherrill, 
 A. C. Simmonett, J. E. Subotnik, H. L. Woodcock III,
 W. Zhang, A. T. Bell, A. K. Chakraborty, D. M. Chipman,
 F. J. Keil, A. Warshel, W. J. Hehre, H. F. Schaefer III,
 J. Kong, A. I. Krylov, P. M. W. Gill, M. Head-Gordon,
 Q-Chem, Version 3.1, Q-Chem, Inc., Pittsburgh, PA (2007).

 Additional authors for Version 3.1: 
 Z. Gan, Y. Zhao, N. E. Schultz, D. Truhlar, E. Epifanovsky and M. Oana.

 Additional authors for Version 3.2: 
 R. Baer, B. R. Brooks, D. Casanova, J.-D. Chai, C.-L. Cheng, 
 C. Cramer, D. Crittenden, A. Ghysels, G. Hawkins, E. G. Hohenstein, 
 C. Kelley, W. Kurlancheek, D. Liotard, E. Livshits, P. Manohar, 
 A. Marenich, D. Neuhauser, R. Olson, M. A. Rohrdanz, K. S. Thanthiriwatte, 
 A. J. W. Thom, V. Vanovschi, C. F. Williams, Q. Wu and Z.-Q. You. 


 Intel X86 Linux Version

 Q-chem begins on Sun Jul  7 09:42:29 2013  

 Parallel job on  1  processors
Processing $rem in /usr/local/qchem/config/preferences.

theFileMan(): MAXOPENFILES=974 MAX_SUB_FILE_NUM=16
Maximum size of a physical file is 2.0 GB, maximum size of a tmp-file is 32.0 GB


--------------------------------------------------------------
User input:
--------------------------------------------------------------

$molecule
0,1
C         -0.00239        0.00000        0.00366
C          0.00239        0.00000        1.52136
O          1.01667        0.00000       -0.61795
H         -1.00159        0.00000       -0.46287
O         -1.01667        0.00000        2.14296
H          1.00159        0.00000        1.98789
$end

$comment
neutral
$end

$xc_functional
C PBE   1.00
X wPBE  1.00
$end


$rem
SYMMETRY_DECOMPOSITION	0
LRC_DFT                 true
exchange 		general
BASIS                   g3large
omega			360
mem_static              760
max_scf_cycles          200
scf_final_print         1
sym_ignore              true
$end

--------------------------------------------------------------
 Writing REM_CC_EA            6
 ----------------------------------------------------
       Standard Nuclear Orientation (Angstroms)
    I     Atom         X            Y            Z
 ----------------------------------------------------
    1      C      -0.002390     0.000000     0.003660
    2      C       0.002390     0.000000     1.521360
    3      O       1.016670     0.000000    -0.617950
    4      H      -1.001590     0.000000    -0.462870
    5      O      -1.016670     0.000000     2.142960
    6      H       1.001590     0.000000     1.987890
 ----------------------------------------------------
 Nuclear Repulsion Energy =   102.6576218305 hartrees
 There are       15 alpha and       15 beta electrons
 Requested basis set is G3large
 There are 52 shells and 188 basis functions

Total QAlloc Memory Limit   2000 MB
Mega-Array Size       743 MB
MEM_STATIC part       760 MB

                       Distance Matrix (Angstroms)
             C (  1)   C (  2)   O (  3)   H (  4)   O (  5)
   C (  2)  1.517708
   O (  3)  1.193684  2.367575
   H (  4)  1.102747  2.223768  2.024209
   O (  5)  2.367566  1.193679  3.428862  2.605874
   H (  6)  2.223768  1.102747  2.605884  3.165273  2.024209
 
 A cutoff of  1.0D-08 yielded   1239 shell pairs
 There are  16161 function pairs ( 20529 Cartesian)
Evaluating contribution to one-electron hamiltonian from nuclear
 Smallest overlap matrix eigenvalue = 1.78E-04
 Multipole matrices computed through 2nd order

  Scale SEOQF with 1.000000e-01/1.000000e-01/1.000000e-01

 Standard Electronic Orientation quadrupole field applied
 Nucleus-field energy     =    -0.0000000055 hartrees
 Guess from superposition of atomic densities
 Warning:  Energy on first SCF cycle will be non-variational
 Long-range K will be added via erf
 Coulomb attenuation parameter = 0.36 bohr**(-1)
 A restricted Kohn-Sham SCF calculation will be
 performed using Pulay DIIS extrapolation
 Exchange:  wPBE + LR-HF      Correlation:  PBE
 Using SG-1 standard quadrature grid
 SCF converges when DIIS error is below 1.0E-05
 Requested basis set is G3large
 There are 52 shells and 188 basis functions
 A cutoff of  1.0D-08 yielded   1239 shell pairs
 There are  16161 function pairs ( 20529 Cartesian)
 ---------------------------------------
  Cycle       Energy         DIIS Error
 ---------------------------------------
    1    -228.7396947978      3.72E-02
    2    -227.5197072732      7.47E-03
    3    -227.3535172117      1.12E-02
    4    -227.7233532025      4.72E-04
    5    -227.7249347116      1.65E-04
    6    -227.7251574813      3.84E-05
    7    -227.7251917172      1.04E-05
    8    -227.7251902367      3.03E-06 Convergence criterion met
 ---------------------------------------
 One-Electron    Energy =  -513.4685722714
 Total Coulomb   Energy =   211.6406311597
 Alpha Exchange  Energy =    -2.7839686485
 Beta  Exchange  Energy =    -2.7839686485
 DFT   Exchange  Energy =   -21.9939274288
 DFT Correlation Energy =    -0.9930062242
 Nuclear Repu.   Energy =   102.6576218250
 Nuclear Attr.   Energy =  -740.5921014765
 Kinetic         Energy =   227.1235292051
 SCF time:  CPU 64.86 s  wall 65.25 s
 Final Alpha MO Eigenvalues
            1           2           3           4           5           6
    1 -18.9846628 -18.9846569 -10.2014890 -10.2013758  -1.2195846  -1.2038251
            7           8           9          10          11          12
    1  -0.8410936  -0.7346784  -0.6318044  -0.6163075  -0.5859892  -0.5806822
           13          14          15          16          17          18
    1  -0.5241247  -0.4509826  -0.3813264  -0.0299614   0.0465220   0.0511827
           19          20
    1   0.0876746   0.0907905
 Analysis of SCF Wavefunction
 
 --------------------------------------------------------------
                    Orbital Energies (a.u.)
 --------------------------------------------------------------
 
 Alpha MOs
 -- Occupied --
-18.985 -18.985 -10.201 -10.201  -1.220  -1.204  -0.841  -0.735
 -0.632  -0.616  -0.586  -0.581  -0.524  -0.451  -0.381
 -- Virtual --
 -0.030   0.047   0.051   0.088   0.091   0.100   0.115   0.133
  0.147   0.152   0.166   0.191   0.241   0.244   0.260   0.280
  0.319   0.324   0.338   0.345   0.369   0.386   0.411   0.484
  0.488   0.568   0.588   0.603   0.622   0.657   0.669   0.675
  0.683   0.755   0.802   0.823   0.841   0.889   1.018   1.048
  1.076   1.096   1.098   1.136   1.154   1.156   1.189   1.195
  1.210   1.237   1.263   1.327   1.393   1.455   1.568   1.577
  1.603   1.699   1.785   1.789   1.833   1.860   1.984   2.075
  2.154   2.262   2.489   2.496   2.521   2.596   2.672   2.678
  2.723   2.792   2.895   2.942   2.952   2.954   3.061   3.089
  3.131   3.183   3.273   3.293   3.352   3.375   3.381   3.414
  3.471   3.553   3.577   3.682   3.697   3.716   3.841   3.877
  3.893   4.101   4.181   4.221   4.224   4.233   4.507   4.657
  4.676   5.014   5.023   5.034   5.076   5.106   5.127   5.130
  5.157   5.316   5.429   5.509   5.529   5.535   5.539   5.835
  5.906   6.308   6.328   6.548   6.825   6.845   6.863   6.865
  6.965   7.013   7.016   7.200   7.259   7.438   7.473   7.623
  7.693  24.413  24.539  27.131  27.251  27.602  28.100  28.149
 28.442  40.768  40.865  40.915  40.968  41.015  41.020  41.091
 41.095  41.244  41.252  43.646  43.666  43.689  43.699  43.784
 43.808  43.810  43.853  43.933  43.955  45.648  45.653  45.753
 45.789  46.476  46.512  49.994  50.027
 --------------------------------------------------------------
 
          Ground-State Mulliken Net Atomic Charges

     Atom                 Charge (a.u.)
  ----------------------------------------
      1 C                     0.099283
      2 C                     0.099286
      3 O                    -0.218929
      4 H                     0.119646
      5 O                    -0.218932
      6 H                     0.119646
  ----------------------------------------
  Sum of atomic charges =     0.000000

 -----------------------------------------------------------------
                    Cartesian Multipole Moments
 -----------------------------------------------------------------
    Charge (ESU x 10^10)
                 0.0000
    Dipole Moment (Debye)
         X       0.0000      Y       0.0000      Z       0.0000
       Tot       0.0000
    Quadrupole Moments (Debye-Ang)
        XX     -25.5439     XY      -0.0005     YY     -21.2842
        XZ       6.0067     YZ      -0.0002     ZZ     -26.3826
    Octapole Moments (Debye-Ang^2)
       XXX       0.0000    XXY       0.0000    XYY       0.0000
       YYY       0.0000    XXZ     -19.4774    XYZ      -0.0004
       YYZ     -16.2293    XZZ       9.1603    YZZ      -0.0004
       ZZZ     -60.3507
    Hexadecapole Moments (Debye-Ang^3)
      XXXX    -105.0056   XXXY      -0.0017   XXYY     -19.4236
      XYYY      -0.0004   YYYY     -18.5934   XXXZ      48.2141
      XXYZ       0.0004   XYYZ      12.9505   YYYZ      -0.0004
      XXZZ     -68.4782   XYZZ      -0.0007   YYZZ     -47.0357
      XZZZ      65.0695   YZZZ      -0.0019   ZZZZ    -303.0214
 -----------------------------------------------------------------
 Total job time:  65.46s(wall), 65.05s(cpu) 
 Sun Jul  7 09:43:35 2013

        *************************************************************
        *                                                           *
        *  Thank you very much for using Q-Chem.  Have a nice day.  *
        *                                                           *
        *************************************************************


0 sent ACK to 0 
now end server 0 ... 
 
**********************************************************************
Job 3 of 3 
**********************************************************************
 
Process 0 of 1 is on cl082.stfx.acenet.ca - thread support 1
initial socket setup ...start
initial socket setup ...done 
now start server 0 ... 

cmd = /usr/bin/ssh clhead /usr/local/qchem/bin/get_hostid 1867427389 > /scratch/tmp/6064073.1.short.q/qchem21615/lic.dat
                  Welcome to Q-Chem
     A Quantum Leap Into The Future Of Chemistry

 Y. Shao, L. Fusti-Molnar, Y. Jung, J. Kussmann, C. Ochsenfeld,
 S. T. Brown, A. T. B. Gilbert, L. V. Slipchenko,S. V. Levchenko,
 D. P. O'Neill, R. A. DiStasio Jr., R. C. Lochan, T. Wang,
 G. J. O. Beran, N. A. Besley, J. M. Herbert, C. Y. Lin,
 T. Van Voorhis, S. H. Chien, A. Sodt, R. P. Steele, 
 V. A. Rassolov, P. E. Maslen, P. P. Korambath, R. D. Adamson,
 B. Austin, J. Baker, E. F. C. Byrd, H. Dachsel, R. J. Doerksen,
 A. Dreuw, B. D. Dunietz, A. D. Dutoi, T. R. Furlani,
 S. R. Gwaltney, A. Heyden, S. Hirata, C.-P. Hsu, G. Kedziora,
 R. Z. Khaliullin, P. Klunzinger, A. M. Lee, M. S. Lee, W. Liang,
 I. Lotan, N. Nair, B. Peters, E. I. Proynov, P. A. Pieniazek, 
 Y. M. Rhee, J. Ritchie, E. Rosta, C. D. Sherrill, 
 A. C. Simmonett, J. E. Subotnik, H. L. Woodcock III,
 W. Zhang, A. T. Bell, A. K. Chakraborty, D. M. Chipman,
 F. J. Keil, A. Warshel, W. J. Hehre, H. F. Schaefer III,
 J. Kong, A. I. Krylov, P. M. W. Gill, M. Head-Gordon,
 Q-Chem, Version 3.1, Q-Chem, Inc., Pittsburgh, PA (2007).

 Additional authors for Version 3.1: 
 Z. Gan, Y. Zhao, N. E. Schultz, D. Truhlar, E. Epifanovsky and M. Oana.

 Additional authors for Version 3.2: 
 R. Baer, B. R. Brooks, D. Casanova, J.-D. Chai, C.-L. Cheng, 
 C. Cramer, D. Crittenden, A. Ghysels, G. Hawkins, E. G. Hohenstein, 
 C. Kelley, W. Kurlancheek, D. Liotard, E. Livshits, P. Manohar, 
 A. Marenich, D. Neuhauser, R. Olson, M. A. Rohrdanz, K. S. Thanthiriwatte, 
 A. J. W. Thom, V. Vanovschi, C. F. Williams, Q. Wu and Z.-Q. You. 


 Intel X86 Linux Version

 Q-chem begins on Sun Jul  7 09:43:38 2013  

 Parallel job on  1  processors
Processing $rem in /usr/local/qchem/config/preferences.

theFileMan(): MAXOPENFILES=974 MAX_SUB_FILE_NUM=16
Maximum size of a physical file is 2.0 GB, maximum size of a tmp-file is 32.0 GB


--------------------------------------------------------------
User input:
--------------------------------------------------------------

$molecule
1,2
C         -0.00239        0.00000        0.00366
C          0.00239        0.00000        1.52136
O          1.01667        0.00000       -0.61795
H         -1.00159        0.00000       -0.46287
O         -1.01667        0.00000        2.14296
H          1.00159        0.00000        1.98789
$end

$comment
positive
$end

$xc_functional
C PBE   1.00
X wPBE  1.00
$end

$rem
SYMMETRY_DECOMPOSITION	0
LRC_DFT                 true
exchange 		general
BASIS                   g3large
omega			360
mem_static              760
max_scf_cycles          200
scf_final_print         1
sym_ignore              true
$end

--------------------------------------------------------------
 Writing REM_CC_EA            6
 ----------------------------------------------------
       Standard Nuclear Orientation (Angstroms)
    I     Atom         X            Y            Z
 ----------------------------------------------------
    1      C      -0.002390     0.000000     0.003660
    2      C       0.002390     0.000000     1.521360
    3      O       1.016670     0.000000    -0.617950
    4      H      -1.001590     0.000000    -0.462870
    5      O      -1.016670     0.000000     2.142960
    6      H       1.001590     0.000000     1.987890
 ----------------------------------------------------
 Nuclear Repulsion Energy =   102.6576218305 hartrees
 There are       15 alpha and       14 beta electrons
 Requested basis set is G3large
 There are 52 shells and 188 basis functions

Total QAlloc Memory Limit   2000 MB
Mega-Array Size       743 MB
MEM_STATIC part       760 MB

                       Distance Matrix (Angstroms)
             C (  1)   C (  2)   O (  3)   H (  4)   O (  5)
   C (  2)  1.517708
   O (  3)  1.193684  2.367575
   H (  4)  1.102747  2.223768  2.024209
   O (  5)  2.367566  1.193679  3.428862  2.605874
   H (  6)  2.223768  1.102747  2.605884  3.165273  2.024209
 
 A cutoff of  1.0D-08 yielded   1239 shell pairs
 There are  16161 function pairs ( 20529 Cartesian)
Evaluating contribution to one-electron hamiltonian from nuclear
 Smallest overlap matrix eigenvalue = 1.78E-04
 Multipole matrices computed through 2nd order

  Scale SEOQF with 1.000000e-01/1.000000e-01/1.000000e-01

 Standard Electronic Orientation quadrupole field applied
 Nucleus-field energy     =    -0.0000000055 hartrees
 Guess from superposition of atomic densities
 Warning:  Energy on first SCF cycle will be non-variational
 Long-range K will be added via erf
 Coulomb attenuation parameter = 0.36 bohr**(-1)
 An unrestricted Kohn-Sham SCF calculation will be
 performed using Pulay DIIS extrapolation
 Exchange:  wPBE + LR-HF      Correlation:  PBE
 Using SG-1 standard quadrature grid
 SCF converges when DIIS error is below 1.0E-05
 Requested basis set is G3large
 There are 52 shells and 188 basis functions
 A cutoff of  1.0D-08 yielded   1239 shell pairs
 There are  16161 function pairs ( 20529 Cartesian)
 Warning!  Inaccurate integrated density:
   Number of electrons =    29
   Numerical integral  =    29.999861636644
   Relative error      =     3.4477987470 %
 ---------------------------------------
  Cycle       Energy         DIIS Error
 ---------------------------------------
    1    -228.7396947978      3.72E-02
    2    -227.1209627619      6.78E-03
    3    -226.9458813235      1.10E-02
    4    -227.3296103822      7.46E-04
    5    -227.3322216338      2.44E-04
    6    -227.3327585890      5.86E-05
    7    -227.3328843888      1.93E-05
    8    -227.3329023146      8.10E-06 Convergence criterion met
 ---------------------------------------
 One-Electron    Energy =  -504.6604411669
 Total Coulomb   Energy =   202.8125990278
 Alpha Exchange  Energy =    -2.7990840829
 Beta  Exchange  Energy =    -2.5823353869
 DFT   Exchange  Energy =   -21.8039569996
 DFT Correlation Energy =    -0.9573055310
 Nuclear Repu.   Energy =   102.6576218250
 Nuclear Attr.   Energy =  -731.3547790455
 Kinetic         Energy =   226.6943378785
 <S^2> = 0.7588
 SCF time:  CPU 81.51 s  wall 81.78 s
 Final Alpha MO Eigenvalues
            1           2           3           4           5           6
    1 -19.3121875 -19.3120566 -10.4994467 -10.4993294  -1.5247633  -1.5096177
            7           8           9          10          11          12
    1  -1.1455259  -1.0204118  -0.9305943  -0.9110823  -0.8722293  -0.8718149
           13          14          15          16          17          18
    1  -0.8143667  -0.7671945  -0.6959160  -0.3115776  -0.1690051  -0.1053561
           19          20
    1  -0.1019503  -0.0755732
 Final Beta MO Eigenvalues
            1           2           3           4           5           6
    1 -19.3029832 -19.3028525 -10.4988045 -10.4986808  -1.5098633  -1.4937340
            7           8           9          10          11          12
    1  -1.1243916  -0.9994672  -0.9038819  -0.8945668  -0.8663409  -0.8574992
           13          14          15          16          17          18
    1  -0.8058562  -0.6796507  -0.4041188  -0.3046975  -0.1675212  -0.1041188
           19
    1  -0.0981205
 Analysis of SCF Wavefunction
 
 --------------------------------------------------------------
                    Orbital Energies (a.u.)
 --------------------------------------------------------------
 
 Alpha MOs
 -- Occupied --
-19.312 -19.312 -10.499 -10.499  -1.525  -1.510  -1.146  -1.020
 -0.931  -0.911  -0.872  -0.872  -0.814  -0.767  -0.696
 -- Virtual --
 -0.312  -0.169  -0.105  -0.102  -0.076  -0.065  -0.049  -0.022
 -0.018  -0.003   0.003   0.036   0.038   0.047   0.066   0.086
  0.102   0.144   0.145   0.153   0.180   0.182   0.204   0.262
  0.270   0.338   0.356   0.365   0.386   0.411   0.433   0.439
  0.443   0.509   0.576   0.588   0.589   0.635   0.754   0.803
  0.827   0.846   0.858   0.901   0.916   0.917   0.936   0.948
  0.969   0.987   1.001   1.062   1.133   1.208   1.319   1.321
  1.336   1.418   1.510   1.521   1.554   1.572   1.712   1.800
  1.886   1.985   2.219   2.225   2.247   2.305   2.396   2.398
  2.447   2.512   2.608   2.654   2.674   2.675   2.782   2.805
  2.849   2.903   2.993   3.010   3.070   3.089   3.097   3.132
  3.188   3.268   3.295   3.400   3.414   3.431   3.549   3.587
  3.605   3.810   3.898   3.931   3.937   3.941   4.216   4.361
  4.380   4.718   4.721   4.723   4.772   4.800   4.816   4.825
  4.832   5.009   5.136   5.217   5.229   5.236   5.242   5.529
  5.601   6.013   6.034   6.233   6.512   6.520   6.537   6.539
  6.666   6.697   6.717   6.903   6.962   7.121   7.152   7.321
  7.390  24.117  24.242  26.835  26.955  27.301  27.803  27.853
 28.144  40.469  40.567  40.617  40.669  40.716  40.721  40.794
 40.798  40.944  40.953  43.312  43.333  43.355  43.364  43.465
 43.476  43.489  43.518  43.606  43.628  45.325  45.331  45.414
 45.451  46.154  46.189  49.669  49.702
 
 Beta MOs
 -- Occupied --
-19.303 -19.303 -10.499 -10.499  -1.510  -1.494  -1.124  -0.999
 -0.904  -0.895  -0.866  -0.857  -0.806  -0.680
 -- Virtual --
 -0.404  -0.305  -0.168  -0.104  -0.098  -0.074  -0.065  -0.046
 -0.020  -0.018  -0.003   0.010   0.039   0.040   0.054   0.068
  0.087   0.116   0.145   0.149   0.158   0.184   0.191   0.206
  0.266   0.275   0.350   0.358   0.366   0.392   0.415   0.437
  0.446   0.448   0.508   0.579   0.590   0.590   0.640   0.758
  0.811   0.836   0.848   0.865   0.907   0.922   0.927   0.947
  0.953   0.983   0.996   1.006   1.075   1.144   1.216   1.327
  1.329   1.347   1.437   1.525   1.532   1.572   1.587   1.715
  1.813   1.889   2.000   2.228   2.234   2.257   2.315   2.408
  2.408   2.446   2.515   2.622   2.661   2.675   2.680   2.787
  2.813   2.848   2.906   2.999   3.016   3.073   3.094   3.096
  3.141   3.190   3.280   3.296   3.401   3.420   3.438   3.557
  3.599   3.612   3.817   3.917   3.942   3.950   3.956   4.228
  4.379   4.400   4.728   4.736   4.755   4.796   4.825   4.845
  4.850   4.874   5.034   5.151   5.227   5.246   5.253   5.254
  5.552   5.623   6.017   6.038   6.255   6.537   6.560   6.577
  6.579   6.674   6.726   6.728   6.911   6.970   7.154   7.188
  7.335   7.404  24.118  24.243  26.835  26.954  27.305  27.804
 27.852  28.147  40.471  40.568  40.618  40.671  40.718  40.723
 40.793  40.798  40.947  40.955  43.334  43.354  43.378  43.388
 43.468  43.492  43.497  43.541  43.618  43.641  45.332  45.338
 45.441  45.477  46.160  46.196  49.678  49.711
 --------------------------------------------------------------
 
          Ground-State Mulliken Net Atomic Charges

     Atom                 Charge (a.u.)    Spin (a.u.)
  --------------------------------------------------------
      1 C                     0.179029       0.027387
      2 C                     0.179140       0.027393
      3 O                     0.084466       0.382685
      4 H                     0.236559       0.089978
      5 O                     0.084248       0.382587
      6 H                     0.236557       0.089969
  --------------------------------------------------------
  Sum of atomic charges =     1.000000
  Sum of spin   charges =     1.000000

 -----------------------------------------------------------------
                    Cartesian Multipole Moments
 -----------------------------------------------------------------
    Charge (ESU x 10^10)
                 4.8032
    Dipole Moment (Debye)
         X       0.0010      Y       0.0000      Z       3.6615
       Tot       3.6615
    Quadrupole Moments (Debye-Ang)
        XX     -17.9075     XY       0.0014     YY     -19.1501
        XZ       3.4408     YZ       0.0045     ZZ     -12.3271
    Octapole Moments (Debye-Ang^2)
       XXX       0.0010    XXY       0.0000    XYY       0.0000
       YYY       0.0000    XXZ     -13.6560    XYZ       0.0011
       YYZ     -14.6020    XZZ       5.2486    YZZ       0.0068
       ZZZ     -32.4579
    Hexadecapole Moments (Debye-Ang^3)
      XXXX     -80.4240   XXXY       0.0104   XXYY     -16.1279
      XYYY       0.0006   YYYY     -14.8295   XXXZ      41.8980
      XXYZ      -0.0035   XYYZ      11.8930   YYYZ       0.0025
      XXZZ     -47.6686   XYZZ      -0.0097   YYZZ     -41.0159
      XZZZ      48.6825   YZZZ       0.0341   ZZZZ    -212.6680
 -----------------------------------------------------------------
 Total job time:  81.99s(wall), 81.71s(cpu) 
 Sun Jul  7 09:45:00 2013

        *************************************************************
        *                                                           *
        *  Thank you very much for using Q-Chem.  Have a nice day.  *
        *                                                           *
        *************************************************************


0 sent ACK to 0 
now end server 0 ... 
