Process 0 of 1 is on cl044.stfx.acenet.ca - thread support 1
initial socket setup ...start
initial socket setup ...done 
now start server 0 ... 

cmd = /usr/bin/ssh clhead /usr/local/qchem/bin/get_hostid 571558610 > /scratch/tmp/6060352.1.short.q/qchem2243/lic.dat
                  Welcome to Q-Chem
     A Quantum Leap Into The Future Of Chemistry

 Y. Shao, L. Fusti-Molnar, Y. Jung, J. Kussmann, C. Ochsenfeld,
 S. T. Brown, A. T. B. Gilbert, L. V. Slipchenko,S. V. Levchenko,
 D. P. O'Neill, R. A. DiStasio Jr., R. C. Lochan, T. Wang,
 G. J. O. Beran, N. A. Besley, J. M. Herbert, C. Y. Lin,
 T. Van Voorhis, S. H. Chien, A. Sodt, R. P. Steele, 
 V. A. Rassolov, P. E. Maslen, P. P. Korambath, R. D. Adamson,
 B. Austin, J. Baker, E. F. C. Byrd, H. Dachsel, R. J. Doerksen,
 A. Dreuw, B. D. Dunietz, A. D. Dutoi, T. R. Furlani,
 S. R. Gwaltney, A. Heyden, S. Hirata, C.-P. Hsu, G. Kedziora,
 R. Z. Khaliullin, P. Klunzinger, A. M. Lee, M. S. Lee, W. Liang,
 I. Lotan, N. Nair, B. Peters, E. I. Proynov, P. A. Pieniazek, 
 Y. M. Rhee, J. Ritchie, E. Rosta, C. D. Sherrill, 
 A. C. Simmonett, J. E. Subotnik, H. L. Woodcock III,
 W. Zhang, A. T. Bell, A. K. Chakraborty, D. M. Chipman,
 F. J. Keil, A. Warshel, W. J. Hehre, H. F. Schaefer III,
 J. Kong, A. I. Krylov, P. M. W. Gill, M. Head-Gordon,
 Q-Chem, Version 3.1, Q-Chem, Inc., Pittsburgh, PA (2007).

 Additional authors for Version 3.1: 
 Z. Gan, Y. Zhao, N. E. Schultz, D. Truhlar, E. Epifanovsky and M. Oana.

 Additional authors for Version 3.2: 
 R. Baer, B. R. Brooks, D. Casanova, J.-D. Chai, C.-L. Cheng, 
 C. Cramer, D. Crittenden, A. Ghysels, G. Hawkins, E. G. Hohenstein, 
 C. Kelley, W. Kurlancheek, D. Liotard, E. Livshits, P. Manohar, 
 A. Marenich, D. Neuhauser, R. Olson, M. A. Rohrdanz, K. S. Thanthiriwatte, 
 A. J. W. Thom, V. Vanovschi, C. F. Williams, Q. Wu and Z.-Q. You. 


 Intel X86 Linux Version

 Q-chem begins on Wed Jul  3 20:14:05 2013  

 Parallel job on  1  processors
Processing $rem in /usr/local/qchem/config/preferences.

theFileMan(): MAXOPENFILES=974 MAX_SUB_FILE_NUM=16
Maximum size of a physical file is 2.0 GB, maximum size of a tmp-file is 32.0 GB


--------------------------------------------------------------
User input:
--------------------------------------------------------------

$molecule
0,1
C
N,1,AB
X,1,1.,2,90.
H,1,AH,3,90.,2,180.,0

AB=1.15705957
AH=1.07039626

$end

$comment
neutral
$end

$xc_functional
C PBE   1.00
X wPBE  1.00
$end


$rem
SYMMETRY_DECOMPOSITION	0
LRC_DFT                 true
exchange 		general
BASIS                   g3large
omega			450 
JOBTYPE                 opt
mem_static              760
max_scf_cycles          200
scf_final_print         1
sym_ignore              true
$end


--------------------------------------------------------------
 Writing REM_CC_EA            3
 ----------------------------------------------------
       Standard Nuclear Orientation (Angstroms)
    I     Atom         X            Y            Z
 ----------------------------------------------------
    1      C       0.000000     0.000000     0.000000
    2      N       0.000000     0.000000     1.157060
    3      H       0.000000     0.000000    -1.070396
 ----------------------------------------------------
 Nuclear Repulsion Energy =    23.8377974001 hartrees
 There are        7 alpha and        7 beta electrons
 Requested basis set is G3large
 There are 26 shells and 94 basis functions

Total QAlloc Memory Limit   2000 MB
Mega-Array Size       743 MB
MEM_STATIC part       760 MB
 A cutoff of  1.0D-11 yielded    347 shell pairs
 There are   4563 function pairs (  5830 Cartesian)
Evaluating contribution to one-electron hamiltonian from nuclear
 Smallest overlap matrix eigenvalue = 5.14E-04
 Multipole matrices computed through 2nd order

  Scale SEOQF with 1.000000e-01/1.000000e-01/1.000000e-01

 Standard Electronic Orientation quadrupole field applied
 Nucleus-field energy     =    -0.0000000011 hartrees
 Guess from superposition of atomic densities
 Warning:  Energy on first SCF cycle will be non-variational
 Long-range K will be added via erf
 Coulomb attenuation parameter = 0.45 bohr**(-1)
 A restricted Kohn-Sham SCF calculation will be
 performed using Pulay DIIS extrapolation
 Exchange:  wPBE + LR-HF      Correlation:  PBE
 Using SG-1 standard quadrature grid
 SCF converges when DIIS error is below 1.0E-08
 Requested basis set is G3large
 There are 26 shells and 94 basis functions
 A cutoff of  1.0D-11 yielded    347 shell pairs
 There are   4563 function pairs (  5830 Cartesian)
 ---------------------------------------
  Cycle       Energy         DIIS Error
 ---------------------------------------
    1     -93.5004281632      4.46E-02
    2     -93.3118818755      7.10E-03
    3     -93.2918617772      9.64E-03
    4     -93.3737643141      6.26E-04
    5     -93.3750982929      2.95E-04
    6     -93.3754842275      1.15E-04
    7     -93.3755534694      2.85E-05
    8     -93.3755586288      5.62E-06
    9     -93.3755587401      1.19E-06
   10     -93.3755587414      1.60E-07
   11     -93.3755587642      2.41E-08
   12     -93.3755587401      4.44E-09 Convergence criterion met
 ---------------------------------------
 One-Electron    Energy =  -172.7593042579
 Total Coulomb   Energy =    68.0703312905
 Alpha Exchange  Energy =    -1.5376537557
 Beta  Exchange  Energy =    -1.5376537557
 DFT   Exchange  Energy =    -9.0079975977
 DFT Correlation Energy =    -0.4410780625
 Nuclear Repu.   Energy =    23.8377973990
 Nuclear Attr.   Energy =  -265.7439725813
 Kinetic         Energy =    92.9846683234
 SCF time:  CPU 19.47 s  wall 20.43 s
 Final Alpha MO Eigenvalues
            1           2           3           4           5           6
    1 -14.2533243 -10.1900066  -1.0852315  -0.7587797  -0.5272878  -0.5016542
            7           8           9          10          11          12
    1  -0.5016542   0.0350218   0.0755538   0.0755538   0.0830792   0.1364916
 Analysis of SCF Wavefunction
 
 --------------------------------------------------------------
                    Orbital Energies (a.u.)
 --------------------------------------------------------------
 
 Alpha MOs
 -- Occupied --
-14.253 -10.190  -1.085  -0.759  -0.527  -0.502  -0.502
 -- Virtual --
  0.035   0.076   0.076   0.083   0.136   0.136   0.163   0.189
  0.249   0.249   0.262   0.323   0.469   0.626   0.626   0.666
  0.732   0.732   0.773   0.793   0.793   0.857   0.926   0.926
  1.034   1.272   1.286   1.286   1.291   1.291   1.541   1.859
  1.859   1.903   2.136   2.561   2.806   2.806   2.877   2.877
  2.932   2.932   3.006   3.006   3.110   3.330   3.330   3.369
  3.369   3.504   3.774   3.774   3.882   3.882   4.315   4.393
  4.393   4.421   4.474   4.474   4.904   4.904   5.215   5.215
  5.297   6.029   6.029   6.292   7.244  24.362  27.288  27.288
 28.748  36.051  37.517  37.517  38.292  40.465  40.576  40.644
 40.676  40.676  40.838  41.100  41.288  41.288  41.570
 --------------------------------------------------------------
 
          Ground-State Mulliken Net Atomic Charges

     Atom                 Charge (a.u.)
  ----------------------------------------
      1 C                     0.043860
      2 N                    -0.198618
      3 H                     0.154759
  ----------------------------------------
  Sum of atomic charges =     0.000000

 -----------------------------------------------------------------
                    Cartesian Multipole Moments
 -----------------------------------------------------------------
    Charge (ESU x 10^10)
                 0.0000
    Dipole Moment (Debye)
         X       0.0000      Y       0.0000      Z      -3.1494
       Tot       3.1494
    Quadrupole Moments (Debye-Ang)
        XX     -11.7538     XY       0.0000     YY     -11.7538
        XZ       0.0000     YZ       0.0000     ZZ     -12.7696
    Octapole Moments (Debye-Ang^2)
       XXX       0.0000    XXY       0.0000    XYY       0.0000
       YYY       0.0000    XXZ      -6.2748    XYZ       0.0000
       YYZ      -6.2748    XZZ       0.0000    YZZ       0.0000
       ZZZ     -24.9010
    Hexadecapole Moments (Debye-Ang^3)
      XXXX     -11.9352   XXXY       0.0000   XXYY      -3.9784
      XYYY       0.0000   YYYY     -11.9352   XXXZ       0.0000
      XXYZ       0.0000   XYYZ       0.0000   YYYZ       0.0000
      XXZZ     -12.5614   XYZZ       0.0000   YYZZ     -12.5614
      XZZZ       0.0000   YZZZ       0.0000   ZZZZ     -68.0687
 -----------------------------------------------------------------
 Calculating analytic gradient of the SCF energy
 Gradient of AOints
            1           2           3
    1  -0.0000000  -0.0000001   0.0000001
    2   0.0000000   0.0000001  -0.0000001
    3   9.4335596 -12.7379582   3.3043986
 Gradient of XC Energy
            1           2           3
    1  -0.0000000   0.0000000  -0.0000000
    2   0.0000000  -0.0000000   0.0000000
    3  -0.3151638   0.5010296  -0.1858658
 Gradient of SCF Energy
            1           2           3
    1  -0.0000000   0.0000000  -0.0000000
    2   0.0000000  -0.0000000   0.0000000
    3  -0.0462775   0.0482237  -0.0019461
 Max gradient component =       4.822E-02
 RMS gradient           =       2.229E-02
 Gradient time:  CPU 6.05 s  wall 6.24 s
 Geometry Optimization Parameters
   NAtoms,    NIC,     NZ,  NCons,   NDum,   NFix, NCnnct, MaxDiis
        3       9       4       0       0       0       0       0


** GEOMETRY OPTIMIZATION IN DELOCALIZED INTERNAL COORDINATES **
   Searching for a Minimum

   Optimization Cycle:   1

                       Coordinates (Angstroms)
     ATOM              X           Y           Z
    1  C           0.000000    0.000000    0.000000
    2  N           0.000000    0.000000    1.157060
    3  H           0.000000    0.000000   -1.070396
   Point Group: c1    Number of degrees of freedom:   3


   Energy is    -93.375558740


 Attempting to Generate Delocalized Internal Coordinates

  ***ERROR*** Angle     2    1    3   is near-linear
              But No atom available to define colinear bend
**WARNING** Problems with Internal Coordinates
  Switching to Cartesian Coordinates

 Translations and Rotations Projected Out of Hessian

  4 Hessian modes will be used to form the next step
  Hessian Eigenvalues:
     1.000000    1.000000    1.000000    1.000000

 Minimum Search - Taking Simple RFO Step
 Searching for Lamda that Minimizes Along All modes
 Value Taken    Lamda =  -0.00445102
 Step Taken.  Stepsize is  0.066569

                             Maximum     Tolerance    Cnvgd?
         Gradient           0.048224      0.000300      NO
         Displacement       0.048010      0.001200      NO
         Energy change     *********      0.000001      NO

 Writing REM_CC_EA            3
 ----------------------------------------------------
       Standard Nuclear Orientation (Angstroms)
    I     Atom         X            Y            Z
 ----------------------------------------------------
    1      C       0.000000     0.000000     0.024381
    2      N       0.000000     0.000000     1.131654
    3      H       0.000000     0.000000    -1.069371
 ----------------------------------------------------
 Nuclear Repulsion Energy =    24.6581015735 hartrees
 There are        7 alpha and        7 beta electrons
 Applying Cartesian multipole field
    Component          Value
    ---------          -----
     (2,0,0)        1.00000E-11
     (0,2,0)        2.00000E-11
     (0,0,2)       -3.00000E-11
 Nucleus-field energy     =    -0.0000000011 hartrees
 Requested basis set is G3large
 There are 26 shells and 94 basis functions
 A cutoff of  1.0D-11 yielded    349 shell pairs
 There are   4603 function pairs (  5884 Cartesian)
Evaluating contribution to one-electron hamiltonian from nuclear
 Smallest overlap matrix eigenvalue = 4.33E-04
 Multipole matrices computed through 2nd order
 Guess MOs from SCF MO coefficient file
Reading MOs from coefficient file
Reading MOs from coefficient file
 Long-range K will be added via erf
 Coulomb attenuation parameter = 0.45 bohr**(-1)
 A restricted Kohn-Sham SCF calculation will be
 performed using Pulay DIIS extrapolation
 Exchange:  wPBE + LR-HF      Correlation:  PBE
 Using SG-1 standard quadrature grid
 SCF converges when DIIS error is below 1.0E-08
 Requested basis set is G3large
 There are 26 shells and 94 basis functions
 A cutoff of  1.0D-11 yielded    349 shell pairs
 There are   4603 function pairs (  5884 Cartesian)
 Warning!  Inaccurate integrated density:
   Number of electrons =    14
   Numerical integral  =    14.046368795470
   Relative error      =     0.3312056819 %
 ---------------------------------------
  Cycle       Energy         DIIS Error
 ---------------------------------------
    1     -93.3588667872      4.81E-03
    2     -93.3732460056      4.65E-04
    3     -93.3734365201      2.04E-04
    4     -93.3734647219      4.22E-05
    5     -93.3734656920      3.28E-05
    6     -93.3734666620      6.60E-06
    7     -93.3734667198      5.83E-07
    8     -93.3734667207      7.51E-08
    9     -93.3734667199      1.05E-08
   10     -93.3734667173      1.25E-09 Convergence criterion met
 ---------------------------------------
 One-Electron    Energy =  -174.3831604008
 Total Coulomb   Energy =    68.9286554517
 Alpha Exchange  Energy =    -1.5420398133
 Beta  Exchange  Energy =    -1.5420398133
 DFT   Exchange  Energy =    -9.0499218321
 DFT Correlation Energy =    -0.4430618819
 Nuclear Repu.   Energy =    24.6581015724
 Nuclear Attr.   Energy =  -267.6084991075
 Kinetic         Energy =    93.2253387066
 SCF time:  CPU 16.24 s  wall 16.95 s
 Final Alpha MO Eigenvalues
            1           2           3           4           5           6
    1 -14.2373628 -10.1756806  -1.1006832  -0.7465370  -0.5228489  -0.5138494
            7           8           9          10          11          12
    1  -0.5138494   0.0351409   0.0807975   0.0807975   0.0829492   0.1472898
 Analysis of SCF Wavefunction
 
 --------------------------------------------------------------
                    Orbital Energies (a.u.)
 --------------------------------------------------------------
 
 Alpha MOs
 -- Occupied --
-14.237 -10.176  -1.101  -0.747  -0.523  -0.514  -0.514
 -- Virtual --
  0.035   0.081   0.081   0.083   0.147   0.147   0.163   0.186
  0.253   0.253   0.265   0.323   0.471   0.626   0.626   0.671
  0.733   0.733   0.765   0.800   0.800   0.876   0.921   0.921
  1.074   1.287   1.301   1.301   1.310   1.310   1.542   1.864
  1.864   1.958   2.168   2.538   2.815   2.815   2.873   2.873
  2.961   2.961   2.992   2.992   3.095   3.324   3.324   3.431
  3.431   3.489   3.795   3.795   3.898   3.898   4.347   4.470
  4.470   4.485   4.485   4.487   4.911   4.911   5.204   5.204
  5.297   6.205   6.205   6.399   7.256  24.475  27.310  27.310
 28.780  36.151  37.572  37.572  38.421  40.481  40.592  40.668
 40.698  40.698  40.856  41.118  41.371  41.371  41.713
 --------------------------------------------------------------
 
          Ground-State Mulliken Net Atomic Charges

     Atom                 Charge (a.u.)
  ----------------------------------------
      1 C                     0.057608
      2 N                    -0.212619
      3 H                     0.155011
  ----------------------------------------
  Sum of atomic charges =     0.000000

 -----------------------------------------------------------------
                    Cartesian Multipole Moments
 -----------------------------------------------------------------
    Charge (ESU x 10^10)
                 0.0000
    Dipole Moment (Debye)
         X       0.0000      Y       0.0000      Z      -3.1694
       Tot       3.1694
    Quadrupole Moments (Debye-Ang)
        XX     -11.5921     XY       0.0000     YY     -11.5921
        XZ       0.0000     YZ       0.0000     ZZ     -12.7780
    Octapole Moments (Debye-Ang^2)
       XXX       0.0000    XXY       0.0000    XYY       0.0000
       YYY       0.0000    XXZ      -6.1602    XYZ       0.0000
       YYZ      -6.1602    XZZ       0.0000    YZZ       0.0000
       ZZZ     -24.8774
    Hexadecapole Moments (Debye-Ang^3)
      XXXX     -11.5701   XXXY       0.0000   XXYY      -3.8567
      XYYY       0.0000   YYYY     -11.5701   XXXZ       0.0000
      XXYZ       0.0000   XYYZ       0.0000   YYYZ       0.0000
      XXZZ     -12.1648   XYZZ       0.0000   YYZZ     -12.1648
      XZZZ       0.0000   YZZZ       0.0000   ZZZZ     -66.2534
 -----------------------------------------------------------------
 Calculating analytic gradient of the SCF energy
 Gradient of AOints
            1           2           3
    1  -0.0000001   0.0000001   0.0000000
    2   0.0000001  -0.0000001  -0.0000000
    3   9.6375099 -12.9635828   3.3260729
 Gradient of XC Energy
            1           2           3
    1   0.0000000  -0.0000000  -0.0000000
    2  -0.0000000   0.0000000   0.0000000
    3  -0.3232997   0.5070377  -0.1837380
 Gradient of SCF Energy
            1           2           3
    1   0.0000000   0.0000000  -0.0000000
    2  -0.0000000  -0.0000000   0.0000000
    3   0.1090998  -0.0893711  -0.0197287
 Max gradient component =       1.091E-01
 RMS gradient           =       4.747E-02
 Gradient time:  CPU 6.04 s  wall 6.57 s
 Geometry Optimization Parameters
   NAtoms,    NIC,     NZ,  NCons,   NDum,   NFix, NCnnct, MaxDiis
        3       9       4       0       0       0       0       0

 Cartesian Hessian Update
 Hessian Updated using BFGS Update


** GEOMETRY OPTIMIZATION IN CARTESIAN COORDINATES **
   Searching for a Minimum

   Optimization Cycle:   2

                       Coordinates (Angstroms)
     ATOM              X           Y           Z
    1  C           0.000000    0.000000    0.024381
    2  N           0.000000    0.000000    1.131654
    3  H           0.000000    0.000000   -1.069371
   Point Group: c1    Number of degrees of freedom:   3


   Energy is    -93.373466717


 Translations and Rotations Projected Out of Hessian

  2 Hessian modes will be used to form the next step
  Hessian Eigenvalues:
     0.971722    3.188540

 Minimum Search - Taking Simple RFO Step
 Searching for Lamda that Minimizes Along All modes
 Value Taken    Lamda =  -0.00634750
 Step Taken.  Stepsize is  0.044575

                             Maximum     Tolerance    Cnvgd?
         Gradient           0.109100      0.000300      NO
         Displacement       0.034237      0.001200      NO
         Energy change      0.002092      0.000001      NO

 Writing REM_CC_EA            3
 ----------------------------------------------------
       Standard Nuclear Orientation (Angstroms)
    I     Atom         X            Y            Z
 ----------------------------------------------------
    1      C       0.000000     0.000000     0.006263
    2      N       0.000000     0.000000     1.146371
    3      H       0.000000     0.000000    -1.065970
 ----------------------------------------------------
 Nuclear Repulsion Energy =    24.1296822869 hartrees
 There are        7 alpha and        7 beta electrons
 Applying Cartesian multipole field
    Component          Value
    ---------          -----
     (2,0,0)        1.00000E-11
     (0,2,0)        2.00000E-11
     (0,0,2)       -3.00000E-11
 Nucleus-field energy     =    -0.0000000011 hartrees
 Requested basis set is G3large
 There are 26 shells and 94 basis functions
 A cutoff of  1.0D-11 yielded    348 shell pairs
 There are   4588 function pairs (  5866 Cartesian)
Evaluating contribution to one-electron hamiltonian from nuclear
 Smallest overlap matrix eigenvalue = 4.84E-04
 Multipole matrices computed through 2nd order
 Guess MOs from SCF MO coefficient file
Reading MOs from coefficient file
Reading MOs from coefficient file
 Long-range K will be added via erf
 Coulomb attenuation parameter = 0.45 bohr**(-1)
 A restricted Kohn-Sham SCF calculation will be
 performed using Pulay DIIS extrapolation
 Exchange:  wPBE + LR-HF      Correlation:  PBE
 Using SG-1 standard quadrature grid
 SCF converges when DIIS error is below 1.0E-08
 Requested basis set is G3large
 There are 26 shells and 94 basis functions
 A cutoff of  1.0D-11 yielded    348 shell pairs
 There are   4588 function pairs (  5866 Cartesian)
 Warning!  Inaccurate integrated density:
   Number of electrons =    14
   Numerical integral  =    13.974257800789
   Relative error      =    -0.1838728515 %
 ---------------------------------------
  Cycle       Energy         DIIS Error
 ---------------------------------------
    1     -93.3992798829      3.34E-03
    2     -93.3763408234      3.08E-04
    3     -93.3764161859      1.45E-04
    4     -93.3764285807      6.32E-05
    5     -93.3764315934      2.16E-05
    6     -93.3764320808      3.69E-06
    7     -93.3764321032      4.18E-07
    8     -93.3764321036      5.50E-08
    9     -93.3764321026      7.27E-09 Convergence criterion met
 ---------------------------------------
 One-Electron    Energy =  -173.3360231141
 Total Coulomb   Energy =    68.3738230112
 Alpha Exchange  Energy =    -1.5393435920
 Beta  Exchange  Energy =    -1.5393435920
 DFT   Exchange  Energy =    -9.0234100099
 DFT Correlation Energy =    -0.4418170916
 Nuclear Repu.   Energy =    24.1296822858
 Nuclear Attr.   Energy =  -266.4055439422
 Kinetic         Energy =    93.0695208281
 SCF time:  CPU 14.65 s  wall 15.42 s
 Final Alpha MO Eigenvalues
            1           2           3           4           5           6
    1 -14.2481071 -10.1847586  -1.0906131  -0.7564081  -0.5259675  -0.5057839
            7           8           9          10          11          12
    1  -0.5057839   0.0351116   0.0776172   0.0776172   0.0831744   0.1397764
 Analysis of SCF Wavefunction
 
 --------------------------------------------------------------
                    Orbital Energies (a.u.)
 --------------------------------------------------------------
 
 Alpha MOs
 -- Occupied --
-14.248 -10.185  -1.091  -0.756  -0.526  -0.506  -0.506
 -- Virtual --
  0.035   0.078   0.078   0.083   0.140   0.140   0.163   0.189
  0.250   0.250   0.263   0.323   0.471   0.626   0.626   0.667
  0.733   0.733   0.771   0.797   0.797   0.865   0.924   0.924
  1.048   1.277   1.291   1.291   1.299   1.299   1.546   1.862
  1.862   1.917   2.146   2.553   2.809   2.809   2.875   2.875
  2.941   2.941   2.998   2.998   3.106   3.328   3.328   3.391
  3.391   3.509   3.781   3.781   3.888   3.888   4.332   4.424
  4.424   4.450   4.484   4.484   4.906   4.906   5.212   5.212
  5.304   6.094   6.094   6.341   7.271  24.397  27.295  27.295
 28.776  36.091  37.537  37.537  38.336  40.470  40.581  40.650
 40.684  40.684  40.844  41.106  41.315  41.315  41.619
 --------------------------------------------------------------
 
          Ground-State Mulliken Net Atomic Charges

     Atom                 Charge (a.u.)
  ----------------------------------------
      1 C                     0.048623
      2 N                    -0.203156
      3 H                     0.154533
  ----------------------------------------
  Sum of atomic charges =     0.000000

 -----------------------------------------------------------------
                    Cartesian Multipole Moments
 -----------------------------------------------------------------
    Charge (ESU x 10^10)
                 0.0000
    Dipole Moment (Debye)
         X       0.0000      Y       0.0000      Z      -3.1486
       Tot       3.1486
    Quadrupole Moments (Debye-Ang)
        XX     -11.6921     XY       0.0000     YY     -11.6921
        XZ       0.0000     YZ       0.0000     ZZ     -12.7756
    Octapole Moments (Debye-Ang^2)
       XXX       0.0000    XXY       0.0000    XYY       0.0000
       YYY       0.0000    XXZ      -6.2207    XYZ       0.0000
       YYZ      -6.2207    XZZ       0.0000    YZZ       0.0000
       ZZZ     -24.8000
    Hexadecapole Moments (Debye-Ang^3)
      XXXX     -11.7987   XXXY       0.0000   XXYY      -3.9329
      XYYY       0.0000   YYYY     -11.7987   XXXZ       0.0000
      XXYZ       0.0000   XYYZ       0.0000   YYYZ       0.0000
      XXZZ     -12.3836   XYZZ       0.0000   YYZZ     -12.3836
      XZZZ       0.0000   YZZZ       0.0000   ZZZZ     -67.2400
 -----------------------------------------------------------------
 Calculating analytic gradient of the SCF energy
 Gradient of AOints
            1           2           3
    1  -0.0000001   0.0000001   0.0000000
    2   0.0000001  -0.0000001  -0.0000000
    3   9.4925046 -12.8102858   3.3177812
 Gradient of XC Energy
            1           2           3
    1   0.0000000  -0.0000000  -0.0000000
    2  -0.0000000   0.0000000   0.0000000
    3  -0.3171192   0.5029383  -0.1858191
 Gradient of SCF Energy
            1           2           3
    1   0.0000000  -0.0000000  -0.0000000
    2  -0.0000000   0.0000000   0.0000000
    3  -0.0024645   0.0061656  -0.0037010
 Max gradient component =       6.166E-03
 RMS gradient           =       2.534E-03
 Gradient time:  CPU 6.10 s  wall 6.21 s
 Geometry Optimization Parameters
   NAtoms,    NIC,     NZ,  NCons,   NDum,   NFix, NCnnct, MaxDiis
        3       9       4       0       0       0       0       0

 Cartesian Hessian Update
 Hessian Updated using BFGS Update


** GEOMETRY OPTIMIZATION IN CARTESIAN COORDINATES **
   Searching for a Minimum

   Optimization Cycle:   3

                       Coordinates (Angstroms)
     ATOM              X           Y           Z
    1  C           0.000000    0.000000    0.006263
    2  N           0.000000    0.000000    1.146371
    3  H           0.000000    0.000000   -1.065970
   Point Group: c1    Number of degrees of freedom:   3


   Energy is    -93.376432103


 Translations and Rotations Projected Out of Hessian

  2 Hessian modes will be used to form the next step
  Hessian Eigenvalues:
     0.969106    3.320635

 Minimum Search - Taking Simple RFO Step
 Searching for Lamda that Minimizes Along All modes
 Value Taken    Lamda =  -0.00003718
 Step Taken.  Stepsize is  0.005622

                             Maximum     Tolerance    Cnvgd?
         Gradient           0.006166      0.000300      NO
         Displacement       0.004198      0.001200      NO
         Energy change     -0.002965      0.000001      NO

 Writing REM_CC_EA            3
 ----------------------------------------------------
       Standard Nuclear Orientation (Angstroms)
    I     Atom         X            Y            Z
 ----------------------------------------------------
    1      C       0.000000     0.000000     0.006003
    2      N       0.000000     0.000000     1.144409
    3      H       0.000000     0.000000    -1.063749
 ----------------------------------------------------
 Nuclear Repulsion Energy =    24.1688637337 hartrees
 There are        7 alpha and        7 beta electrons
 Applying Cartesian multipole field
    Component          Value
    ---------          -----
     (2,0,0)        1.00000E-11
     (0,2,0)        2.00000E-11
     (0,0,2)       -3.00000E-11
 Nucleus-field energy     =    -0.0000000011 hartrees
 Requested basis set is G3large
 There are 26 shells and 94 basis functions
 A cutoff of  1.0D-11 yielded    348 shell pairs
 There are   4588 function pairs (  5866 Cartesian)
Evaluating contribution to one-electron hamiltonian from nuclear
 Smallest overlap matrix eigenvalue = 4.81E-04
 Multipole matrices computed through 2nd order
 Guess MOs from SCF MO coefficient file
Reading MOs from coefficient file
Reading MOs from coefficient file
 Long-range K will be added via erf
 Coulomb attenuation parameter = 0.45 bohr**(-1)
 A restricted Kohn-Sham SCF calculation will be
 performed using Pulay DIIS extrapolation
 Exchange:  wPBE + LR-HF      Correlation:  PBE
 Using SG-1 standard quadrature grid
 SCF converges when DIIS error is below 1.0E-08
 Requested basis set is G3large
 There are 26 shells and 94 basis functions
 A cutoff of  1.0D-11 yielded    348 shell pairs
 There are   4588 function pairs (  5866 Cartesian)
 ---------------------------------------
  Cycle       Energy         DIIS Error
 ---------------------------------------
    1     -93.3771249472      1.56E-04
    2     -93.3764569060      2.87E-05
    3     -93.3764572324      2.73E-05
    4     -93.3764578349      6.08E-06
    5     -93.3764578638      1.03E-06
    6     -93.3764578651      1.81E-07
    7     -93.3764578564      3.01E-08
    8     -93.3764578488      3.71E-09 Convergence criterion met
 ---------------------------------------
 One-Electron    Energy =  -173.4114356487
 Total Coulomb   Energy =    68.4130008628
 Alpha Exchange  Energy =    -1.5395988544
 Beta  Exchange  Energy =    -1.5395988544
 DFT   Exchange  Energy =    -9.0257702742
 DFT Correlation Energy =    -0.4419188124
 Nuclear Repu.   Energy =    24.1688637326
 Nuclear Attr.   Energy =  -266.4936455567
 Kinetic         Energy =    93.0822099080
 SCF time:  CPU 12.91 s  wall 13.58 s
 Final Alpha MO Eigenvalues
            1           2           3           4           5           6
    1 -14.2476241 -10.1840321  -1.0911830  -0.7569520  -0.5258888  -0.5062485
            7           8           9          10          11          12
    1  -0.5062485   0.0351401   0.0778088   0.0778088   0.0832414   0.1400735
 Analysis of SCF Wavefunction
 
 --------------------------------------------------------------
                    Orbital Energies (a.u.)
 --------------------------------------------------------------
 
 Alpha MOs
 -- Occupied --
-14.248 -10.184  -1.091  -0.757  -0.526  -0.506  -0.506
 -- Virtual --
  0.035   0.078   0.078   0.083   0.140   0.140   0.163   0.190
  0.250   0.250   0.264   0.324   0.471   0.626   0.626   0.667
  0.733   0.733   0.771   0.798   0.798   0.866   0.924   0.924
  1.049   1.277   1.291   1.291   1.301   1.301   1.549   1.863
  1.863   1.917   2.147   2.552   2.809   2.809   2.875   2.875
  2.942   2.942   2.996   2.996   3.106   3.327   3.328   3.394
  3.394   3.513   3.781   3.781   3.888   3.888   4.337   4.427
  4.427   4.456   4.489   4.489   4.906   4.907   5.213   5.213
  5.308   6.103   6.103   6.350   7.283  24.401  27.297  27.297
 28.785  36.098  37.539  37.539  38.341  40.471  40.581  40.652
 40.685  40.685  40.845  41.107  41.318  41.318  41.624
 --------------------------------------------------------------
 
          Ground-State Mulliken Net Atomic Charges

     Atom                 Charge (a.u.)
  ----------------------------------------
      1 C                     0.049234
      2 N                    -0.203650
      3 H                     0.154415
  ----------------------------------------
  Sum of atomic charges =     0.000000

 -----------------------------------------------------------------
                    Cartesian Multipole Moments
 -----------------------------------------------------------------
    Charge (ESU x 10^10)
                 0.0000
    Dipole Moment (Debye)
         X       0.0000      Y       0.0000      Z      -3.1449
       Tot       3.1449
    Quadrupole Moments (Debye-Ang)
        XX     -11.6825     XY       0.0000     YY     -11.6825
        XZ       0.0000     YZ       0.0000     ZZ     -12.7767
    Octapole Moments (Debye-Ang^2)
       XXX       0.0000    XXY       0.0000    XYY       0.0000
       YYY       0.0000    XXZ      -6.2086    XYZ       0.0000
       YYZ      -6.2086    XZZ       0.0000    YZZ       0.0000
       ZZZ     -24.7475
    Hexadecapole Moments (Debye-Ang^3)
      XXXX     -11.7795   XXXY       0.0000   XXYY      -3.9265
      XYYY       0.0000   YYYY     -11.7795   XXXZ       0.0000
      XXYZ       0.0000   XYYZ       0.0000   YYYZ       0.0000
      XXZZ     -12.3480   XYZZ       0.0000   YYZZ     -12.3480
      XZZZ       0.0000   YZZZ       0.0000   ZZZZ     -67.0666
 -----------------------------------------------------------------
 Calculating analytic gradient of the SCF energy
 Gradient of AOints
            1           2           3
    1  -0.0000001   0.0000001   0.0000000
    2   0.0000001  -0.0000001  -0.0000000
    3   9.4891286 -12.8104704   3.3213417
 Gradient of XC Energy
            1           2           3
    1   0.0000000  -0.0000000  -0.0000000
    2  -0.0000000   0.0000000   0.0000000
    3  -0.3166373   0.5027205  -0.1860831
 Gradient of SCF Energy
            1           2           3
    1   0.0000000  -0.0000000  -0.0000000
    2  -0.0000000   0.0000000   0.0000000
    3   0.0001038   0.0017475  -0.0018513
 Max gradient component =       1.851E-03
 RMS gradient           =       8.493E-04
 Gradient time:  CPU 6.59 s  wall 6.70 s
 Geometry Optimization Parameters
   NAtoms,    NIC,     NZ,  NCons,   NDum,   NFix, NCnnct, MaxDiis
        3       9       4       0       0       0       0       0

 Cartesian Hessian Update
 Hessian Updated using BFGS Update


** GEOMETRY OPTIMIZATION IN CARTESIAN COORDINATES **
   Searching for a Minimum

   Optimization Cycle:   4

                       Coordinates (Angstroms)
     ATOM              X           Y           Z
    1  C           0.000000    0.000000    0.006003
    2  N           0.000000    0.000000    1.144409
    3  H           0.000000    0.000000   -1.063749
   Point Group: c1    Number of degrees of freedom:   3


   Energy is    -93.376457849


 Translations and Rotations Projected Out of Hessian

  2 Hessian modes will be used to form the next step
  Hessian Eigenvalues:
     0.573524    3.453004

 Minimum Search - Taking Simple RFO Step
 Searching for Lamda that Minimizes Along All modes
 Value Taken    Lamda =  -0.00001056
 Step Taken.  Stepsize is  0.004265

                             Maximum     Tolerance    Cnvgd?
         Gradient           0.001851      0.000300      NO
         Displacement       0.003387      0.001200      NO
         Energy change     -0.000026      0.000001      NO

 Writing REM_CC_EA            3
 ----------------------------------------------------
       Standard Nuclear Orientation (Angstroms)
    I     Atom         X            Y            Z
 ----------------------------------------------------
    1      C       0.000000     0.000000     0.005479
    2      N       0.000000     0.000000     1.143142
    3      H       0.000000     0.000000    -1.061957
 ----------------------------------------------------
 Nuclear Repulsion Energy =    24.1903837226 hartrees
 There are        7 alpha and        7 beta electrons
 Applying Cartesian multipole field
    Component          Value
    ---------          -----
     (2,0,0)        1.00000E-11
     (0,2,0)        2.00000E-11
     (0,0,2)       -3.00000E-11
 Nucleus-field energy     =    -0.0000000011 hartrees
 Requested basis set is G3large
 There are 26 shells and 94 basis functions
 A cutoff of  1.0D-11 yielded    348 shell pairs
 There are   4588 function pairs (  5866 Cartesian)
Evaluating contribution to one-electron hamiltonian from nuclear
 Smallest overlap matrix eigenvalue = 4.79E-04
 Multipole matrices computed through 2nd order
 Guess MOs from SCF MO coefficient file
Reading MOs from coefficient file
Reading MOs from coefficient file
 Long-range K will be added via erf
 Coulomb attenuation parameter = 0.45 bohr**(-1)
 A restricted Kohn-Sham SCF calculation will be
 performed using Pulay DIIS extrapolation
 Exchange:  wPBE + LR-HF      Correlation:  PBE
 Using SG-1 standard quadrature grid
 SCF converges when DIIS error is below 1.0E-08
 Requested basis set is G3large
 There are 26 shells and 94 basis functions
 A cutoff of  1.0D-11 yielded    348 shell pairs
 There are   4588 function pairs (  5866 Cartesian)
 ---------------------------------------
  Cycle       Energy         DIIS Error
 ---------------------------------------
    1     -93.3772644514      8.36E-05
    2     -93.3764627253      2.05E-05
    3     -93.3764628285      2.14E-05
    4     -93.3764632110      3.21E-06
    5     -93.3764632188      5.95E-07
    6     -93.3764632191      1.09E-07
    7     -93.3764632122      1.92E-08
    8     -93.3764632068      2.83E-09 Convergence criterion met
 ---------------------------------------
 One-Electron    Energy =  -173.4521964399
 Total Coulomb   Energy =    68.4339913308
 Alpha Exchange  Energy =    -1.5397498951
 Beta  Exchange  Energy =    -1.5397498951
 DFT   Exchange  Energy =    -9.0271661341
 DFT Correlation Energy =    -0.4419758950
 Nuclear Repu.   Energy =    24.1903837215
 Nuclear Attr.   Energy =  -266.5417734958
 Kinetic         Energy =    93.0895770559
 SCF time:  CPU 13.00 s  wall 13.57 s
 Final Alpha MO Eigenvalues
            1           2           3           4           5           6
    1 -14.2474349 -10.1836238  -1.0914465  -0.7575532  -0.5258808  -0.5064718
            7           8           9          10          11          12
    1  -0.5064718   0.0351608   0.0778921   0.0778921   0.0832966   0.1401811
 Analysis of SCF Wavefunction
 
 --------------------------------------------------------------
                    Orbital Energies (a.u.)
 --------------------------------------------------------------
 
 Alpha MOs
 -- Occupied --
-14.247 -10.184  -1.091  -0.758  -0.526  -0.506  -0.506
 -- Virtual --
  0.035   0.078   0.078   0.083   0.140   0.140   0.163   0.190
  0.250   0.250   0.264   0.324   0.472   0.626   0.626   0.667
  0.733   0.733   0.772   0.798   0.798   0.866   0.923   0.923
  1.050   1.278   1.292   1.292   1.302   1.302   1.552   1.864
  1.864   1.916   2.147   2.551   2.809   2.809   2.875   2.875
  2.942   2.942   2.995   2.995   3.107   3.327   3.327   3.396
  3.396   3.517   3.781   3.781   3.889   3.889   4.340   4.428
  4.428   4.460   4.494   4.494   4.906   4.907   5.213   5.213
  5.311   6.109   6.109   6.357   7.294  24.403  27.297  27.297
 28.792  36.102  37.540  37.540  38.343  40.471  40.582  40.654
 40.685  40.685  40.845  41.107  41.319  41.319  41.627
 --------------------------------------------------------------
 
          Ground-State Mulliken Net Atomic Charges

     Atom                 Charge (a.u.)
  ----------------------------------------
      1 C                     0.049564
      2 N                    -0.203882
      3 H                     0.154318
  ----------------------------------------
  Sum of atomic charges =     0.000000

 -----------------------------------------------------------------
                    Cartesian Multipole Moments
 -----------------------------------------------------------------
    Charge (ESU x 10^10)
                 0.0000
    Dipole Moment (Debye)
         X       0.0000      Y       0.0000      Z      -3.1417
       Tot       3.1417
    Quadrupole Moments (Debye-Ang)
        XX     -11.6768     XY       0.0000     YY     -11.6768
        XZ       0.0000     YZ       0.0000     ZZ     -12.7775
    Octapole Moments (Debye-Ang^2)
       XXX       0.0000    XXY       0.0000    XYY       0.0000
       YYY       0.0000    XXZ      -6.2002    XYZ       0.0000
       YYZ      -6.2002    XZZ       0.0000    YZZ       0.0000
       ZZZ     -24.7051
    Hexadecapole Moments (Debye-Ang^3)
      XXXX     -11.7685   XXXY       0.0000   XXYY      -3.9228
      XYYY       0.0000   YYYY     -11.7685   XXXZ       0.0000
      XXYZ       0.0000   XYYZ       0.0000   YYYZ       0.0000
      XXZZ     -12.3242   XYZZ       0.0000   YYZZ     -12.3242
      XZZZ       0.0000   YZZZ       0.0000   ZZZZ     -66.9490
 -----------------------------------------------------------------
 Calculating analytic gradient of the SCF energy
 Gradient of AOints
            1           2           3
    1  -0.0000001   0.0000001   0.0000000
    2   0.0000001  -0.0000001  -0.0000000
    3   9.4835648 -12.8074483   3.3238835
 Gradient of XC Energy
            1           2           3
    1   0.0000000  -0.0000000  -0.0000000
    2  -0.0000000   0.0000000   0.0000000
    3  -0.3161286   0.5024501  -0.1863215
 Gradient of SCF Energy
            1           2           3
    1   0.0000000  -0.0000000  -0.0000000
    2  -0.0000000   0.0000000   0.0000000
    3   0.0002543  -0.0001700  -0.0000843
 Max gradient component =       2.543E-04
 RMS gradient           =       1.058E-04
 Gradient time:  CPU 6.51 s  wall 6.61 s
 Geometry Optimization Parameters
   NAtoms,    NIC,     NZ,  NCons,   NDum,   NFix, NCnnct, MaxDiis
        3       9       4       0       0       0       0       0

 Cartesian Hessian Update
 Hessian Updated using BFGS Update


** GEOMETRY OPTIMIZATION IN CARTESIAN COORDINATES **
   Searching for a Minimum

   Optimization Cycle:   5

                       Coordinates (Angstroms)
     ATOM              X           Y           Z
    1  C           0.000000    0.000000    0.005479
    2  N           0.000000    0.000000    1.143142
    3  H           0.000000    0.000000   -1.061957
   Point Group: c1    Number of degrees of freedom:   3


   Energy is    -93.376463207


 Translations and Rotations Projected Out of Hessian

  2 Hessian modes will be used to form the next step
  Hessian Eigenvalues:
     0.557515    3.508351

 Minimum Search - Taking Simple RFO Step
 Searching for Lamda that Minimizes Along All modes
 Value Taken    Lamda =   0.00000000
 Step Taken.  Stepsize is  0.000131

                             Maximum     Tolerance    Cnvgd?
         Gradient           0.000254      0.000300     YES
         Displacement       0.000096      0.001200     YES
         Energy change     -0.000005      0.000001      NO


                       Distance Matrix (Angstroms)
             C (  1)   N (  2)
   N (  2)  1.137663
   H (  3)  1.067435  2.205098
 


 ******************************
 **  OPTIMIZATION CONVERGED  **
 ******************************
 Analysis of SCF Wavefunction
 
 --------------------------------------------------------------
                    Orbital Energies (a.u.)
 --------------------------------------------------------------
 
 Alpha MOs
 -- Occupied --
-14.247 -10.184  -1.091  -0.758  -0.526  -0.506  -0.506
 -- Virtual --
  0.035   0.078   0.078   0.083   0.140   0.140   0.163   0.190
  0.250   0.250   0.264   0.324   0.472   0.626   0.626   0.667
  0.733   0.733   0.772   0.798   0.798   0.866   0.923   0.923
  1.050   1.278   1.292   1.292   1.302   1.302   1.552   1.864
  1.864   1.916   2.147   2.551   2.809   2.809   2.875   2.875
  2.942   2.942   2.995   2.995   3.107   3.327   3.327   3.396
  3.396   3.517   3.781   3.781   3.889   3.889   4.340   4.428
  4.428   4.460   4.494   4.494   4.906   4.907   5.213   5.213
  5.311   6.109   6.109   6.357   7.294  24.403  27.297  27.297
 28.792  36.102  37.540  37.540  38.343  40.471  40.582  40.654
 40.685  40.685  40.845  41.107  41.319  41.319  41.627
 --------------------------------------------------------------
 
          Ground-State Mulliken Net Atomic Charges

     Atom                 Charge (a.u.)
  ----------------------------------------
      1 C                     0.049564
      2 N                    -0.203882
      3 H                     0.154318
  ----------------------------------------
  Sum of atomic charges =     0.000000

 -----------------------------------------------------------------
                    Cartesian Multipole Moments
 -----------------------------------------------------------------
    Charge (ESU x 10^10)
                 0.0000
    Dipole Moment (Debye)
         X       0.0000      Y       0.0000      Z      -3.1417
       Tot       3.1417
    Quadrupole Moments (Debye-Ang)
        XX     -11.6768     XY       0.0000     YY     -11.6768
        XZ       0.0000     YZ       0.0000     ZZ     -12.7775
    Octapole Moments (Debye-Ang^2)
       XXX       0.0000    XXY       0.0000    XYY       0.0000
       YYY       0.0000    XXZ      -6.2002    XYZ       0.0000
       YYZ      -6.2002    XZZ       0.0000    YZZ       0.0000
       ZZZ     -24.7051
    Hexadecapole Moments (Debye-Ang^3)
      XXXX     -11.7685   XXXY       0.0000   XXYY      -3.9228
      XYYY       0.0000   YYYY     -11.7685   XXXZ       0.0000
      XXYZ       0.0000   XYYZ       0.0000   YYYZ       0.0000
      XXZZ     -12.3242   XYZZ       0.0000   YYZZ     -12.3242
      XZZZ       0.0000   YZZZ       0.0000   ZZZZ     -66.9490
 -----------------------------------------------------------------
 Total job time:  112.70s(wall), 107.92s(cpu) 
 Wed Jul  3 20:15:57 2013

        *************************************************************
        *                                                           *
        *  Thank you very much for using Q-Chem.  Have a nice day.  *
        *                                                           *
        *************************************************************


0 sent ACK to 0 
now end server 0 ... 
 
**********************************************************************
Job 2 of 2 
**********************************************************************
 
Process 0 of 1 is on cl044.stfx.acenet.ca - thread support 1
initial socket setup ...start
initial socket setup ...done 
now start server 0 ... 

cmd = /usr/bin/ssh clhead /usr/local/qchem/bin/get_hostid 1810528449 > /scratch/tmp/6060352.1.short.q/qchem2243/lic.dat
                  Welcome to Q-Chem
     A Quantum Leap Into The Future Of Chemistry

 Y. Shao, L. Fusti-Molnar, Y. Jung, J. Kussmann, C. Ochsenfeld,
 S. T. Brown, A. T. B. Gilbert, L. V. Slipchenko,S. V. Levchenko,
 D. P. O'Neill, R. A. DiStasio Jr., R. C. Lochan, T. Wang,
 G. J. O. Beran, N. A. Besley, J. M. Herbert, C. Y. Lin,
 T. Van Voorhis, S. H. Chien, A. Sodt, R. P. Steele, 
 V. A. Rassolov, P. E. Maslen, P. P. Korambath, R. D. Adamson,
 B. Austin, J. Baker, E. F. C. Byrd, H. Dachsel, R. J. Doerksen,
 A. Dreuw, B. D. Dunietz, A. D. Dutoi, T. R. Furlani,
 S. R. Gwaltney, A. Heyden, S. Hirata, C.-P. Hsu, G. Kedziora,
 R. Z. Khaliullin, P. Klunzinger, A. M. Lee, M. S. Lee, W. Liang,
 I. Lotan, N. Nair, B. Peters, E. I. Proynov, P. A. Pieniazek, 
 Y. M. Rhee, J. Ritchie, E. Rosta, C. D. Sherrill, 
 A. C. Simmonett, J. E. Subotnik, H. L. Woodcock III,
 W. Zhang, A. T. Bell, A. K. Chakraborty, D. M. Chipman,
 F. J. Keil, A. Warshel, W. J. Hehre, H. F. Schaefer III,
 J. Kong, A. I. Krylov, P. M. W. Gill, M. Head-Gordon,
 Q-Chem, Version 3.1, Q-Chem, Inc., Pittsburgh, PA (2007).

 Additional authors for Version 3.1: 
 Z. Gan, Y. Zhao, N. E. Schultz, D. Truhlar, E. Epifanovsky and M. Oana.

 Additional authors for Version 3.2: 
 R. Baer, B. R. Brooks, D. Casanova, J.-D. Chai, C.-L. Cheng, 
 C. Cramer, D. Crittenden, A. Ghysels, G. Hawkins, E. G. Hohenstein, 
 C. Kelley, W. Kurlancheek, D. Liotard, E. Livshits, P. Manohar, 
 A. Marenich, D. Neuhauser, R. Olson, M. A. Rohrdanz, K. S. Thanthiriwatte, 
 A. J. W. Thom, V. Vanovschi, C. F. Williams, Q. Wu and Z.-Q. You. 


 Intel X86 Linux Version

 Q-chem begins on Wed Jul  3 20:16:00 2013  

 Parallel job on  1  processors
Processing $rem in /usr/local/qchem/config/preferences.

theFileMan(): MAXOPENFILES=974 MAX_SUB_FILE_NUM=16
Maximum size of a physical file is 2.0 GB, maximum size of a tmp-file is 32.0 GB


--------------------------------------------------------------
User input:
--------------------------------------------------------------

$molecule 
READ 
$end 

$xc_functional
C PBE   1.00
X wPBE  1.00
$end


$rem
SYMMETRY_DECOMPOSITION	0
LRC_DFT                 true
exchange 		general
BASIS                   g3large
omega			450 
JOBTYPE                 freq
IDERIV 1
SCF_GUESS READ
mem_static              760
max_scf_cycles          200
scf_final_print         1
sym_ignore              true
$end

--------------------------------------------------------------
 Writing REM_CC_EA            3
 ----------------------------------------------------
       Standard Nuclear Orientation (Angstroms)
    I     Atom         X            Y            Z
 ----------------------------------------------------
    1      C       0.000000     0.000000     0.005479
    2      N       0.000000     0.000000     1.143142
    3      H       0.000000     0.000000    -1.061957
 ----------------------------------------------------
 Nuclear Repulsion Energy =    24.1903837226 hartrees
 There are        7 alpha and        7 beta electrons
 Requested basis set is G3large
 There are 26 shells and 94 basis functions

Total QAlloc Memory Limit   2000 MB
Mega-Array Size       759 MB
MEM_STATIC part       760 MB

                       Distance Matrix (Angstroms)
             C (  1)   N (  2)
   N (  2)  1.137663
   H (  3)  1.067435  2.205098
 
 A cutoff of  1.0D-11 yielded    348 shell pairs
 There are   4588 function pairs (  5866 Cartesian)
Evaluating contribution to one-electron hamiltonian from nuclear
 Smallest overlap matrix eigenvalue = 4.79E-04
 Multipole matrices computed through 2nd order
 Guess MOs from SCF MO coefficient file
Reading MOs from coefficient file
Reading MOs from coefficient file
 Long-range K will be added via erf
 Coulomb attenuation parameter = 0.45 bohr**(-1)
 A restricted Kohn-Sham SCF calculation will be
 performed using Pulay DIIS extrapolation
 Exchange:  wPBE + LR-HF      Correlation:  PBE
 Using SG-1 standard quadrature grid
 SCF converges when DIIS error is below 1.0E-08
 ---------------------------------------
  Cycle       Energy         DIIS Error
 ---------------------------------------
    1     -93.3764632195      6.07E-10
    2     -93.3764632195      5.27E-10 Convergence criterion met
 ---------------------------------------
 One-Electron    Energy =  -173.4521964590
 Total Coulomb   Energy =    68.4339913455
 Alpha Exchange  Energy =    -1.5397498940
 Beta  Exchange  Energy =    -1.5397498940
 DFT   Exchange  Energy =    -9.0271661470
 DFT Correlation Energy =    -0.4419758937
 Nuclear Repu.   Energy =    24.1903837226
 Nuclear Attr.   Energy =  -266.5417735485
 Kinetic         Energy =    93.0895770895
 SCF time:  CPU 3.22 s  wall 3.33 s
 Final Alpha MO Eigenvalues
            1           2           3           4           5           6
    1 -14.2474349 -10.1836238  -1.0914465  -0.7575532  -0.5258808  -0.5064718
            7           8           9          10          11          12
    1  -0.5064718   0.0351608   0.0778921   0.0778921   0.0832967   0.1401811
 Analysis of SCF Wavefunction
 
 --------------------------------------------------------------
                    Orbital Energies (a.u.)
 --------------------------------------------------------------
 
 Alpha MOs
 -- Occupied --
-14.247 -10.184  -1.091  -0.758  -0.526  -0.506  -0.506
 -- Virtual --
  0.035   0.078   0.078   0.083   0.140   0.140   0.163   0.190
  0.250   0.250   0.264   0.324   0.472   0.626   0.626   0.667
  0.733   0.733   0.772   0.798   0.798   0.866   0.923   0.923
  1.050   1.278   1.292   1.292   1.302   1.302   1.552   1.864
  1.864   1.916   2.147   2.551   2.809   2.809   2.875   2.875
  2.942   2.942   2.995   2.995   3.107   3.327   3.327   3.396
  3.396   3.517   3.781   3.781   3.889   3.889   4.340   4.428
  4.428   4.460   4.494   4.494   4.906   4.907   5.213   5.213
  5.311   6.109   6.109   6.357   7.294  24.403  27.297  27.297
 28.792  36.102  37.540  37.540  38.343  40.471  40.582  40.654
 40.685  40.685  40.845  41.107  41.319  41.319  41.627
 --------------------------------------------------------------
 
          Ground-State Mulliken Net Atomic Charges

     Atom                 Charge (a.u.)
  ----------------------------------------
      1 C                     0.049564
      2 N                    -0.203882
      3 H                     0.154318
  ----------------------------------------
  Sum of atomic charges =     0.000000

 -----------------------------------------------------------------
                    Cartesian Multipole Moments
 -----------------------------------------------------------------
    Charge (ESU x 10^10)
                 0.0000
    Dipole Moment (Debye)
         X       0.0000      Y       0.0000      Z      -3.1417
       Tot       3.1417
    Quadrupole Moments (Debye-Ang)
        XX     -11.6768     XY       0.0000     YY     -11.6768
        XZ       0.0000     YZ       0.0000     ZZ     -12.7775
    Octapole Moments (Debye-Ang^2)
       XXX       0.0000    XXY       0.0000    XYY       0.0000
       YYY       0.0000    XXZ      -6.2002    XYZ       0.0000
       YYZ      -6.2002    XZZ       0.0000    YZZ       0.0000
       ZZZ     -24.7051
    Hexadecapole Moments (Debye-Ang^3)
      XXXX     -11.7685   XXXY       0.0000   XXYY      -3.9228
      XYYY       0.0000   YYYY     -11.7685   XXXZ       0.0000
      XXYZ       0.0000   XYYZ       0.0000   YYYZ       0.0000
      XXZZ     -12.3242   XYZZ       0.0000   YYZZ     -12.3242
      XZZZ       0.0000   YZZZ       0.0000   ZZZZ     -66.9490
 -----------------------------------------------------------------
 Calculating analytic gradient of the SCF energy
 Gradient of AOints
            1           2           3
    1  -0.0000001   0.0000001   0.0000000
    2   0.0000001  -0.0000001  -0.0000000
    3   9.4835650 -12.8074485   3.3238835
 Gradient of XC Energy
            1           2           3
    1   0.0000000  -0.0000000  -0.0000000
    2  -0.0000000   0.0000000   0.0000000
    3  -0.3161286   0.5024501  -0.1863215
 Gradient of SCF Energy
            1           2           3
    1   0.0000000  -0.0000000  -0.0000000
    2  -0.0000000   0.0000000   0.0000000
    3   0.0002543  -0.0001700  -0.0000843
 Max gradient component =       2.543E-04
 RMS gradient           =       1.058E-04
 Gradient time:  CPU 6.01 s  wall 6.12 s
 ######################################################
 ######################################################
 # Starting finite difference calculation for IDERIV  #
 Finite diff step size: 1.89e-03 a.u.
 Writing REM_CC_EA            3
 ----------------------------------------------------
       Standard Nuclear Orientation (Angstroms)
    I     Atom         X            Y            Z
 ----------------------------------------------------
    1      C       0.001000     0.000000     0.005479
    2      N       0.000000     0.000000     1.143142
    3      H       0.000000     0.000000    -1.061957
 ----------------------------------------------------
 Nuclear Repulsion Energy =    24.1903748701 hartrees
 There are        7 alpha and        7 beta electrons

                       Distance Matrix (Angstroms)
             C (  1)   N (  2)
   N (  2)  1.137663
   H (  3)  1.067436  2.205098
 
 Requested basis set is G3large
 There are 26 shells and 94 basis functions
 A cutoff of  1.0D-11 yielded    348 shell pairs
 There are   4588 function pairs (  5866 Cartesian)
Evaluating contribution to one-electron hamiltonian from nuclear
 Smallest overlap matrix eigenvalue = 4.79E-04
 Multipole matrices computed through 2nd order
 Guess MOs from SCF MO coefficient file
Reading MOs from coefficient file
Reading MOs from coefficient file
 Long-range K will be added via erf
 Coulomb attenuation parameter = 0.45 bohr**(-1)
 A restricted Kohn-Sham SCF calculation will be
 performed using Pulay DIIS extrapolation
 Exchange:  wPBE + LR-HF      Correlation:  PBE
 Using SG-1 standard quadrature grid
 SCF converges when DIIS error is below 1.0E-08
 ---------------------------------------
  Cycle       Energy         DIIS Error
 ---------------------------------------
    1     -93.3764620743      5.97E-05
    2     -93.3764630548      4.17E-06
    3     -93.3764631042      1.47E-06
    4     -93.3764631057      4.08E-07
    5     -93.3764631085      1.02E-07
    6     -93.3764631076      2.12E-08
    7     -93.3764631081      1.12E-08
    8     -93.3764631078      3.76E-09 Convergence criterion met
 ---------------------------------------
 One-Electron    Energy =  -173.4521793002
 Total Coulomb   Energy =    68.4339824493
 Alpha Exchange  Energy =    -1.5397498227
 Beta  Exchange  Energy =    -1.5397498227
 DFT   Exchange  Energy =    -9.0271656127
 DFT Correlation Energy =    -0.4419758688
 Nuclear Repu.   Energy =    24.1903748701
 Nuclear Attr.   Energy =  -266.5417538058
 Kinetic         Energy =    93.0895745055
 SCF time:  CPU 12.82 s  wall 13.64 s
 Final Alpha MO Eigenvalues
            1           2           3           4           5           6
    1 -14.2474351 -10.1836239  -1.0914464  -0.7575530  -0.5258809  -0.5064717
            7           8           9          10          11          12
    1  -0.5064717   0.0351608   0.0778915   0.0778920   0.0832970   0.1401804
 Analysis of SCF Wavefunction
 
 --------------------------------------------------------------
                    Orbital Energies (a.u.)
 --------------------------------------------------------------
 
 Alpha MOs
 -- Occupied --
-14.247 -10.184  -1.091  -0.758  -0.526  -0.506  -0.506
 -- Virtual --
  0.035   0.078   0.078   0.083   0.140   0.140   0.163   0.190
  0.250   0.250   0.264   0.324   0.472   0.626   0.626   0.667
  0.733   0.733   0.772   0.798   0.798   0.866   0.923   0.923
  1.050   1.278   1.291   1.292   1.302   1.302   1.552   1.864
  1.864   1.916   2.147   2.551   2.809   2.809   2.875   2.875
  2.942   2.942   2.995   2.995   3.107   3.327   3.327   3.395
  3.396   3.517   3.781   3.781   3.889   3.889   4.340   4.428
  4.428   4.460   4.494   4.494   4.906   4.907   5.213   5.213
  5.311   6.109   6.109   6.357   7.294  24.403  27.297  27.297
 28.792  36.102  37.540  37.540  38.343  40.471  40.582  40.654
 40.685  40.685  40.845  41.107  41.319  41.319  41.627
 --------------------------------------------------------------
 
          Ground-State Mulliken Net Atomic Charges

     Atom                 Charge (a.u.)
  ----------------------------------------
      1 C                     0.049563
      2 N                    -0.203881
      3 H                     0.154318
  ----------------------------------------
  Sum of atomic charges =     0.000000

 -----------------------------------------------------------------
                    Cartesian Multipole Moments
 -----------------------------------------------------------------
    Charge (ESU x 10^10)
                 0.0000
    Dipole Moment (Debye)
         X       0.0004      Y       0.0000      Z      -3.1417
       Tot       3.1417
    Quadrupole Moments (Debye-Ang)
        XX     -11.6768     XY       0.0000     YY     -11.6768
        XZ       0.0003     YZ       0.0000     ZZ     -12.7775
    Octapole Moments (Debye-Ang^2)
       XXX      -0.0164    XXY       0.0000    XYY      -0.0055
       YYY       0.0000    XXZ      -6.2002    XYZ       0.0000
       YYZ      -6.2002    XZZ      -0.0058    YZZ       0.0000
       ZZZ     -24.7051
    Hexadecapole Moments (Debye-Ang^3)
      XXXX     -11.7686   XXXY       0.0000   XXYY      -3.9228
      XYYY       0.0000   YYYY     -11.7685   XXXZ      -0.0007
      XXYZ       0.0000   XYYZ      -0.0002   YYYZ       0.0000
      XXZZ     -12.3242   XYZZ       0.0000   YYZZ     -12.3242
      XZZZ       0.0019   YZZZ       0.0000   ZZZZ     -66.9490
 -----------------------------------------------------------------
 Calculating analytic gradient of the SCF energy
 Gradient of AOints
            1           2           3
    1  -0.0139678   0.0102304   0.0037374
    2   0.0000001  -0.0000001  -0.0000000
    3   9.4835688 -12.8074479   3.3238791
 Gradient of XC Energy
            1           2           3
    1   0.0006638  -0.0004373  -0.0002265
    2  -0.0000000   0.0000000   0.0000000
    3  -0.3161291   0.5024503  -0.1863212
 Gradient of SCF Energy
            1           2           3
    1   0.0001290  -0.0000620  -0.0000669
    2  -0.0000000   0.0000000   0.0000000
    3   0.0002536  -0.0001690  -0.0000846
 Max gradient component =       2.536E-04
 RMS gradient           =       1.179E-04
 Gradient time:  CPU 6.08 s  wall 6.21 s
 Writing REM_CC_EA            3
 ----------------------------------------------------
       Standard Nuclear Orientation (Angstroms)
    I     Atom         X            Y            Z
 ----------------------------------------------------
    1      C      -0.001000     0.000000     0.005479
    2      N       0.000000     0.000000     1.143142
    3      H       0.000000     0.000000    -1.061957
 ----------------------------------------------------
 Nuclear Repulsion Energy =    24.1903748704 hartrees
 There are        7 alpha and        7 beta electrons

                       Distance Matrix (Angstroms)
             C (  1)   N (  2)
   N (  2)  1.137663
   H (  3)  1.067436  2.205098
 
 Requested basis set is G3large
 There are 26 shells and 94 basis functions
 A cutoff of  1.0D-11 yielded    348 shell pairs
 There are   4588 function pairs (  5866 Cartesian)
Evaluating contribution to one-electron hamiltonian from nuclear
 Smallest overlap matrix eigenvalue = 4.79E-04
 Multipole matrices computed through 2nd order
 Guess MOs from SCF MO coefficient file
Reading MOs from coefficient file
Reading MOs from coefficient file
 Long-range K will be added via erf
 Coulomb attenuation parameter = 0.45 bohr**(-1)
 A restricted Kohn-Sham SCF calculation will be
 performed using Pulay DIIS extrapolation
 Exchange:  wPBE + LR-HF      Correlation:  PBE
 Using SG-1 standard quadrature grid
 SCF converges when DIIS error is below 1.0E-08
 ---------------------------------------
  Cycle       Energy         DIIS Error
 ---------------------------------------
    1     -93.3764593148      1.19E-04
    2     -93.3764628948      8.33E-06
    3     -93.3764630824      2.93E-06
    4     -93.3764630892      8.20E-07
    5     -93.3764631008      2.30E-07
    6     -93.3764630954      1.52E-07
    7     -93.3764630978      4.91E-08
    8     -93.3764630978      4.67E-09 Convergence criterion met
 ---------------------------------------
 One-Electron    Energy =  -173.4521789771
 Total Coulomb   Energy =    68.4339820826
 Alpha Exchange  Energy =    -1.5397498201
 Beta  Exchange  Energy =    -1.5397498201
 DFT   Exchange  Energy =    -9.0271655662
 DFT Correlation Energy =    -0.4419758673
 Nuclear Repu.   Energy =    24.1903748704
 Nuclear Attr.   Energy =  -266.5417531813
 Kinetic         Energy =    93.0895742042
 SCF time:  CPU 12.95 s  wall 13.41 s
 Final Alpha MO Eigenvalues
            1           2           3           4           5           6
    1 -14.2474351 -10.1836240  -1.0914464  -0.7575530  -0.5258809  -0.5064717
            7           8           9          10          11          12
    1  -0.5064717   0.0351608   0.0778915   0.0778920   0.0832970   0.1401804
 Analysis of SCF Wavefunction
 
 --------------------------------------------------------------
                    Orbital Energies (a.u.)
 --------------------------------------------------------------
 
 Alpha MOs
 -- Occupied --
-14.247 -10.184  -1.091  -0.758  -0.526  -0.506  -0.506
 -- Virtual --
  0.035   0.078   0.078   0.083   0.140   0.140   0.163   0.190
  0.250   0.250   0.264   0.324   0.472   0.626   0.626   0.667
  0.733   0.733   0.772   0.798   0.798   0.866   0.923   0.923
  1.050   1.278   1.291   1.292   1.302   1.302   1.552   1.864
  1.864   1.916   2.147   2.551   2.809   2.809   2.875   2.875
  2.942   2.942   2.995   2.995   3.107   3.327   3.327   3.395
  3.396   3.517   3.781   3.781   3.889   3.889   4.340   4.428
  4.428   4.460   4.494   4.494   4.906   4.907   5.213   5.213
  5.311   6.109   6.109   6.357   7.294  24.403  27.297  27.297
 28.792  36.102  37.540  37.540  38.343  40.471  40.582  40.654
 40.685  40.685  40.845  41.107  41.319  41.319  41.627
 --------------------------------------------------------------
 
          Ground-State Mulliken Net Atomic Charges

     Atom                 Charge (a.u.)
  ----------------------------------------
      1 C                     0.049563
      2 N                    -0.203881
      3 H                     0.154318
  ----------------------------------------
  Sum of atomic charges =     0.000000

 -----------------------------------------------------------------
                    Cartesian Multipole Moments
 -----------------------------------------------------------------
    Charge (ESU x 10^10)
                 0.0000
    Dipole Moment (Debye)
         X      -0.0004      Y       0.0000      Z      -3.1417
       Tot       3.1417
    Quadrupole Moments (Debye-Ang)
        XX     -11.6768     XY       0.0000     YY     -11.6768
        XZ      -0.0003     YZ       0.0000     ZZ     -12.7775
    Octapole Moments (Debye-Ang^2)
       XXX       0.0164    XXY       0.0000    XYY       0.0055
       YYY       0.0000    XXZ      -6.2002    XYZ       0.0000
       YYZ      -6.2002    XZZ       0.0058    YZZ       0.0000
       ZZZ     -24.7051
    Hexadecapole Moments (Debye-Ang^3)
      XXXX     -11.7686   XXXY       0.0000   XXYY      -3.9228
      XYYY       0.0000   YYYY     -11.7685   XXXZ       0.0007
      XXYZ       0.0000   XYYZ       0.0002   YYYZ       0.0000
      XXZZ     -12.3242   XYZZ       0.0000   YYZZ     -12.3242
      XZZZ      -0.0019   YZZZ       0.0000   ZZZZ     -66.9490
 -----------------------------------------------------------------
 Calculating analytic gradient of the SCF energy
 Gradient of AOints
            1           2           3
    1   0.0139672  -0.0102300  -0.0037372
    2   0.0000001  -0.0000001  -0.0000000
    3   9.4835689 -12.8074479   3.3238791
 Gradient of XC Energy
            1           2           3
    1  -0.0006638   0.0004373   0.0002265
    2  -0.0000000   0.0000000   0.0000000
    3  -0.3161291   0.5024503  -0.1863212
 Gradient of SCF Energy
            1           2           3
    1  -0.0001289   0.0000620   0.0000669
    2  -0.0000000   0.0000000   0.0000000
    3   0.0002536  -0.0001690  -0.0000846
 Max gradient component =       2.536E-04
 RMS gradient           =       1.179E-04
 Gradient time:  CPU 6.09 s  wall 6.20 s
 Writing REM_CC_EA            3
 ----------------------------------------------------
       Standard Nuclear Orientation (Angstroms)
    I     Atom         X            Y            Z
 ----------------------------------------------------
    1      C       0.000000     0.001000     0.005479
    2      N       0.000000     0.000000     1.143142
    3      H       0.000000     0.000000    -1.061957
 ----------------------------------------------------
 Nuclear Repulsion Energy =    24.1903748704 hartrees
 There are        7 alpha and        7 beta electrons

                       Distance Matrix (Angstroms)
             C (  1)   N (  2)
   N (  2)  1.137663
   H (  3)  1.067436  2.205098
 
 Requested basis set is G3large
 There are 26 shells and 94 basis functions
 A cutoff of  1.0D-11 yielded    348 shell pairs
 There are   4588 function pairs (  5866 Cartesian)
Evaluating contribution to one-electron hamiltonian from nuclear
 Smallest overlap matrix eigenvalue = 4.79E-04
 Multipole matrices computed through 2nd order
 Guess MOs from SCF MO coefficient file
Reading MOs from coefficient file
Reading MOs from coefficient file
 Long-range K will be added via erf
 Coulomb attenuation parameter = 0.45 bohr**(-1)
 A restricted Kohn-Sham SCF calculation will be
 performed using Pulay DIIS extrapolation
 Exchange:  wPBE + LR-HF      Correlation:  PBE
 Using SG-1 standard quadrature grid
 SCF converges when DIIS error is below 1.0E-08
 ---------------------------------------
  Cycle       Energy         DIIS Error
 ---------------------------------------
    1     -93.3764612061      8.45E-05
    2     -93.3764629964      5.89E-06
    3     -93.3764630902      2.07E-06
    4     -93.3764630937      5.79E-07
    5     -93.3764630992      1.54E-07
    6     -93.3764630967      8.34E-08
    7     -93.3764630983      4.04E-08
    8     -93.3764630980      3.30E-09 Convergence criterion met
 ---------------------------------------
 One-Electron    Energy =  -173.4521790648
 Total Coulomb   Energy =    68.4339821811
 Alpha Exchange  Energy =    -1.5397498208
 Beta  Exchange  Energy =    -1.5397498208
 DFT   Exchange  Energy =    -9.0271655755
 DFT Correlation Energy =    -0.4419758677
 Nuclear Repu.   Energy =    24.1903748704
 Nuclear Attr.   Energy =  -266.5417533526
 Kinetic         Energy =    93.0895742878
 SCF time:  CPU 13.03 s  wall 13.74 s
 Final Alpha MO Eigenvalues
            1           2           3           4           5           6
    1 -14.2474351 -10.1836239  -1.0914464  -0.7575530  -0.5258809  -0.5064717
            7           8           9          10          11          12
    1  -0.5064717   0.0351608   0.0778915   0.0778920   0.0832970   0.1401804
 Analysis of SCF Wavefunction
 
 --------------------------------------------------------------
                    Orbital Energies (a.u.)
 --------------------------------------------------------------
 
 Alpha MOs
 -- Occupied --
-14.247 -10.184  -1.091  -0.758  -0.526  -0.506  -0.506
 -- Virtual --
  0.035   0.078   0.078   0.083   0.140   0.140   0.163   0.190
  0.250   0.250   0.264   0.324   0.472   0.626   0.626   0.667
  0.733   0.733   0.772   0.798   0.798   0.866   0.923   0.923
  1.050   1.278   1.291   1.292   1.302   1.302   1.552   1.864
  1.864   1.916   2.147   2.551   2.809   2.809   2.875   2.875
  2.942   2.942   2.995   2.995   3.107   3.327   3.327   3.395
  3.396   3.517   3.781   3.781   3.889   3.889   4.340   4.428
  4.428   4.460   4.494   4.494   4.906   4.907   5.213   5.213
  5.311   6.109   6.109   6.357   7.294  24.403  27.297  27.297
 28.792  36.102  37.540  37.540  38.343  40.471  40.582  40.654
 40.685  40.685  40.845  41.107  41.319  41.319  41.627
 --------------------------------------------------------------
 
          Ground-State Mulliken Net Atomic Charges

     Atom                 Charge (a.u.)
  ----------------------------------------
      1 C                     0.049563
      2 N                    -0.203881
      3 H                     0.154318
  ----------------------------------------
  Sum of atomic charges =     0.000000

 -----------------------------------------------------------------
                    Cartesian Multipole Moments
 -----------------------------------------------------------------
    Charge (ESU x 10^10)
                 0.0000
    Dipole Moment (Debye)
         X       0.0000      Y       0.0004      Z      -3.1417
       Tot       3.1417
    Quadrupole Moments (Debye-Ang)
        XX     -11.6768     XY       0.0000     YY     -11.6768
        XZ       0.0000     YZ       0.0003     ZZ     -12.7775
    Octapole Moments (Debye-Ang^2)
       XXX       0.0000    XXY      -0.0055    XYY       0.0000
       YYY      -0.0164    XXZ      -6.2002    XYZ       0.0000
       YYZ      -6.2002    XZZ       0.0000    YZZ      -0.0058
       ZZZ     -24.7051
    Hexadecapole Moments (Debye-Ang^3)
      XXXX     -11.7685   XXXY       0.0000   XXYY      -3.9228
      XYYY       0.0000   YYYY     -11.7686   XXXZ       0.0000
      XXYZ      -0.0002   XYYZ       0.0000   YYYZ      -0.0007
      XXZZ     -12.3242   XYZZ       0.0000   YYZZ     -12.3242
      XZZZ       0.0000   YZZZ       0.0019   ZZZZ     -66.9490
 -----------------------------------------------------------------
 Calculating analytic gradient of the SCF energy
 Gradient of AOints
            1           2           3
    1   0.0000002  -0.0000001  -0.0000001
    2  -0.0139676   0.0102302   0.0037373
    3   9.4835688 -12.8074479   3.3238791
 Gradient of XC Energy
            1           2           3
    1  -0.0000000   0.0000000   0.0000000
    2   0.0006638  -0.0004373  -0.0002265
    3  -0.3161291   0.5024503  -0.1863212
 Gradient of SCF Energy
            1           2           3
    1  -0.0000000  -0.0000000   0.0000000
    2   0.0001290  -0.0000620  -0.0000669
    3   0.0002536  -0.0001690  -0.0000846
 Max gradient component =       2.536E-04
 RMS gradient           =       1.179E-04
 Gradient time:  CPU 6.09 s  wall 6.15 s
 Writing REM_CC_EA            3
 ----------------------------------------------------
       Standard Nuclear Orientation (Angstroms)
    I     Atom         X            Y            Z
 ----------------------------------------------------
    1      C       0.000000    -0.001000     0.005479
    2      N       0.000000     0.000000     1.143142
    3      H       0.000000     0.000000    -1.061957
 ----------------------------------------------------
 Nuclear Repulsion Energy =    24.1903748701 hartrees
 There are        7 alpha and        7 beta electrons

                       Distance Matrix (Angstroms)
             C (  1)   N (  2)
   N (  2)  1.137663
   H (  3)  1.067436  2.205098
 
 Requested basis set is G3large
 There are 26 shells and 94 basis functions
 A cutoff of  1.0D-11 yielded    348 shell pairs
 There are   4588 function pairs (  5866 Cartesian)
Evaluating contribution to one-electron hamiltonian from nuclear
 Smallest overlap matrix eigenvalue = 4.79E-04
 Multipole matrices computed through 2nd order
 Guess MOs from SCF MO coefficient file
Reading MOs from coefficient file
Reading MOs from coefficient file
 Long-range K will be added via erf
 Coulomb attenuation parameter = 0.45 bohr**(-1)
 A restricted Kohn-Sham SCF calculation will be
 performed using Pulay DIIS extrapolation
 Exchange:  wPBE + LR-HF      Correlation:  PBE
 Using SG-1 standard quadrature grid
 SCF converges when DIIS error is below 1.0E-08
 ---------------------------------------
  Cycle       Energy         DIIS Error
 ---------------------------------------
    1     -93.3764593147      1.19E-04
    2     -93.3764628948      8.33E-06
    3     -93.3764630825      2.93E-06
    4     -93.3764630893      8.20E-07
    5     -93.3764631008      2.30E-07
    6     -93.3764630955      1.52E-07
    7     -93.3764630979      4.92E-08
    8     -93.3764630978      4.67E-09 Convergence criterion met
 ---------------------------------------
 One-Electron    Energy =  -173.4521789757
 Total Coulomb   Energy =    68.4339820814
 Alpha Exchange  Energy =    -1.5397498201
 Beta  Exchange  Energy =    -1.5397498201
 DFT   Exchange  Energy =    -9.0271655661
 DFT Correlation Energy =    -0.4419758673
 Nuclear Repu.   Energy =    24.1903748701
 Nuclear Attr.   Energy =  -266.5417531787
 Kinetic         Energy =    93.0895742030
 SCF time:  CPU 12.96 s  wall 13.50 s
 Final Alpha MO Eigenvalues
            1           2           3           4           5           6
    1 -14.2474351 -10.1836240  -1.0914464  -0.7575530  -0.5258809  -0.5064717
            7           8           9          10          11          12
    1  -0.5064717   0.0351608   0.0778915   0.0778920   0.0832970   0.1401804
 Analysis of SCF Wavefunction
 
 --------------------------------------------------------------
                    Orbital Energies (a.u.)
 --------------------------------------------------------------
 
 Alpha MOs
 -- Occupied --
-14.247 -10.184  -1.091  -0.758  -0.526  -0.506  -0.506
 -- Virtual --
  0.035   0.078   0.078   0.083   0.140   0.140   0.163   0.190
  0.250   0.250   0.264   0.324   0.472   0.626   0.626   0.667
  0.733   0.733   0.772   0.798   0.798   0.866   0.923   0.923
  1.050   1.278   1.291   1.292   1.302   1.302   1.552   1.864
  1.864   1.916   2.147   2.551   2.809   2.809   2.875   2.875
  2.942   2.942   2.995   2.995   3.107   3.327   3.327   3.395
  3.396   3.517   3.781   3.781   3.889   3.889   4.340   4.428
  4.428   4.460   4.494   4.494   4.906   4.907   5.213   5.213
  5.311   6.109   6.109   6.357   7.294  24.403  27.297  27.297
 28.792  36.102  37.540  37.540  38.343  40.471  40.582  40.654
 40.685  40.685  40.845  41.107  41.319  41.319  41.627
 --------------------------------------------------------------
 
          Ground-State Mulliken Net Atomic Charges

     Atom                 Charge (a.u.)
  ----------------------------------------
      1 C                     0.049563
      2 N                    -0.203881
      3 H                     0.154318
  ----------------------------------------
  Sum of atomic charges =     0.000000

 -----------------------------------------------------------------
                    Cartesian Multipole Moments
 -----------------------------------------------------------------
    Charge (ESU x 10^10)
                 0.0000
    Dipole Moment (Debye)
         X       0.0000      Y      -0.0004      Z      -3.1417
       Tot       3.1417
    Quadrupole Moments (Debye-Ang)
        XX     -11.6768     XY       0.0000     YY     -11.6768
        XZ       0.0000     YZ      -0.0003     ZZ     -12.7775
    Octapole Moments (Debye-Ang^2)
       XXX       0.0000    XXY       0.0055    XYY       0.0000
       YYY       0.0164    XXZ      -6.2002    XYZ       0.0000
       YYZ      -6.2002    XZZ       0.0000    YZZ       0.0058
       ZZZ     -24.7051
    Hexadecapole Moments (Debye-Ang^3)
      XXXX     -11.7685   XXXY       0.0000   XXYY      -3.9228
      XYYY       0.0000   YYYY     -11.7686   XXXZ       0.0000
      XXYZ       0.0002   XYYZ       0.0000   YYYZ       0.0007
      XXZZ     -12.3242   XYZZ       0.0000   YYZZ     -12.3242
      XZZZ       0.0000   YZZZ      -0.0019   ZZZZ     -66.9490
 -----------------------------------------------------------------
 Calculating analytic gradient of the SCF energy
 Gradient of AOints
            1           2           3
    1  -0.0000001   0.0000001   0.0000000
    2   0.0139674  -0.0102302  -0.0037372
    3   9.4835689 -12.8074479   3.3238791
 Gradient of XC Energy
            1           2           3
    1   0.0000000  -0.0000000  -0.0000000
    2  -0.0006638   0.0004373   0.0002265
    3  -0.3161291   0.5024503  -0.1863212
 Gradient of SCF Energy
            1           2           3
    1   0.0000000  -0.0000000  -0.0000000
    2  -0.0001290   0.0000620   0.0000669
    3   0.0002536  -0.0001690  -0.0000846
 Max gradient component =       2.536E-04
 RMS gradient           =       1.179E-04
 Gradient time:  CPU 6.23 s  wall 6.36 s
 Writing REM_CC_EA            3
 ----------------------------------------------------
       Standard Nuclear Orientation (Angstroms)
    I     Atom         X            Y            Z
 ----------------------------------------------------
    1      C       0.000000     0.000000     0.006479
    2      N       0.000000     0.000000     1.143142
    3      H       0.000000     0.000000    -1.061957
 ----------------------------------------------------
 Nuclear Repulsion Energy =    24.2047869650 hartrees
 There are        7 alpha and        7 beta electrons

                       Distance Matrix (Angstroms)
             C (  1)   N (  2)
   N (  2)  1.136663
   H (  3)  1.068435  2.205098
 
 Requested basis set is G3large
 There are 26 shells and 94 basis functions
 A cutoff of  1.0D-11 yielded    348 shell pairs
 There are   4588 function pairs (  5866 Cartesian)
Evaluating contribution to one-electron hamiltonian from nuclear
 Smallest overlap matrix eigenvalue = 4.77E-04
 Multipole matrices computed through 2nd order
 Guess MOs from SCF MO coefficient file
Reading MOs from coefficient file
Reading MOs from coefficient file
 Long-range K will be added via erf
 Coulomb attenuation parameter = 0.45 bohr**(-1)
 A restricted Kohn-Sham SCF calculation will be
 performed using Pulay DIIS extrapolation
 Exchange:  wPBE + LR-HF      Correlation:  PBE
 Using SG-1 standard quadrature grid
 SCF converges when DIIS error is below 1.0E-08
 ---------------------------------------
  Cycle       Energy         DIIS Error
 ---------------------------------------
    1     -93.3757969410      1.19E-04
    2     -93.3764593060      1.10E-05
    3     -93.3764594104      7.06E-06
    4     -93.3764594444      3.26E-06
    5     -93.3764594596      7.19E-07
    6     -93.3764594548      1.82E-07
    7     -93.3764594803      3.79E-08
    8     -93.3764594767      5.85E-09 Convergence criterion met
 ---------------------------------------
 One-Electron    Energy =  -173.4811760460
 Total Coulomb   Energy =    68.4494193892
 Alpha Exchange  Energy =    -1.5398209075
 Beta  Exchange  Energy =    -1.5398209075
 DFT   Exchange  Energy =    -9.0278375671
[...]
 Max gradient component =       2.547E-04
 RMS gradient           =       1.094E-04
 Gradient time:  CPU 6.67 s  wall 6.80 s
 Writing REM_CC_EA            3
 ----------------------------------------------------
       Standard Nuclear Orientation (Angstroms)
    I     Atom         X            Y            Z
 ----------------------------------------------------
    1      C       0.000000     0.000000     0.005479
    2      N       0.000000     0.000000     1.143142
    3      H       0.000000     0.000000    -1.060957
 ----------------------------------------------------
 Nuclear Repulsion Energy =    24.1939350506 hartrees
 There are        7 alpha and        7 beta electrons

                       Distance Matrix (Angstroms)
             C (  1)   N (  2)
   N (  2)  1.137663
   H (  3)  1.066435  2.204098
 
 Requested basis set is G3large
 There are 26 shells and 94 basis functions
 A cutoff of  1.0D-11 yielded    348 shell pairs
 There are   4588 function pairs (  5866 Cartesian)
Evaluating contribution to one-electron hamiltonian from nuclear
 Smallest overlap matrix eigenvalue = 4.79E-04
 Multipole matrices computed through 2nd order
 Guess MOs from SCF MO coefficient file
Reading MOs from coefficient file
Reading MOs from coefficient file
 Long-range K will be added via erf
 Coulomb attenuation parameter = 0.45 bohr**(-1)
 A restricted Kohn-Sham SCF calculation will be
 performed using Pulay DIIS extrapolation
 Exchange:  wPBE + LR-HF      Correlation:  PBE
 Using SG-1 standard quadrature grid
 SCF converges when DIIS error is below 1.0E-08
 ---------------------------------------
  Cycle       Energy         DIIS Error
 ---------------------------------------
    1     -93.3768832285      2.96E-05
    2     -93.3764625811      7.35E-06
    3     -93.3764625869      8.33E-06
    4     -93.3764626668      8.25E-07
    5     -93.3764626465      1.98E-07
    6     -93.3764626420      6.39E-08
    7     -93.3764626448      1.51E-08
    8     -93.3764626423      2.74E-09 Convergence criterion met
 ---------------------------------------
 One-Electron    Energy =  -173.4585046526
 Total Coulomb   Energy =    68.4371177159
 Alpha Exchange  Energy =    -1.5397820156
 Beta  Exchange  Energy =    -1.5397820156
 DFT   Exchange  Energy =    -9.0274605618
 DFT Correlation Energy =    -0.4419861632
 Nuclear Repu.   Energy =    24.1939350506
 Nuclear Attr.   Energy =  -266.5495462438
 Kinetic         Energy =    93.0910415912
 SCF time:  CPU 13.05 s  wall 13.67 s
 Final Alpha MO Eigenvalues
            1           2           3           4           5           6
    1 -14.2474527 -10.1835502  -1.0914586  -0.7578479  -0.5259023  -0.5064881
            7           8           9          10          11          12
    1  -0.5064881   0.0351676   0.0778923   0.0778923   0.0833179   0.1401626
 Analysis of SCF Wavefunction
 
 --------------------------------------------------------------
                    Orbital Energies (a.u.)
 --------------------------------------------------------------
 
 Alpha MOs
 -- Occupied --
-14.247 -10.184  -1.091  -0.758  -0.526  -0.506  -0.506
 -- Virtual --
  0.035   0.078   0.078   0.083   0.140   0.140   0.163   0.190
  0.250   0.250   0.264   0.324   0.472   0.626   0.626   0.666
  0.733   0.733   0.772   0.799   0.799   0.866   0.923   0.923
  1.050   1.278   1.291   1.292   1.303   1.303   1.553   1.864
  1.864   1.915   2.147   2.551   2.809   2.809   2.875   2.875
  2.942   2.942   2.995   2.995   3.107   3.327   3.327   3.396
  3.396   3.518   3.781   3.781   3.889   3.889   4.341   4.428
  4.428   4.461   4.496   4.496   4.906   4.907   5.213   5.213
  5.312   6.110   6.110   6.359   7.298  24.403  27.297  27.297
 28.795  36.103  37.541  37.541  38.344  40.471  40.582  40.654
 40.685  40.685  40.845  41.107  41.319  41.319  41.627
 --------------------------------------------------------------
 
          Ground-State Mulliken Net Atomic Charges

     Atom                 Charge (a.u.)
  ----------------------------------------
      1 C                     0.049613
      2 N                    -0.203894
      3 H                     0.154281
  ----------------------------------------
  Sum of atomic charges =     0.000000

 -----------------------------------------------------------------
                    Cartesian Multipole Moments
 -----------------------------------------------------------------
    Charge (ESU x 10^10)
                 0.0000
    Dipole Moment (Debye)
         X       0.0000      Y       0.0000      Z      -3.1404
       Tot       3.1404
    Quadrupole Moments (Debye-Ang)
        XX     -11.6756     XY       0.0000     YY     -11.6756
        XZ       0.0000     YZ       0.0000     ZZ     -12.7798
    Octapole Moments (Debye-Ang^2)
       XXX       0.0000    XXY       0.0000    XYY       0.0000
       YYY       0.0000    XXZ      -6.2015    XYZ       0.0000
       YYZ      -6.2015    XZZ       0.0000    YZZ       0.0000
       ZZZ     -24.7021
    Hexadecapole Moments (Debye-Ang^3)
      XXXX     -11.7664   XXXY       0.0000   XXYY      -3.9221
      XYYY       0.0000   YYYY     -11.7664   XXXZ       0.0000
      XXYZ       0.0000   XYYZ       0.0000   YYYZ       0.0000
      XXZZ     -12.3216   XYZZ       0.0000   YYZZ     -12.3216
      XZZZ       0.0000   YZZZ       0.0000   ZZZZ     -66.9480
 -----------------------------------------------------------------
 Calculating analytic gradient of the SCF energy
 Gradient of AOints
            1           2           3
    1  -0.0000001   0.0000001   0.0000000
    2  -0.0000001   0.0000001   0.0000000
    3   9.4803017 -12.8049965   3.3246948
 Gradient of XC Energy
            1           2           3
    1   0.0000000  -0.0000000  -0.0000000
    2   0.0000000  -0.0000000   0.0000000
    3  -0.3158901   0.5023119  -0.1864217
 Gradient of SCF Energy
            1           2           3
    1   0.0000000  -0.0000000  -0.0000000
    2   0.0000000  -0.0000000   0.0000000
    3  -0.0005434  -0.0001486   0.0006920
 Max gradient component =       6.920E-04
 RMS gradient           =       2.975E-04
 Gradient time:  CPU 6.59 s  wall 6.70 s
 Writing REM_CC_EA            3
 ----------------------------------------------------
       Standard Nuclear Orientation (Angstroms)
    I     Atom         X            Y            Z
 ----------------------------------------------------
    1      C       0.000000     0.000000     0.005479
    2      N       0.000000     0.000000     1.143142
    3      H       0.000000     0.000000    -1.062957
 ----------------------------------------------------
 Nuclear Repulsion Energy =    24.1868383066 hartrees
 There are        7 alpha and        7 beta electrons

                       Distance Matrix (Angstroms)
             C (  1)   N (  2)
   N (  2)  1.137663
   H (  3)  1.068435  2.206098
 
 Requested basis set is G3large
 There are 26 shells and 94 basis functions
 A cutoff of  1.0D-11 yielded    348 shell pairs
 There are   4588 function pairs (  5866 Cartesian)
Evaluating contribution to one-electron hamiltonian from nuclear
 Smallest overlap matrix eigenvalue = 4.79E-04
 Multipole matrices computed through 2nd order
 Guess MOs from SCF MO coefficient file
Reading MOs from coefficient file
Reading MOs from coefficient file
 Long-range K will be added via erf
 Coulomb attenuation parameter = 0.45 bohr**(-1)
 A restricted Kohn-Sham SCF calculation will be
 performed using Pulay DIIS extrapolation
 Exchange:  wPBE + LR-HF      Correlation:  PBE
 Using SG-1 standard quadrature grid
 SCF converges when DIIS error is below 1.0E-08
 ---------------------------------------
  Cycle       Energy         DIIS Error
 ---------------------------------------
    1     -93.3756228756      5.75E-05
    2     -93.3764620875      1.45E-05
    3     -93.3764620990      1.64E-05
    4     -93.3764623278      1.50E-06
    5     -93.3764623296      2.95E-07
    6     -93.3764623299      7.36E-08
    7     -93.3764623275      1.14E-08
    8     -93.3764623318      1.82E-09 Convergence criterion met
 ---------------------------------------
 One-Electron    Energy =  -173.4458964697
 Total Coulomb   Energy =    68.4308692477
 Alpha Exchange  Energy =    -1.5397177738
 Beta  Exchange  Energy =    -1.5397177738
 DFT   Exchange  Energy =    -9.0268722521
 DFT Correlation Energy =    -0.4419656168
 Nuclear Repu.   Energy =    24.1868383066
 Nuclear Attr.   Energy =  -266.5340130840
 Kinetic         Energy =    93.0881166143
 SCF time:  CPU 13.02 s  wall 13.65 s
 Final Alpha MO Eigenvalues
            1           2           3           4           5           6
    1 -14.2474171 -10.1836973  -1.0914345  -0.7572587  -0.5258592  -0.5064555
            7           8           9          10          11          12
    1  -0.5064555   0.0351539   0.0778919   0.0778919   0.0832753   0.1401997
 Analysis of SCF Wavefunction
 
 --------------------------------------------------------------
                    Orbital Energies (a.u.)
 --------------------------------------------------------------
 
 Alpha MOs
 -- Occupied --
-14.247 -10.184  -1.091  -0.757  -0.526  -0.506  -0.506
 -- Virtual --
  0.035   0.078   0.078   0.083   0.140   0.140   0.163   0.190
  0.250   0.250   0.264   0.324   0.472   0.626   0.626   0.667
  0.733   0.733   0.772   0.798   0.798   0.866   0.923   0.923
  1.050   1.278   1.292   1.292   1.302   1.302   1.551   1.864
  1.864   1.916   2.147   2.551   2.809   2.809   2.875   2.875
  2.942   2.942   2.995   2.995   3.107   3.327   3.327   3.395
  3.395   3.515   3.781   3.781   3.889   3.889   4.339   4.428
  4.428   4.459   4.492   4.492   4.906   4.907   5.213   5.213
  5.310   6.108   6.108   6.355   7.290  24.403  27.297  27.297
 28.790  36.101  37.540  37.540  38.343  40.471  40.582  40.653
 40.685  40.685  40.845  41.107  41.319  41.319  41.627
 --------------------------------------------------------------
 
          Ground-State Mulliken Net Atomic Charges

     Atom                 Charge (a.u.)
  ----------------------------------------
      1 C                     0.049515
      2 N                    -0.203870
      3 H                     0.154355
  ----------------------------------------
  Sum of atomic charges =     0.000000

 -----------------------------------------------------------------
                    Cartesian Multipole Moments
 -----------------------------------------------------------------
    Charge (ESU x 10^10)
                 0.0000
    Dipole Moment (Debye)
         X       0.0000      Y       0.0000      Z      -3.1430
       Tot       3.1430
    Quadrupole Moments (Debye-Ang)
        XX     -11.6781     XY       0.0000     YY     -11.6781
        XZ       0.0000     YZ       0.0000     ZZ     -12.7752
    Octapole Moments (Debye-Ang^2)
       XXX       0.0000    XXY       0.0000    XYY       0.0000
       YYY       0.0000    XXZ      -6.1988    XYZ       0.0000
       YYZ      -6.1988    XZZ       0.0000    YZZ       0.0000
       ZZZ     -24.7081
    Hexadecapole Moments (Debye-Ang^3)
      XXXX     -11.7706   XXXY       0.0000   XXYY      -3.9235
      XYYY       0.0000   YYYY     -11.7706   XXXZ       0.0000
      XXYZ       0.0000   XYYZ       0.0000   YYYZ       0.0000
      XXZZ     -12.3268   XYZZ       0.0000   YYZZ     -12.3268
      XZZZ       0.0000   YZZZ       0.0000   ZZZZ     -66.9500
 -----------------------------------------------------------------
 Calculating analytic gradient of the SCF energy
 Gradient of AOints
            1           2           3
    1  -0.0000001   0.0000001   0.0000000
    2   0.0000001  -0.0000001  -0.0000000
    3   9.4868289 -12.8098930   3.3230641
 Gradient of XC Energy
            1           2           3
    1   0.0000000  -0.0000000  -0.0000000
    2  -0.0000000   0.0000000   0.0000000
    3  -0.3163673   0.5025882  -0.1862209
 Gradient of SCF Energy
            1           2           3
    1   0.0000000  -0.0000000  -0.0000000
    2  -0.0000000   0.0000000   0.0000000
    3   0.0010480  -0.0001914  -0.0008566
 Max gradient component =       1.048E-03
 RMS gradient           =       4.557E-04
 Gradient time:  CPU 6.66 s  wall 6.78 s
Dipole drv :
gprntSymmMtrx error report: 
 Final Hessian.
            1           2           3           4           5           6
    1   0.0682382  -0.0000002  -0.0000006  -0.0328189   0.0000005   0.0000009
    2  -0.0000002   0.0682382   0.0000007   0.0000000  -0.0328178  -0.0000002
    3  -0.0000006   0.0000007   1.8365477  -0.0000022  -0.0000027  -1.4154795
    4  -0.0328189   0.0000000  -0.0000022   0.0157006  -0.0000002   0.0000026
    5   0.0000005  -0.0328178  -0.0000027  -0.0000002   0.0156973   0.0000022
    6   0.0000009  -0.0000002  -1.4154795   0.0000026   0.0000022   1.4041526
    7  -0.0354138   0.0000000   0.0000008   0.0171126   0.0000000  -0.0000010
    8   0.0000020  -0.0354137   0.0000012  -0.0000018   0.0171138  -0.0000010
    9  -0.0000002   0.0000015  -0.4210685  -0.0000004  -0.0000019   0.0113264
            7           8           9
    1  -0.0354138   0.0000020  -0.0000002
    2   0.0000000  -0.0354137   0.0000015
    3   0.0000008   0.0000012  -0.4210685
    4   0.0171126  -0.0000018  -0.0000004
    5   0.0000000   0.0171138  -0.0000019
    6  -0.0000010  -0.0000010   0.0113264
    7   0.0183013  -0.0000002   0.0000000
    8  -0.0000002   0.0182998   0.0000001
    9   0.0000000   0.0000001   0.4097427
 Writing REM_CC_EA            3
 ----------------------------------------------------
       Standard Nuclear Orientation (Angstroms)
    I     Atom         X            Y            Z
 ----------------------------------------------------
    1      C       0.000000     0.000000     0.005479
    2      N       0.000000     0.000000     1.143142
    3      H       0.000000     0.000000    -1.061957
 ----------------------------------------------------
 Nuclear Repulsion Energy =    24.1903837226 hartrees
 There are        7 alpha and        7 beta electrons
 old dipole drv.
            1           2           3           4           5           6
    1   0.0791444  -0.0000063   0.0000005  -0.3349356   0.0000041  -0.0000002
    2   0.0000001   0.0791438  -0.0000017   0.0000001  -0.3349316  -0.0000001
    3   0.0000008  -0.0000002  -0.2328045  -0.0000118  -0.0000013  -0.0427435
            7           8           9
    1   0.2557611  -0.0000065   0.0000001
    2  -0.0000008   0.2557626  -0.0000025
    3   0.0000008   0.0000011   0.2755562
 New transposed dipole drv.
            1           2           3
    1   0.0791444   0.0000001   0.0000008
    2  -0.0000063   0.0791438  -0.0000002
    3   0.0000005  -0.0000017  -0.2328045
    4  -0.3349356   0.0000001  -0.0000118
    5   0.0000041  -0.3349316  -0.0000013
    6  -0.0000002  -0.0000001  -0.0427435
    7   0.2557611  -0.0000008   0.0000008
    8  -0.0000065   0.2557626   0.0000011
    9   0.0000001  -0.0000025   0.2755562
FINAL TENSOR RESULT:
Order 2, Length 9
Order 1, Length 9
   0.0682382  -0.0000002  -0.0000006  -0.0328189   0.0000005   0.0000009  -0.0354138   0.0000020  -0.0000002
Order 1, Length 9
  -0.0000002   0.0682382   0.0000007   0.0000000  -0.0328178  -0.0000002   0.0000000  -0.0354137   0.0000015
Order 1, Length 9
  -0.0000006   0.0000007   1.8365477  -0.0000022  -0.0000027  -1.4154795   0.0000008   0.0000012  -0.4210685
Order 1, Length 9
  -0.0328189   0.0000000  -0.0000022   0.0157006  -0.0000002   0.0000026   0.0171126  -0.0000018  -0.0000004
Order 1, Length 9
   0.0000005  -0.0328178  -0.0000027  -0.0000002   0.0156973   0.0000022   0.0000000   0.0171138  -0.0000019
Order 1, Length 9
   0.0000009  -0.0000002  -1.4154795   0.0000026   0.0000022   1.4041526  -0.0000010  -0.0000010   0.0113264
Order 1, Length 9
  -0.0354138   0.0000000   0.0000008   0.0171126   0.0000000  -0.0000010   0.0183013  -0.0000002   0.0000000
Order 1, Length 9
   0.0000020  -0.0354137   0.0000012  -0.0000018   0.0171138  -0.0000010  -0.0000002   0.0182998   0.0000001
Order 1, Length 9
  -0.0000002   0.0000015  -0.4210685  -0.0000004  -0.0000019   0.0113264   0.0000000   0.0000001   0.4097427


 # Finishing finite difference calculation for IDERIV #
 ######################################################
 ######################################################
 Requested basis set is G3large
 There are 26 shells and 94 basis functions
 **********************************************************************
 **                                                                  **
 **                       VIBRATIONAL ANALYSIS                       **
 **                       --------------------                       **
 **                                                                  **
 **        VIBRATIONAL FREQUENCIES (CM**-1) AND NORMAL MODES         **
 **     FORCE CONSTANTS (mDYN/ANGSTROM) AND REDUCED MASSES (AMU)     **
 **                  INFRARED INTENSITIES (KM/MOL)                   **
 **                                                                  **
 **********************************************************************
 

 Mode:                 1                      2                      3
 Frequency:       812.79                 812.81                2293.78
 Force Cnst:      0.5246                 0.5246                15.0205
 Red. Mass:       1.3478                 1.3478                 4.8454
 IR Active:          YES                    YES                    YES
 IR Intens:       34.042                 34.042                  4.624
 Raman Active:       YES                    YES                    YES
               X      Y      Z        X      Y      Z        X      Y      Z
 C         -0.061 -0.148  0.000   -0.148  0.061  0.000    0.000  0.000 -0.399
 N          0.025  0.062  0.000    0.062 -0.025  0.000    0.000  0.000  0.401
 H          0.373  0.911  0.000    0.911 -0.373  0.000    0.000  0.000 -0.825
 TransDip   0.071  0.173  0.000    0.173 -0.071  0.000    0.000  0.000 -0.069

 Mode:                 4
 Frequency:      3489.38
 Force Cnst:      8.6480
 Red. Mass:       1.2055
 IR Active:          YES
 IR Intens:       73.374
 Raman Active:       YES
               X      Y      Z
 C          0.000  0.000 -0.128
 N          0.000  0.000  0.038
 H          0.000  0.000  0.991
 TransDip   0.000  0.000  0.274

 STANDARD THERMODYNAMIC QUANTITIES AT   298.18 K  AND     1.00 ATM

   This Molecule has  0 Imaginary Frequencies
   Zero point vibrational energy:       10.591 kcal/mol

   Atom    1 Element C  Has Mass   12.00000
   Atom    2 Element N  Has Mass   14.00307
   Atom    3 Element H  Has Mass    1.00783
   Molecular Mass:    27.010900 amu
   Principal axes and moments of inertia in atomic units:
                             1           2           3
    Eigenvalues --        0.00000    39.64778    39.64778
          X               0.00000     0.79567     0.60574
          Y               0.00000    -0.60574     0.79567
          Z               1.00000     0.00000     0.00000
   Rotational Symmetry Number is   1
   The Molecule is a Symmetric Top
   Translational Enthalpy:        0.889 kcal/mol
   Rotational Enthalpy:           0.889 kcal/mol
   Vibrational Enthalpy:         10.685 kcal/mol
   gas constant (RT):             0.593 kcal/mol
   Translational Entropy:        35.817  cal/mol.K
   Rotational Entropy:          -18.854  cal/mol.K
   Vibrational Entropy:           0.395  cal/mol.K

   Total Enthalpy:               13.056 kcal/mol
   Total Entropy:                17.357  cal/mol.K
 Total job time:  365.67s(wall), 352.47s(cpu) 
 Wed Jul  3 20:22:06 2013

        *************************************************************
        *                                                           *
        *  Thank you very much for using Q-Chem.  Have a nice day.  *
        *                                                           *
        *************************************************************


0 sent ACK to 0 
now end server 0 ... 
