Process 0 of 1 is on cl009.stfx.acenet.ca - thread support 1
initial socket setup ...start
initial socket setup ...done 
now start server 0 ... 

cmd = /usr/bin/ssh clhead /usr/local/qchem/bin/get_hostid 831918588 > /scratch/tmp/6065258.1.short.q/qchem26343/lic.dat
                  Welcome to Q-Chem
     A Quantum Leap Into The Future Of Chemistry

 Y. Shao, L. Fusti-Molnar, Y. Jung, J. Kussmann, C. Ochsenfeld,
 S. T. Brown, A. T. B. Gilbert, L. V. Slipchenko,S. V. Levchenko,
 D. P. O'Neill, R. A. DiStasio Jr., R. C. Lochan, T. Wang,
 G. J. O. Beran, N. A. Besley, J. M. Herbert, C. Y. Lin,
 T. Van Voorhis, S. H. Chien, A. Sodt, R. P. Steele, 
 V. A. Rassolov, P. E. Maslen, P. P. Korambath, R. D. Adamson,
 B. Austin, J. Baker, E. F. C. Byrd, H. Dachsel, R. J. Doerksen,
 A. Dreuw, B. D. Dunietz, A. D. Dutoi, T. R. Furlani,
 S. R. Gwaltney, A. Heyden, S. Hirata, C.-P. Hsu, G. Kedziora,
 R. Z. Khaliullin, P. Klunzinger, A. M. Lee, M. S. Lee, W. Liang,
 I. Lotan, N. Nair, B. Peters, E. I. Proynov, P. A. Pieniazek, 
 Y. M. Rhee, J. Ritchie, E. Rosta, C. D. Sherrill, 
 A. C. Simmonett, J. E. Subotnik, H. L. Woodcock III,
 W. Zhang, A. T. Bell, A. K. Chakraborty, D. M. Chipman,
 F. J. Keil, A. Warshel, W. J. Hehre, H. F. Schaefer III,
 J. Kong, A. I. Krylov, P. M. W. Gill, M. Head-Gordon,
 Q-Chem, Version 3.1, Q-Chem, Inc., Pittsburgh, PA (2007).

 Additional authors for Version 3.1: 
 Z. Gan, Y. Zhao, N. E. Schultz, D. Truhlar, E. Epifanovsky and M. Oana.

 Additional authors for Version 3.2: 
 R. Baer, B. R. Brooks, D. Casanova, J.-D. Chai, C.-L. Cheng, 
 C. Cramer, D. Crittenden, A. Ghysels, G. Hawkins, E. G. Hohenstein, 
 C. Kelley, W. Kurlancheek, D. Liotard, E. Livshits, P. Manohar, 
 A. Marenich, D. Neuhauser, R. Olson, M. A. Rohrdanz, K. S. Thanthiriwatte, 
 A. J. W. Thom, V. Vanovschi, C. F. Williams, Q. Wu and Z.-Q. You. 


 Intel X86 Linux Version

 Q-chem begins on Mon Jul  8 16:57:50 2013  

 Parallel job on  1  processors
Processing $rem in /usr/local/qchem/config/preferences.

theFileMan(): MAXOPENFILES=974 MAX_SUB_FILE_NUM=16
Maximum size of a physical file is 2.0 GB, maximum size of a tmp-file is 32.0 GB


--------------------------------------------------------------
User input:
--------------------------------------------------------------

$molecule
-1,2
C         -0.00013        0.00000        0.01496
Si        -0.00042        0.00000        1.87479
H          1.01781        0.00000       -0.37178
H         -0.50853       -0.88134       -0.37292
H         -0.50853        0.88134       -0.37292
H         -1.38686        0.00000        2.39921
H          0.69333       -1.20114        2.39726
H          0.69333        1.20114        2.39726
$end

$comment
negative
$end

$xc_functional
C PBE   1.00
X wPBE  1.00
$end

$rem
SYMMETRY_DECOMPOSITION	0
exchange 		general
LRC_DFT                 true
BASIS                   g3large
omega			410
mem_static              760
max_scf_cycles          200
scf_final_print         1
sym_ignore              true
$end

--------------------------------------------------------------
 Writing REM_CC_EA            8
 ----------------------------------------------------
       Standard Nuclear Orientation (Angstroms)
    I     Atom         X            Y            Z
 ----------------------------------------------------
    1      C      -0.000130     0.000000     0.014960
    2      Si     -0.000420     0.000000     1.874790
    3      H       1.017810     0.000000    -0.371780
    4      H      -0.508530    -0.881340    -0.372920
    5      H      -0.508530     0.881340    -0.372920
    6      H      -1.386860     0.000000     2.399210
    7      H       0.693330    -1.201140     2.397260
    8      H       0.693330     1.201140     2.397260
 ----------------------------------------------------
 Nuclear Repulsion Energy =    63.1460299075 hartrees
 There are       14 alpha and       13 beta electrons
 Requested basis set is G3large
 There are 65 shells and 168 basis functions

Total QAlloc Memory Limit   2000 MB
Mega-Array Size       743 MB
MEM_STATIC part       760 MB

                       Distance Matrix (Angstroms)
             C (  1)   Si(  2)   H (  3)   H (  4)   H (  5)   H (  6)
   Si(  2)  1.859830
   H (  3)  1.088931  2.466550
   H (  4)  1.088890  2.467212  1.762520
   H (  5)  1.088890  2.467212  1.762520  1.762680
   H (  6)  2.758200  1.482306  3.668899  3.038573  3.038573
   H (  7)  2.756624  1.482228  3.035722  3.036550  3.668118  2.402068
   H (  8)  2.756624  1.482228  3.035722  3.668118  3.036550  2.402068
             H (  7)
   H (  8)  2.402280
 
 A cutoff of  1.0D-08 yielded   2044 shell pairs
 There are  13820 function pairs ( 17231 Cartesian)
Evaluating contribution to one-electron hamiltonian from nuclear
 Smallest overlap matrix eigenvalue = 1.35E-04
 Multipole matrices computed through 2nd order

  Scale SEOQF with 1.000000e-01/1.000000e-01/1.000000e-01

 Standard Electronic Orientation quadrupole field applied
 Nucleus-field energy     =    -0.0000000067 hartrees
 Guess from superposition of atomic densities
 Warning:  Energy on first SCF cycle will be non-variational
 Long-range K will be added via erf
 Coulomb attenuation parameter = 0.41 bohr**(-1)
 An unrestricted Kohn-Sham SCF calculation will be
 performed using Pulay DIIS extrapolation
 Exchange:  wPBE + LR-HF      Correlation:  PBE
 Using SG-1 standard quadrature grid
 SCF converges when DIIS error is below 1.0E-05
 Requested basis set is G3large
 There are 65 shells and 168 basis functions
 A cutoff of  1.0D-08 yielded   2044 shell pairs
 There are  13820 function pairs ( 17231 Cartesian)
 Warning!  Inaccurate integrated density:
   Number of electrons =    27
   Numerical integral  =    25.999984890803
   Relative error      =    -3.7037596637 %
 ---------------------------------------
  Cycle       Energy         DIIS Error
 ---------------------------------------
    1    -331.2673490326      2.77E-02
    2    -330.9905618424      3.30E-03
    3    -331.0375318589      2.41E-03
    4    -331.0614332286      3.50E-04
    5    -331.0663775930      1.67E-04
    6    -331.0685118058      9.15E-05
    7    -331.0694622225      3.79E-05
    8    -331.0697160346      1.62E-05
    9    -331.0697717755      7.16E-06 Convergence criterion met
 ---------------------------------------
 One-Electron    Energy =  -584.9319097221
 Total Coulomb   Energy =   219.2559768042
 Alpha Exchange  Energy =    -2.7264812052
 Beta  Exchange  Energy =    -2.6595203185
 DFT   Exchange  Energy =   -22.2667853899
 DFT Correlation Energy =    -0.8870818449
 Nuclear Repu.   Energy =    63.1460299008
 Nuclear Attr.   Energy =  -915.3197063800
 Kinetic         Energy =   330.3877966579
 <S^2> = 0.7502
 SCF time:  CPU 105.97 s  wall 106.59 s
 Final Alpha MO Eigenvalues
            1           2           3           4           5           6
    1 -65.4809890  -9.9469145  -5.1431012  -3.5444367  -3.5444220  -3.5430673
            7           8           9          10          11          12
    1  -0.7154177  -0.5363483  -0.3984265  -0.3983427  -0.3235323  -0.3234883
           13          14          15          16          17          18
    1  -0.3094326   0.0280734   0.1482299   0.1508821   0.1509678   0.1761986
           19
    1   0.1884677
 Final Beta MO Eigenvalues
            1           2           3           4           5           6
    1 -65.4809028  -9.9463209  -5.1430027  -3.5443764  -3.5443616  -3.5428206
            7           8           9          10          11          12
    1  -0.7137582  -0.5346071  -0.3975949  -0.3975103  -0.3234674  -0.3234204
           13          14          15          16          17          18
    1  -0.3081331   0.1389214   0.1549278   0.1655045   0.1657423   0.1828061
 Analysis of SCF Wavefunction
 
 --------------------------------------------------------------
                    Orbital Energies (a.u.)
 --------------------------------------------------------------
 
 Alpha MOs
 -- Occupied --
-65.481  -9.947  -5.143  -3.544  -3.544  -3.543  -0.715  -0.536
 -0.398  -0.398  -0.324  -0.323  -0.309   0.028
 -- Virtual --
  0.148   0.151   0.151   0.176   0.188   0.189   0.200   0.200
  0.257   0.269   0.269   0.270   0.302   0.303   0.303   0.316
  0.351   0.367   0.368   0.431   0.431   0.480   0.481   0.483
  0.488   0.530   0.530   0.616   0.634   0.634   0.646   0.671
  0.716   0.716   0.730   0.769   0.770   0.777   0.819   0.819
  0.884   0.912   0.923   0.923   0.968   0.968   1.038   1.047
  1.047   1.082   1.097   1.139   1.215   1.215   1.273   1.273
  1.315   1.355   1.355   1.421   1.421   1.475   1.517   1.544
  1.544   1.550   1.560   1.560   1.646   1.647   1.715   1.716
  1.725   1.773   1.773   1.816   1.865   2.357   2.399   2.408
  2.408   2.469   2.470   2.581   2.756   2.756   2.859   3.070
  3.070   3.194   3.219   3.349   3.357   3.358   3.473   3.473
  3.573   3.573   3.617   3.788   3.789   3.905   3.906   3.928
  4.033   4.034   4.144   4.176   4.176   4.304   4.305   4.305
  4.351   4.372   4.372   4.483   4.484   4.489   4.613   4.626
  4.627   4.688   4.738   4.883   4.884   5.299   5.915   5.915
  6.468  11.605  11.605  11.943  17.730  17.813  17.911  17.993
 18.049  22.343  22.358  22.366  22.366  22.373  22.374  22.399
 24.295  27.994  28.252  28.252  41.124  41.140  41.359  41.401
 41.447 141.267
 
 Beta MOs
 -- Occupied --
-65.481  -9.946  -5.143  -3.544  -3.544  -3.543  -0.714  -0.535
 -0.398  -0.398  -0.323  -0.323  -0.308
 -- Virtual --
  0.139   0.155   0.166   0.166   0.183   0.190   0.190   0.202
  0.202   0.256   0.265   0.266   0.274   0.299   0.304   0.304
  0.318   0.352   0.368   0.368   0.431   0.431   0.478   0.480
  0.481   0.487   0.529   0.529   0.615   0.631   0.631   0.644
  0.672   0.716   0.716   0.730   0.770   0.770   0.775   0.817
  0.817   0.881   0.911   0.923   0.923   0.967   0.967   1.038
  1.047   1.047   1.082   1.098   1.139   1.215   1.215   1.273
  1.273   1.315   1.355   1.355   1.421   1.421   1.476   1.518
  1.544   1.544   1.550   1.560   1.560   1.647   1.647   1.715
  1.716   1.725   1.773   1.773   1.817   1.864   2.357   2.400
  2.409   2.409   2.470   2.470   2.582   2.756   2.756   2.859
  3.070   3.070   3.194   3.219   3.348   3.358   3.358   3.474
  3.474   3.573   3.573   3.618   3.789   3.789   3.905   3.906
  3.930   4.033   4.034   4.144   4.176   4.176   4.303   4.304
  4.304   4.351   4.372   4.372   4.484   4.484   4.489   4.613
  4.626   4.627   4.688   4.739   4.883   4.884   5.299   5.916
  5.916   6.468  11.605  11.605  11.943  17.730  17.813  17.911
 17.993  18.049  22.343  22.358  22.366  22.366  22.373  22.374
 22.399  24.296  27.994  28.252  28.252  41.125  41.140  41.359
 41.401  41.447 141.267
 --------------------------------------------------------------
 
          Ground-State Mulliken Net Atomic Charges

     Atom                 Charge (a.u.)    Spin (a.u.)
  --------------------------------------------------------
      1 C                     2.705884      -2.942372
      2 Si                    0.726894      -0.503377
      3 H                    -1.202454       1.302837
      4 H                    -1.216654       1.317580
      5 H                    -1.185898       1.285734
      6 H                    -0.275857       0.179910
      7 H                    -0.276356       0.180713
      8 H                    -0.275558       0.178976
  --------------------------------------------------------
  Sum of atomic charges =    -1.000000
  Sum of spin   charges =     1.000000

 -----------------------------------------------------------------
                    Cartesian Multipole Moments
 -----------------------------------------------------------------
    Charge (ESU x 10^10)
                -4.8032
    Dipole Moment (Debye)
         X      -0.0024      Y       0.1234      Z       2.0167
       Tot       2.0205
    Quadrupole Moments (Debye-Ang)
        XX     -49.5503     XY      -0.0838     YY     -49.5444
        XZ      -0.0034     YZ      -0.0528     ZZ     -48.1256
    Octapole Moments (Debye-Ang^2)
       XXX      -1.3917    XXY       0.4862    XYY       1.3592
       YYY       1.4588    XXZ     -20.0090    XYZ       0.0413
       YYZ     -20.0044    XZZ       0.0074    YZZ       0.4524
       ZZZ     -71.6560
    Hexadecapole Moments (Debye-Ang^3)
      XXXX    -374.7330   XXXY      -0.6585   XXYY    -124.8887
      XYYY      -0.7378   YYYY    -374.6359   XXXZ       7.4237
      XXYZ      -0.0767   XYYZ      -7.4042   YYYZ      -0.2301
      XXZZ    -180.9355   XYZZ      -0.2152   YYZZ    -180.9159
      XZZZ       0.0332   YZZZ      -0.2196   ZZZZ    -671.8817
 -----------------------------------------------------------------
 Total job time:  106.82s(wall), 106.19s(cpu) 
 Mon Jul  8 16:59:37 2013

        *************************************************************
        *                                                           *
        *  Thank you very much for using Q-Chem.  Have a nice day.  *
        *                                                           *
        *************************************************************


0 sent ACK to 0 
now end server 0 ... 
 
**********************************************************************
Job 2 of 3 
**********************************************************************
 
Process 0 of 1 is on cl009.stfx.acenet.ca - thread support 1
initial socket setup ...start
initial socket setup ...done 
now start server 0 ... 

cmd = /usr/bin/ssh clhead /usr/local/qchem/bin/get_hostid 658116247 > /scratch/tmp/6065258.1.short.q/qchem26343/lic.dat
                  Welcome to Q-Chem
     A Quantum Leap Into The Future Of Chemistry

 Y. Shao, L. Fusti-Molnar, Y. Jung, J. Kussmann, C. Ochsenfeld,
 S. T. Brown, A. T. B. Gilbert, L. V. Slipchenko,S. V. Levchenko,
 D. P. O'Neill, R. A. DiStasio Jr., R. C. Lochan, T. Wang,
 G. J. O. Beran, N. A. Besley, J. M. Herbert, C. Y. Lin,
 T. Van Voorhis, S. H. Chien, A. Sodt, R. P. Steele, 
 V. A. Rassolov, P. E. Maslen, P. P. Korambath, R. D. Adamson,
 B. Austin, J. Baker, E. F. C. Byrd, H. Dachsel, R. J. Doerksen,
 A. Dreuw, B. D. Dunietz, A. D. Dutoi, T. R. Furlani,
 S. R. Gwaltney, A. Heyden, S. Hirata, C.-P. Hsu, G. Kedziora,
 R. Z. Khaliullin, P. Klunzinger, A. M. Lee, M. S. Lee, W. Liang,
 I. Lotan, N. Nair, B. Peters, E. I. Proynov, P. A. Pieniazek, 
 Y. M. Rhee, J. Ritchie, E. Rosta, C. D. Sherrill, 
 A. C. Simmonett, J. E. Subotnik, H. L. Woodcock III,
 W. Zhang, A. T. Bell, A. K. Chakraborty, D. M. Chipman,
 F. J. Keil, A. Warshel, W. J. Hehre, H. F. Schaefer III,
 J. Kong, A. I. Krylov, P. M. W. Gill, M. Head-Gordon,
 Q-Chem, Version 3.1, Q-Chem, Inc., Pittsburgh, PA (2007).

 Additional authors for Version 3.1: 
 Z. Gan, Y. Zhao, N. E. Schultz, D. Truhlar, E. Epifanovsky and M. Oana.

 Additional authors for Version 3.2: 
 R. Baer, B. R. Brooks, D. Casanova, J.-D. Chai, C.-L. Cheng, 
 C. Cramer, D. Crittenden, A. Ghysels, G. Hawkins, E. G. Hohenstein, 
 C. Kelley, W. Kurlancheek, D. Liotard, E. Livshits, P. Manohar, 
 A. Marenich, D. Neuhauser, R. Olson, M. A. Rohrdanz, K. S. Thanthiriwatte, 
 A. J. W. Thom, V. Vanovschi, C. F. Williams, Q. Wu and Z.-Q. You. 


 Intel X86 Linux Version

 Q-chem begins on Mon Jul  8 16:59:40 2013  

 Parallel job on  1  processors
Processing $rem in /usr/local/qchem/config/preferences.

theFileMan(): MAXOPENFILES=974 MAX_SUB_FILE_NUM=16
Maximum size of a physical file is 2.0 GB, maximum size of a tmp-file is 32.0 GB


--------------------------------------------------------------
User input:
--------------------------------------------------------------

$molecule
0,1
C         -0.00013        0.00000        0.01496
Si        -0.00042        0.00000        1.87479
H          1.01781        0.00000       -0.37178
H         -0.50853       -0.88134       -0.37292
H         -0.50853        0.88134       -0.37292
H         -1.38686        0.00000        2.39921
H          0.69333       -1.20114        2.39726
H          0.69333        1.20114        2.39726
$end

$comment
neutral
$end

$xc_functional
C PBE   1.00
X wPBE  1.00
$end


$rem
SYMMETRY_DECOMPOSITION	0
LRC_DFT                 true
exchange 		general
BASIS                   g3large
omega			410
mem_static              760
max_scf_cycles          200
scf_final_print         1
sym_ignore              true
$end

--------------------------------------------------------------
 Writing REM_CC_EA            8
 ----------------------------------------------------
       Standard Nuclear Orientation (Angstroms)
    I     Atom         X            Y            Z
 ----------------------------------------------------
    1      C      -0.000130     0.000000     0.014960
    2      Si     -0.000420     0.000000     1.874790
    3      H       1.017810     0.000000    -0.371780
    4      H      -0.508530    -0.881340    -0.372920
    5      H      -0.508530     0.881340    -0.372920
    6      H      -1.386860     0.000000     2.399210
    7      H       0.693330    -1.201140     2.397260
    8      H       0.693330     1.201140     2.397260
 ----------------------------------------------------
 Nuclear Repulsion Energy =    63.1460299075 hartrees
 There are       13 alpha and       13 beta electrons
 Requested basis set is G3large
 There are 65 shells and 168 basis functions

Total QAlloc Memory Limit   2000 MB
Mega-Array Size       743 MB
MEM_STATIC part       760 MB

                       Distance Matrix (Angstroms)
             C (  1)   Si(  2)   H (  3)   H (  4)   H (  5)   H (  6)
   Si(  2)  1.859830
   H (  3)  1.088931  2.466550
   H (  4)  1.088890  2.467212  1.762520
   H (  5)  1.088890  2.467212  1.762520  1.762680
   H (  6)  2.758200  1.482306  3.668899  3.038573  3.038573
   H (  7)  2.756624  1.482228  3.035722  3.036550  3.668118  2.402068
   H (  8)  2.756624  1.482228  3.035722  3.668118  3.036550  2.402068
             H (  7)
   H (  8)  2.402280
 
 A cutoff of  1.0D-08 yielded   2044 shell pairs
 There are  13820 function pairs ( 17231 Cartesian)
Evaluating contribution to one-electron hamiltonian from nuclear
 Smallest overlap matrix eigenvalue = 1.35E-04
 Multipole matrices computed through 2nd order

  Scale SEOQF with 1.000000e-01/1.000000e-01/1.000000e-01

 Standard Electronic Orientation quadrupole field applied
 Nucleus-field energy     =    -0.0000000067 hartrees
 Guess from superposition of atomic densities
 Warning:  Energy on first SCF cycle will be non-variational
 Long-range K will be added via erf
 Coulomb attenuation parameter = 0.41 bohr**(-1)
 A restricted Kohn-Sham SCF calculation will be
 performed using Pulay DIIS extrapolation
 Exchange:  wPBE + LR-HF      Correlation:  PBE
 Using SG-1 standard quadrature grid
 SCF converges when DIIS error is below 1.0E-05
 Requested basis set is G3large
 There are 65 shells and 168 basis functions
 A cutoff of  1.0D-08 yielded   2044 shell pairs
 There are  13820 function pairs ( 17231 Cartesian)
 ---------------------------------------
  Cycle       Energy         DIIS Error
 ---------------------------------------
    1    -331.2673490326      2.77E-02
    2    -331.0690201595      2.74E-03
    3    -331.0938249714      1.53E-03
    4    -331.1017358103      2.72E-04
    5    -331.1021183559      5.34E-05
    6    -331.1021378833      1.39E-05
    7    -331.1021388116      2.89E-06 Convergence criterion met
 ---------------------------------------
 One-Electron    Energy =  -581.4920068596
 Total Coulomb   Energy =   215.7084581171
 Alpha Exchange  Energy =    -2.6612652087
 Beta  Exchange  Energy =    -2.6612652087
 DFT   Exchange  Energy =   -22.2629436395
 DFT Correlation Energy =    -0.8791459130
 Nuclear Repu.   Energy =    63.1460299008
 Nuclear Attr.   Energy =  -911.8202860611
 Kinetic         Energy =   330.3282792015
 SCF time:  CPU 65.83 s  wall 66.32 s
 Final Alpha MO Eigenvalues
            1           2           3           4           5           6
    1 -65.6090855 -10.0925890  -5.2712878  -3.6723563  -3.6723452  -3.6717270
            7           8           9          10          11          12
    1  -0.8581086  -0.6641611  -0.5412835  -0.5412468  -0.4505149  -0.4505091
           13          14          15          16          17          18
    1  -0.4459266   0.0386688   0.0615035   0.0678760   0.0678890   0.0863140
 Analysis of SCF Wavefunction
 
 --------------------------------------------------------------
                    Orbital Energies (a.u.)
 --------------------------------------------------------------
 
 Alpha MOs
 -- Occupied --
-65.609 -10.093  -5.271  -3.672  -3.672  -3.672  -0.858  -0.664
 -0.541  -0.541  -0.451  -0.451  -0.446
 -- Virtual --
  0.039   0.062   0.068   0.068   0.086   0.095   0.095   0.103
  0.104   0.157   0.157   0.157   0.161   0.187   0.187   0.191
  0.205   0.237   0.239   0.239   0.304   0.304   0.359   0.364
  0.364   0.368   0.413   0.413   0.498   0.504   0.504   0.519
  0.546   0.588   0.588   0.608   0.640   0.640   0.649   0.683
  0.684   0.749   0.783   0.796   0.796   0.843   0.843   0.912
  0.924   0.924   0.949   0.955   1.010   1.080   1.080   1.144
  1.144   1.185   1.211   1.211   1.298   1.298   1.337   1.383
  1.408   1.408   1.426   1.431   1.431   1.507   1.507   1.577
  1.577   1.590   1.648   1.648   1.684   1.726   2.230   2.271
  2.276   2.276   2.340   2.341   2.455   2.613   2.613   2.716
  2.945   2.945   3.048   3.076   3.217   3.217   3.223   3.329
  3.329   3.430   3.430   3.480   3.646   3.646   3.771   3.772
  3.785   3.906   3.907   3.999   4.036   4.036   4.179   4.181
  4.181   4.227   4.243   4.243   4.341   4.342   4.361   4.468
  4.482   4.483   4.543   4.610   4.755   4.755   5.154   5.769
  5.769   6.339  11.477  11.477  11.814  17.602  17.685  17.782
 17.864  17.921  22.215  22.230  22.237  22.238  22.244  22.245
 22.271  24.149  27.849  28.106  28.106  40.979  40.994  41.214
 41.255  41.301 141.139
 --------------------------------------------------------------
 
          Ground-State Mulliken Net Atomic Charges

     Atom                 Charge (a.u.)
  ----------------------------------------
      1 C                    -0.287066
      2 Si                    0.211644
      3 H                     0.098505
      4 H                     0.098471
      5 H                     0.098414
      6 H                    -0.073234
      7 H                    -0.073343
      8 H                    -0.073390
  ----------------------------------------
  Sum of atomic charges =     0.000000

 -----------------------------------------------------------------
                    Cartesian Multipole Moments
 -----------------------------------------------------------------
    Charge (ESU x 10^10)
                 0.0000
    Dipole Moment (Debye)
         X      -0.0010      Y       0.0000      Z      -0.8117
       Tot       0.8117
    Quadrupole Moments (Debye-Ang)
        XX     -22.8408     XY       0.0000     YY     -22.8414
        XZ      -0.0021     YZ      -0.0001     ZZ     -25.0665
    Octapole Moments (Debye-Ang^2)
       XXX       1.6424    XXY      -0.0001    XYY      -1.6241
       YYY      -0.0003    XXZ     -31.5167    XYZ      -0.0003
       YYZ     -31.5202    XZZ       0.0006    YZZ      -0.0003
       ZZZ     -92.6538
    Hexadecapole Moments (Debye-Ang^3)
      XXXX     -55.8552   XXXY      -0.0001   XXYY     -18.6195
      XYYY      -0.0002   YYYY     -55.8628   XXXZ       1.2004
      XXYZ      -0.0003   XYYZ      -1.1598   YYYZ      -0.0006
      XXZZ     -80.5247   XYZZ      -0.0010   YYZZ     -80.5300
      XZZZ       0.0312   YZZZ      -0.0011   ZZZZ    -406.5895
 -----------------------------------------------------------------
 Total job time:  66.52s(wall), 66.03s(cpu) 
 Mon Jul  8 17:00:46 2013

        *************************************************************
        *                                                           *
        *  Thank you very much for using Q-Chem.  Have a nice day.  *
        *                                                           *
        *************************************************************


0 sent ACK to 0 
now end server 0 ... 
 
**********************************************************************
Job 3 of 3 
**********************************************************************
 
Process 0 of 1 is on cl009.stfx.acenet.ca - thread support 1
initial socket setup ...start
initial socket setup ...done 
now start server 0 ... 

cmd = /usr/bin/ssh clhead /usr/local/qchem/bin/get_hostid 1921441517 > /scratch/tmp/6065258.1.short.q/qchem26343/lic.dat
                  Welcome to Q-Chem
     A Quantum Leap Into The Future Of Chemistry

 Y. Shao, L. Fusti-Molnar, Y. Jung, J. Kussmann, C. Ochsenfeld,
 S. T. Brown, A. T. B. Gilbert, L. V. Slipchenko,S. V. Levchenko,
 D. P. O'Neill, R. A. DiStasio Jr., R. C. Lochan, T. Wang,
 G. J. O. Beran, N. A. Besley, J. M. Herbert, C. Y. Lin,
 T. Van Voorhis, S. H. Chien, A. Sodt, R. P. Steele, 
 V. A. Rassolov, P. E. Maslen, P. P. Korambath, R. D. Adamson,
 B. Austin, J. Baker, E. F. C. Byrd, H. Dachsel, R. J. Doerksen,
 A. Dreuw, B. D. Dunietz, A. D. Dutoi, T. R. Furlani,
 S. R. Gwaltney, A. Heyden, S. Hirata, C.-P. Hsu, G. Kedziora,
 R. Z. Khaliullin, P. Klunzinger, A. M. Lee, M. S. Lee, W. Liang,
 I. Lotan, N. Nair, B. Peters, E. I. Proynov, P. A. Pieniazek, 
 Y. M. Rhee, J. Ritchie, E. Rosta, C. D. Sherrill, 
 A. C. Simmonett, J. E. Subotnik, H. L. Woodcock III,
 W. Zhang, A. T. Bell, A. K. Chakraborty, D. M. Chipman,
 F. J. Keil, A. Warshel, W. J. Hehre, H. F. Schaefer III,
 J. Kong, A. I. Krylov, P. M. W. Gill, M. Head-Gordon,
 Q-Chem, Version 3.1, Q-Chem, Inc., Pittsburgh, PA (2007).

 Additional authors for Version 3.1: 
 Z. Gan, Y. Zhao, N. E. Schultz, D. Truhlar, E. Epifanovsky and M. Oana.

 Additional authors for Version 3.2: 
 R. Baer, B. R. Brooks, D. Casanova, J.-D. Chai, C.-L. Cheng, 
 C. Cramer, D. Crittenden, A. Ghysels, G. Hawkins, E. G. Hohenstein, 
 C. Kelley, W. Kurlancheek, D. Liotard, E. Livshits, P. Manohar, 
 A. Marenich, D. Neuhauser, R. Olson, M. A. Rohrdanz, K. S. Thanthiriwatte, 
 A. J. W. Thom, V. Vanovschi, C. F. Williams, Q. Wu and Z.-Q. You. 


 Intel X86 Linux Version

 Q-chem begins on Mon Jul  8 17:00:49 2013  

 Parallel job on  1  processors
Processing $rem in /usr/local/qchem/config/preferences.

theFileMan(): MAXOPENFILES=974 MAX_SUB_FILE_NUM=16
Maximum size of a physical file is 2.0 GB, maximum size of a tmp-file is 32.0 GB


--------------------------------------------------------------
User input:
--------------------------------------------------------------

$molecule
1,2
C         -0.00013        0.00000        0.01496
Si        -0.00042        0.00000        1.87479
H          1.01781        0.00000       -0.37178
H         -0.50853       -0.88134       -0.37292
H         -0.50853        0.88134       -0.37292
H         -1.38686        0.00000        2.39921
H          0.69333       -1.20114        2.39726
H          0.69333        1.20114        2.39726
$end

$comment
positive
$end

$xc_functional
C PBE   1.00
X wPBE  1.00
$end

$rem
SYMMETRY_DECOMPOSITION	0
LRC_DFT                 true
exchange 		general
BASIS                   g3large
omega			410
mem_static              760
max_scf_cycles          200
scf_final_print         1
sym_ignore              true
$end

--------------------------------------------------------------
 Writing REM_CC_EA            8
 ----------------------------------------------------
       Standard Nuclear Orientation (Angstroms)
    I     Atom         X            Y            Z
 ----------------------------------------------------
    1      C      -0.000130     0.000000     0.014960
    2      Si     -0.000420     0.000000     1.874790
    3      H       1.017810     0.000000    -0.371780
    4      H      -0.508530    -0.881340    -0.372920
    5      H      -0.508530     0.881340    -0.372920
    6      H      -1.386860     0.000000     2.399210
    7      H       0.693330    -1.201140     2.397260
    8      H       0.693330     1.201140     2.397260
 ----------------------------------------------------
 Nuclear Repulsion Energy =    63.1460299075 hartrees
 There are       13 alpha and       12 beta electrons
 Requested basis set is G3large
 There are 65 shells and 168 basis functions

Total QAlloc Memory Limit   2000 MB
Mega-Array Size       743 MB
MEM_STATIC part       760 MB

                       Distance Matrix (Angstroms)
             C (  1)   Si(  2)   H (  3)   H (  4)   H (  5)   H (  6)
   Si(  2)  1.859830
   H (  3)  1.088931  2.466550
   H (  4)  1.088890  2.467212  1.762520
   H (  5)  1.088890  2.467212  1.762520  1.762680
   H (  6)  2.758200  1.482306  3.668899  3.038573  3.038573
   H (  7)  2.756624  1.482228  3.035722  3.036550  3.668118  2.402068
   H (  8)  2.756624  1.482228  3.035722  3.668118  3.036550  2.402068
             H (  7)
   H (  8)  2.402280
 
 A cutoff of  1.0D-08 yielded   2044 shell pairs
 There are  13820 function pairs ( 17231 Cartesian)
Evaluating contribution to one-electron hamiltonian from nuclear
 Smallest overlap matrix eigenvalue = 1.35E-04
 Multipole matrices computed through 2nd order

  Scale SEOQF with 1.000000e-01/1.000000e-01/1.000000e-01

 Standard Electronic Orientation quadrupole field applied
 Nucleus-field energy     =    -0.0000000067 hartrees
 Guess from superposition of atomic densities
 Warning:  Energy on first SCF cycle will be non-variational
 Long-range K will be added via erf
 Coulomb attenuation parameter = 0.41 bohr**(-1)
 An unrestricted Kohn-Sham SCF calculation will be
 performed using Pulay DIIS extrapolation
 Exchange:  wPBE + LR-HF      Correlation:  PBE
 Using SG-1 standard quadrature grid
 SCF converges when DIIS error is below 1.0E-05
 Requested basis set is G3large
 There are 65 shells and 168 basis functions
 A cutoff of  1.0D-08 yielded   2044 shell pairs
 There are  13820 function pairs ( 17231 Cartesian)
 Warning!  Inaccurate integrated density:
   Number of electrons =    25
   Numerical integral  =    25.999984890803
   Relative error      =     3.9999395632 %
 ---------------------------------------
  Cycle       Energy         DIIS Error
 ---------------------------------------
    1    -331.2673490326      2.77E-02
    2    -330.5914860041      3.19E-03
    3    -330.6400941587      1.87E-03
    4    -330.6528957643      3.88E-04
    5    -330.6538276162      7.41E-05
    6    -330.6539457436      2.83E-05
    7    -330.6539770006      1.38E-05
    8    -330.6539951538      9.82E-06 Convergence criterion met
 ---------------------------------------
 One-Electron    Energy =  -574.6645605118
 Total Coulomb   Energy =   208.9931148304
 Alpha Exchange  Energy =    -2.6761940533
 Beta  Exchange  Energy =    -2.4586192014
 DFT   Exchange  Energy =   -22.1487332229
 DFT Correlation Energy =    -0.8450328955
 Nuclear Repu.   Energy =    63.1460299008
 Nuclear Attr.   Energy =  -904.7201283021
 Kinetic         Energy =   330.0555677903
 <S^2> = 0.7677
 SCF time:  CPU 91.39 s  wall 91.73 s
 Final Alpha MO Eigenvalues
            1           2           3           4           5           6
    1 -65.8999745 -10.3095614  -5.5617769  -3.9697329  -3.9601563  -3.9586395
            7           8           9          10          11          12
    1  -1.0814429  -0.9636506  -0.8157283  -0.7600478  -0.7393525  -0.7080289
           13          14          15          16          17          18
    1  -0.6784591  -0.1250244  -0.1071239  -0.1052801  -0.0995996  -0.0706765
 Final Beta MO Eigenvalues
            1           2           3           4           5           6
    1 -65.8992338 -10.3090758  -5.5609116  -3.9662314  -3.9601426  -3.9583905
            7           8           9          10          11          12
    1  -1.0734767  -0.9012217  -0.7524754  -0.7373477  -0.6840601  -0.6743661
           13          14          15          16          17
    1  -0.4419611  -0.1194523  -0.0990551  -0.0942168  -0.0822530
 Analysis of SCF Wavefunction
 
 --------------------------------------------------------------
                    Orbital Energies (a.u.)
 --------------------------------------------------------------
 
 Alpha MOs
 -- Occupied --
-65.900 -10.310  -5.562  -3.970  -3.960  -3.959  -1.081  -0.964
 -0.816  -0.760  -0.739  -0.708  -0.678
 -- Virtual --
 -0.125  -0.107  -0.105  -0.100  -0.071  -0.064  -0.060  -0.035
 -0.028  -0.026  -0.018  -0.011   0.012   0.018   0.019   0.026
  0.049   0.057   0.061   0.063   0.108   0.111   0.155   0.173
  0.177   0.194   0.224   0.228   0.276   0.306   0.310   0.314
  0.321   0.362   0.374   0.394   0.414   0.425   0.449   0.491
  0.493   0.551   0.561   0.571   0.579   0.600   0.606   0.656
  0.678   0.689   0.727   0.746   0.776   0.859   0.866   0.895
  0.920   0.947   1.009   1.014   1.034   1.060   1.115   1.160
  1.172   1.177   1.179   1.200   1.210   1.285   1.296   1.341
  1.361   1.373   1.394   1.417   1.449   1.526   1.936   1.995
  2.004   2.022   2.061   2.069   2.175   2.396   2.403   2.499
  2.592   2.674   2.839   2.860   2.929   2.983   2.994   3.113
  3.120   3.206   3.210   3.236   3.422   3.423   3.510   3.514
  3.570   3.587   3.635   3.760   3.781   3.787   3.821   3.834
  3.891   3.917   3.979   3.992   4.065   4.118   4.122   4.248
  4.259   4.269   4.321   4.331   4.446   4.493   4.943   5.556
  5.564   6.054  11.180  11.192  11.530  17.310  17.394  17.494
 17.575  17.629  21.922  21.939  21.945  21.951  21.955  21.956
 21.982  23.933  27.631  27.889  27.890  40.762  40.777  40.997
 41.038  41.084 140.849
 
 Beta MOs
 -- Occupied --
-65.899 -10.309  -5.561  -3.966  -3.960  -3.958  -1.073  -0.901
 -0.752  -0.737  -0.684  -0.674
 -- Virtual --
 -0.442  -0.119  -0.099  -0.094  -0.082  -0.067  -0.063  -0.057
 -0.026  -0.025  -0.021  -0.016  -0.009   0.014   0.021   0.025
  0.040   0.050   0.062   0.063   0.064   0.112   0.115   0.171
  0.175   0.179   0.196   0.228   0.231   0.294   0.316   0.319
  0.322   0.324   0.375   0.378   0.398   0.428   0.430   0.453
  0.495   0.495   0.555   0.570   0.574   0.583   0.610   0.613
  0.683   0.691   0.694   0.730   0.755   0.787   0.868   0.871
  0.916   0.926   0.964   1.013   1.016   1.057   1.070   1.128
  1.170   1.180   1.184   1.195   1.208   1.212   1.294   1.298
  1.359   1.367   1.375   1.408   1.422   1.450   1.528   1.955
  2.003   2.018   2.022   2.075   2.077   2.189   2.402   2.405
  2.508   2.673   2.700   2.843   2.862   2.968   2.990   2.994
  3.119   3.122   3.210   3.212   3.240   3.424   3.425   3.516
  3.518   3.572   3.629   3.647   3.790   3.811   3.812   3.896
  3.909   3.928   3.964   3.997   4.003   4.100   4.127   4.128
  4.261   4.268   4.273   4.336   4.347   4.484   4.504   4.947
  5.562   5.566   6.061  11.187  11.193  11.530  17.312  17.395
 17.495  17.576  17.631  21.924  21.940  21.946  21.951  21.956
 21.956  21.982  23.933  27.631  27.890  27.891  40.762  40.778
 40.997  41.039  41.085 140.849
 --------------------------------------------------------------
 
          Ground-State Mulliken Net Atomic Charges

     Atom                 Charge (a.u.)    Spin (a.u.)
  --------------------------------------------------------
      1 C                    -0.198625       0.025768
      2 Si                    0.392579       0.115924
      3 H                     0.150964       0.016745
      4 H                     0.160508       0.039703
      5 H                     0.144533       0.002452
      6 H                     0.107819       0.255700
      7 H                     0.052643       0.023922
      8 H                     0.189579       0.519785
  --------------------------------------------------------
  Sum of atomic charges =     1.000000
  Sum of spin   charges =     1.000000

 -----------------------------------------------------------------
                    Cartesian Multipole Moments
 -----------------------------------------------------------------
    Charge (ESU x 10^10)
                 4.8032
    Dipole Moment (Debye)
         X       0.0695      Y       1.1766      Z       7.7639
       Tot       7.8529
    Quadrupole Moments (Debye-Ang)
        XX     -16.2013     XY       1.7539     YY     -16.0476
        XZ       0.2556     YZ       3.3284     ZZ      -0.9633
    Octapole Moments (Debye-Ang^2)
       XXX      -0.6528    XXY       0.8429    XYY       0.8535
       YYY       2.5345    XXZ     -18.6654    XYZ       3.8308
       YYZ     -18.3211    XZZ       0.6417    YZZ       8.0503
       ZZZ     -31.4582
    Hexadecapole Moments (Debye-Ang^3)
      XXXX     -35.4904   XXXY       2.3440   XXYY     -11.7268
      XYYY       2.8050   YYYY     -35.0569   XXXZ      -4.8755
      XXYZ       2.2320   XYYZ       5.4928   YYYZ       6.7085
      XXZZ     -45.7804   XYZZ       9.5461   YYZZ     -44.8756
      XZZZ       1.7910   YZZZ      21.1266   ZZZZ    -230.3095
 -----------------------------------------------------------------
 Total job time:  91.95s(wall), 91.60s(cpu) 
 Mon Jul  8 17:02:21 2013

        *************************************************************
        *                                                           *
        *  Thank you very much for using Q-Chem.  Have a nice day.  *
        *                                                           *
        *************************************************************


0 sent ACK to 0 
now end server 0 ... 
