Process 0 of 1 is on cl033.stfx.acenet.ca - thread support 1
initial socket setup ...start
initial socket setup ...done 
now start server 0 ... 

cmd = /usr/bin/ssh clhead /usr/local/qchem/bin/get_hostid 466667819 > /scratch/tmp/6027517.1.short.q/qchem10844/lic.dat
                  Welcome to Q-Chem
     A Quantum Leap Into The Future Of Chemistry

 Y. Shao, L. Fusti-Molnar, Y. Jung, J. Kussmann, C. Ochsenfeld,
 S. T. Brown, A. T. B. Gilbert, L. V. Slipchenko,S. V. Levchenko,
 D. P. O'Neill, R. A. DiStasio Jr., R. C. Lochan, T. Wang,
 G. J. O. Beran, N. A. Besley, J. M. Herbert, C. Y. Lin,
 T. Van Voorhis, S. H. Chien, A. Sodt, R. P. Steele, 
 V. A. Rassolov, P. E. Maslen, P. P. Korambath, R. D. Adamson,
 B. Austin, J. Baker, E. F. C. Byrd, H. Dachsel, R. J. Doerksen,
 A. Dreuw, B. D. Dunietz, A. D. Dutoi, T. R. Furlani,
 S. R. Gwaltney, A. Heyden, S. Hirata, C.-P. Hsu, G. Kedziora,
 R. Z. Khaliullin, P. Klunzinger, A. M. Lee, M. S. Lee, W. Liang,
 I. Lotan, N. Nair, B. Peters, E. I. Proynov, P. A. Pieniazek, 
 Y. M. Rhee, J. Ritchie, E. Rosta, C. D. Sherrill, 
 A. C. Simmonett, J. E. Subotnik, H. L. Woodcock III,
 W. Zhang, A. T. Bell, A. K. Chakraborty, D. M. Chipman,
 F. J. Keil, A. Warshel, W. J. Hehre, H. F. Schaefer III,
 J. Kong, A. I. Krylov, P. M. W. Gill, M. Head-Gordon,
 Q-Chem, Version 3.1, Q-Chem, Inc., Pittsburgh, PA (2007).

 Additional authors for Version 3.1: 
 Z. Gan, Y. Zhao, N. E. Schultz, D. Truhlar, E. Epifanovsky and M. Oana.

 Additional authors for Version 3.2: 
 R. Baer, B. R. Brooks, D. Casanova, J.-D. Chai, C.-L. Cheng, 
 C. Cramer, D. Crittenden, A. Ghysels, G. Hawkins, E. G. Hohenstein, 
 C. Kelley, W. Kurlancheek, D. Liotard, E. Livshits, P. Manohar, 
 A. Marenich, D. Neuhauser, R. Olson, M. A. Rohrdanz, K. S. Thanthiriwatte, 
 A. J. W. Thom, V. Vanovschi, C. F. Williams, Q. Wu and Z.-Q. You. 


 Intel X86 Linux Version

 Q-chem begins on Mon Jun  3 15:12:04 2013  

 Parallel job on  1  processors
Processing $rem in /usr/local/qchem/config/preferences.

theFileMan(): MAXOPENFILES=974 MAX_SUB_FILE_NUM=16
Maximum size of a physical file is 2.0 GB, maximum size of a tmp-file is 32.0 GB


--------------------------------------------------------------
User input:
--------------------------------------------------------------

$molecule
0,3
O
C1,O,r1
H1,C1,r2,O,a1
H,O,roh,C1,aoh,H1,toh,0
C2,C1,r3a,O,a2a,H1,t1a,0
C3,C1,r3b,O,a2b,H1,-t1b,0
H,C2,r4a,C1,a4a,H1,t2a,0
H,C3,r5a,C1,a5a,H1,-t2b,0
H,C2,r4b,C1,a4b,H1,t3a,0
H,C3,r5b,C1,a5b,H1,-t3b,0
H,C2,r4c,C1,a4c,H1,-t4a,0
H,C3,r5c,C1,a5c,H1,t4b,0

r1=1.43111827
r2=1.9557364
roh=2.07916264
r3a=1.52393712
r3b=1.53017411
r4a=1.09587708
r5a=1.09583825
r4b=1.09448657
r5b=1.09801539
r4c=1.0954512
r5c=1.0964078
a1=28.22171182
aoh=30.02045037
a2a=106.21524706
a2b=111.13113306
a4a=110.2041443
a5a=110.24366741
a4b=110.29321839
a5b=111.03931704
a4c=110.82961388
a5c=111.23833611
toh=-62.32359188
t1a=179.44473237
t1b=57.80032287
t2a=63.0172795
t2b=83.272013
t3a=-56.37337218
t3b=-36.4963859
t4a=176.72748761
t4b=156.21533884


$end

$comment
negative
$end

$rem
   EXCHANGE B3LYP
   UNRESTRICTED TRUE
   BASIS G3large 
   SCF_PRINT 1
   PDB_PRINT 2
   INCDFT false
   VARTHRESH 0
   MAX_SCF_CYCLES 1000
   MEM_STATIC 256
   MEM_TOTAL 3000
   THRESH 140
   ITHRSH 14
   XC_GRID 75000302
   SCF_CONVERGENCE 6
$end

--------------------------------------------------------------
 Writing REM_CC_EA            0
 ----------------------------------------------------
       Standard Nuclear Orientation (Angstroms)
    I     Atom         X            Y            Z
 ----------------------------------------------------
    1      O       0.034109     1.370008    -0.167392
    2      C      -0.001525     0.041888     0.364516
    3      H       0.867326     1.776528     0.117484
    4      H       0.006945     0.085614     1.467389
    5      C      -1.325270    -0.562433    -0.088122
    6      C       1.206533    -0.772368    -0.103476
    7      H      -1.358699    -0.624517    -1.181728
    8      H       1.220670    -0.835210    -1.197419
    9      H      -2.160792     0.061451     0.244403
   10      H       2.145937    -0.307368     0.223531
   11      H      -1.454698    -1.569395     0.323325
   12      H       1.182013    -1.789691     0.304645
 ----------------------------------------------------
 Molecular Point Group                 C1    NOp =  1
 Largest Abelian Subgroup              C1    NOp =  1
 Nuclear Repulsion Energy =   134.3979926221 hartrees
 There are       18 alpha and       16 beta electrons
 Requested basis set is G3large
 There are 88 shells and 248 basis functions

Total QAlloc Memory Limit   3000 MB
Mega-Array Size       251 MB
MEM_STATIC part       256 MB

                       Distance Matrix (Angstroms)
             O (  1)   C (  2)   H (  3)   H (  4)   C (  5)   C (  6)
   C (  2)  1.431118
   H (  3)  0.969878  1.955736
   H (  4)  2.079163  1.103773  2.328453
   C (  5)  2.364005  1.523937  3.212552  2.148110
   C (  6)  2.443039  1.530174  2.580844  2.154707  2.540539
   H (  7)  2.635701  2.162611  3.522521  3.063836  1.095877  2.786558
   H (  8)  2.707742  2.168571  2.945335  3.069568  2.790476  1.095838
   H (  9)  2.588336  2.162693  3.482398  2.489048  1.094487  3.486424
   H ( 10)  2.725111  2.180241  2.447185  2.505376  3.494491  1.098015
   H ( 11)  3.331282  2.170171  4.077912  2.486833  1.095451  2.810617
   H ( 12)  3.394731  2.181519  3.584965  2.499906  2.819024  1.096408
             H (  7)   H (  8)   H (  9)   H ( 10)   H ( 11)
   H (  8)  2.588007
   H (  9)  1.774192  3.783799
   H ( 10)  3.789170  1.775904  4.322543
   H ( 11)  1.779661  3.163745  1.778892  3.816706
   H ( 12)  3.165779  1.780091  3.821610  1.770031  2.645964
 
 A cutoff of  1.0D-14 yielded   3814 shell pairs
 There are  30263 function pairs ( 36497 Cartesian)
Evaluating contribution to one-electron hamiltonian from nuclear
 Smallest overlap matrix eigenvalue = 4.89E-05
 Multipole matrices computed through 2nd order

  Scale SEOQF with 1.000000e-01/1.000000e-01/1.000000e-01

 Standard Electronic Orientation quadrupole field applied
 Nucleus-field energy     =     0.0000000028 hartrees
 Guess from superposition of atomic densities
 Warning:  Energy on first SCF cycle will be non-variational
 An unrestricted hybrid HF-DFT SCF calculation will be
 performed using Pulay DIIS extrapolation
 Exchange:     0.2000 Hartree-Fock + 0.0800 Slater + 0.7200 Becke88
 Correlation:  0.8100 LYP + 0.1900 VWN1RPA
 Using Euler-Maclaurin-Lebedev (75,302) quadrature formula
 SCF converges when DIIS error is below 1.0E-06
 Maximum number of SCF iterations = 1000

NRad = 75 NAng = 302
 ---------------------------------------
  Cycle       Energy         DIIS Error
 ---------------------------------------
    1    -194.8889245372      2.84E-02

NRad = 75 NAng = 302
    2    -194.0777996566      3.73E-03

NRad = 75 NAng = 302
    3    -193.9609500873      5.04E-03

NRad = 75 NAng = 302
    4    -194.1599130470      2.38E-03

NRad = 75 NAng = 302
    5    -194.2003162246      2.49E-04

NRad = 75 NAng = 302
    6    -194.2014396692      2.09E-04

NRad = 75 NAng = 302
    7    -194.2019943451      9.63E-05

NRad = 75 NAng = 302
    8    -194.2021854027      5.98E-05

NRad = 75 NAng = 302
    9    -194.2022761279      2.08E-05

NRad = 75 NAng = 302
   10    -194.2022888745      4.33E-06

NRad = 75 NAng = 302
   11    -194.2022903114      1.23E-06

NRad = 75 NAng = 302
   12    -194.2022904951      7.76E-07 Convergence criterion met
 ---------------------------------------
 One-Electron    Energy =  -525.9331017894
 Total Coulomb   Energy =   225.0456484323
 Alpha Exchange  Energy =    -2.7339149157
 Beta  Exchange  Energy =    -2.5521211006
 DFT   Exchange  Energy =   -21.0138913000
 DFT Correlation Energy =    -1.4129024466
 Nuclear Repu.   Energy =   134.3979926249
 Nuclear Attr.   Energy =  -719.4313342208
 Kinetic         Energy =   193.4982324314
 <S^2> = 2.0043
 SCF time:  CPU 892.70 s  wall 895.24 s
 Analysis of SCF Wavefunction
 
 --------------------------------------------------------------
                    Orbital Energies (a.u.)
 --------------------------------------------------------------
 
 Alpha MOs
 -- Occupied --
-19.312 -10.310 -10.225 -10.208  -1.184  -0.855  -0.753  -0.679
 -0.627  -0.564  -0.529  -0.481  -0.453  -0.448  -0.436  -0.406
 -0.403  -0.083
 -- Virtual --
 -0.023  -0.012  -0.005   0.010   0.023   0.027   0.039   0.044
  0.055   0.067   0.073   0.083   0.091   0.097   0.100   0.107
  0.115   0.118   0.131   0.136   0.147   0.160   0.163   0.165
  0.185   0.193   0.210   0.218   0.220   0.259   0.267   0.285
  0.293   0.322   0.372   0.394   0.402   0.421   0.439   0.456
  0.471   0.488   0.500   0.523   0.525   0.527   0.532   0.551
  0.555   0.571   0.587   0.627   0.630   0.650   0.686   0.733
  0.752   0.793   0.798   0.845   0.872   0.886   0.897   0.928
  0.964   0.996   1.010   1.034   1.039   1.064   1.083   1.113
  1.125   1.151   1.172   1.202   1.221   1.230   1.241   1.258
  1.277   1.283   1.301   1.334   1.382   1.397   1.400   1.419
  1.442   1.474   1.485   1.514   1.528   1.533   1.574   1.578
  1.657   1.740   1.930   1.966   2.143   2.231   2.324   2.430
  2.448   2.501   2.513   2.568   2.615   2.627   2.721   2.741
  2.761   2.784   2.854   2.872   2.888   2.908   2.938   3.042
  3.048   3.081   3.093   3.115   3.161   3.223   3.241   3.256
  3.275   3.297   3.340   3.367   3.427   3.477   3.494   3.514
  3.525   3.550   3.594   3.613   3.650   3.679   3.726   3.749
  3.790   3.815   3.894   3.909   3.924   3.934   3.974   4.029
  4.052   4.104   4.130   4.156   4.161   4.183   4.201   4.220
  4.252   4.265   4.366   4.373   4.415   4.484   4.516   4.534
  4.553   4.584   4.644   4.763   4.854   5.018   5.044   5.158
  5.224   5.311   5.340   5.404   5.412   5.535   5.579   5.606
  5.631   5.697   5.796   6.275   6.773   6.992   7.034   7.066
  7.398   7.519  24.093  24.214  24.304  27.555  27.727  28.023
 28.091  28.113  28.144  28.149  28.325  28.434  40.983  40.994
 41.031  41.044  41.057  41.062  41.073  41.075  41.081  41.134
 41.137  41.153  41.159  41.169  41.187  43.599  43.670  43.674
 43.762  43.856  45.598  45.944  46.318  49.860
 
 Beta MOs
 -- Occupied --
-19.289 -10.309 -10.222 -10.208  -1.131  -0.841  -0.747  -0.666
 -0.602  -0.523  -0.511  -0.451  -0.445  -0.436  -0.413  -0.398
 -- Virtual --
 -0.282  -0.035  -0.009  -0.006  -0.001   0.016   0.023   0.031
  0.040   0.049   0.060   0.077   0.079   0.090   0.094   0.101
  0.104   0.110   0.117   0.123   0.135   0.139   0.152   0.164
  0.169   0.177   0.187   0.201   0.215   0.224   0.230   0.261
  0.276   0.290   0.298   0.330   0.374   0.396   0.412   0.427
  0.444   0.458   0.477   0.499   0.506   0.525   0.528   0.529
  0.534   0.560   0.563   0.579   0.592   0.631   0.632   0.657
  0.693   0.738   0.756   0.798   0.806   0.849   0.876   0.891
  0.907   0.934   0.970   1.003   1.014   1.046   1.061   1.077
  1.087   1.116   1.131   1.158   1.176   1.206   1.228   1.236
  1.245   1.267   1.281   1.288   1.306   1.353   1.391   1.403
  1.405   1.424   1.447   1.481   1.491   1.518   1.532   1.542
  1.582   1.584   1.677   1.775   1.950   1.982   2.173   2.243
  2.327   2.438   2.457   2.506   2.516   2.572   2.621   2.634
  2.729   2.750   2.767   2.795   2.859   2.873   2.890   2.911
  2.944   3.046   3.054   3.088   3.098   3.122   3.164   3.226
  3.249   3.260   3.277   3.300   3.343   3.372   3.434   3.481
  3.497   3.517   3.530   3.555   3.599   3.617   3.658   3.691
  3.732   3.756   3.793   3.821   3.902   3.913   3.929   3.938
  3.979   4.036   4.064   4.112   4.135   4.161   4.165   4.188
  4.209   4.231   4.262   4.270   4.370   4.379   4.419   4.491
  4.521   4.541   4.556   4.593   4.652   4.769   4.940   5.061
  5.087   5.187   5.253   5.316   5.363   5.430   5.449   5.550
  5.583   5.610   5.634   5.724   5.805   6.294   6.856   7.027
  7.094   7.142   7.434   7.537  24.094  24.216  24.306  27.557
 27.729  28.025  28.092  28.115  28.145  28.150  28.328  28.435
 40.986  40.995  41.033  41.046  41.059  41.064  41.073  41.075
 41.083  41.136  41.138  41.154  41.162  41.170  41.187  43.647
 43.716  43.721  43.783  43.865  45.646  45.957  46.332  49.884
 --------------------------------------------------------------
 
          Ground-State Mulliken Net Atomic Charges

     Atom                 Charge (a.u.)    Spin (a.u.)
  --------------------------------------------------------
      1 O                     0.429233       0.482504
      2 C                     0.265011      -0.256444
      3 H                    -0.596033       0.992313
      4 H                    -0.109959       0.440719
      5 C                    -0.321106      -0.004676
      6 C                     0.113104      -0.334740
      7 H                     0.117928       0.036863
      8 H                     0.103010       0.047774
      9 H                     0.068631       0.083154
     10 H                    -0.118023       0.280520
     11 H                     0.044303       0.083138
     12 H                     0.003902       0.148876
  --------------------------------------------------------
  Sum of atomic charges =     0.000000
  Sum of spin   charges =     2.000000

 -----------------------------------------------------------------
                    Cartesian Multipole Moments
 -----------------------------------------------------------------
    Charge (ESU x 10^10)
                 0.0000
    Dipole Moment (Debye)
         X      -2.4505      Y      -4.2796      Z      -1.2943
       Tot       5.0985
    Quadrupole Moments (Debye-Ang)
        XX     -35.2881     XY      -6.0787     YY     -40.6951
        XZ      -2.2956     YZ      -1.8365     ZZ     -34.1488
    Octapole Moments (Debye-Ang^2)
       XXX     -26.9590    XXY     -17.4622    XYY     -16.2119
       YYY     -35.9625    XXZ      -7.8912    XYZ      -2.9309
       YYZ      -8.2404    XZZ      -8.9452    YZZ     -10.5141
       ZZZ     -17.5464
    Hexadecapole Moments (Debye-Ang^3)
      XXXX    -314.7079   XXXY     -50.4644   XXYY    -121.1013
      XYYY     -54.7547   YYYY    -357.4973   XXXZ     -13.9747
      XXYZ      -6.0313   XYYZ      -8.3576   YYYZ     -19.2078
      XXZZ     -77.4060   XYZZ     -14.0987   YYZZ     -82.4231
      XZZZ     -12.6674   YZZZ     -13.3939   ZZZZ    -140.0783
 -----------------------------------------------------------------
 Total job time:  895.89s(wall), 893.30s(cpu) 
 Mon Jun  3 15:27:00 2013

        *************************************************************
        *                                                           *
        *  Thank you very much for using Q-Chem.  Have a nice day.  *
        *                                                           *
        *************************************************************


0 sent ACK to 0 
now end server 0 ... 
