Process 0 of 1 is on cl109.stfx.acenet.ca - thread support 1
initial socket setup ...start
initial socket setup ...done 
now start server 0 ... 

cmd = /usr/bin/ssh clhead /usr/local/qchem/bin/get_hostid 832153562 > /scratch/tmp/6067105.1.short.q/qchem28488/lic.dat
                  Welcome to Q-Chem
     A Quantum Leap Into The Future Of Chemistry

 Y. Shao, L. Fusti-Molnar, Y. Jung, J. Kussmann, C. Ochsenfeld,
 S. T. Brown, A. T. B. Gilbert, L. V. Slipchenko,S. V. Levchenko,
 D. P. O'Neill, R. A. DiStasio Jr., R. C. Lochan, T. Wang,
 G. J. O. Beran, N. A. Besley, J. M. Herbert, C. Y. Lin,
 T. Van Voorhis, S. H. Chien, A. Sodt, R. P. Steele, 
 V. A. Rassolov, P. E. Maslen, P. P. Korambath, R. D. Adamson,
 B. Austin, J. Baker, E. F. C. Byrd, H. Dachsel, R. J. Doerksen,
 A. Dreuw, B. D. Dunietz, A. D. Dutoi, T. R. Furlani,
 S. R. Gwaltney, A. Heyden, S. Hirata, C.-P. Hsu, G. Kedziora,
 R. Z. Khaliullin, P. Klunzinger, A. M. Lee, M. S. Lee, W. Liang,
 I. Lotan, N. Nair, B. Peters, E. I. Proynov, P. A. Pieniazek, 
 Y. M. Rhee, J. Ritchie, E. Rosta, C. D. Sherrill, 
 A. C. Simmonett, J. E. Subotnik, H. L. Woodcock III,
 W. Zhang, A. T. Bell, A. K. Chakraborty, D. M. Chipman,
 F. J. Keil, A. Warshel, W. J. Hehre, H. F. Schaefer III,
 J. Kong, A. I. Krylov, P. M. W. Gill, M. Head-Gordon,
 Q-Chem, Version 3.1, Q-Chem, Inc., Pittsburgh, PA (2007).

 Additional authors for Version 3.1: 
 Z. Gan, Y. Zhao, N. E. Schultz, D. Truhlar, E. Epifanovsky and M. Oana.

 Additional authors for Version 3.2: 
 R. Baer, B. R. Brooks, D. Casanova, J.-D. Chai, C.-L. Cheng, 
 C. Cramer, D. Crittenden, A. Ghysels, G. Hawkins, E. G. Hohenstein, 
 C. Kelley, W. Kurlancheek, D. Liotard, E. Livshits, P. Manohar, 
 A. Marenich, D. Neuhauser, R. Olson, M. A. Rohrdanz, K. S. Thanthiriwatte, 
 A. J. W. Thom, V. Vanovschi, C. F. Williams, Q. Wu and Z.-Q. You. 


 Intel X86 Linux Version

 Q-chem begins on Wed Jul 24 15:58:38 2013  

 Parallel job on  1  processors
Processing $rem in /usr/local/qchem/config/preferences.

theFileMan(): MAXOPENFILES=974 MAX_SUB_FILE_NUM=16
Maximum size of a physical file is 2.0 GB, maximum size of a tmp-file is 32.0 GB


--------------------------------------------------------------
User input:
--------------------------------------------------------------

$molecule
0,1
X
C,1,R1
C,1,R2,2,90.
C,1,R2,2,90.,3,180.,0
H,2,R3,1,THETA1,3,90.,0
H,2,R3,1,THETA1,3,-90.,0
H,3,R4,1,THETA2,2,180.,0
H,4,R4,1,THETA2,2,180.,0

 R1=1.36279839
 R2=0.64744345
 R3=1.09475715
 R4=1.07976902
 THETA1=123.4894802
 THETA2=149.86562277

$end


$comment
b3lyp opt
$end

$rem
   EXCHANGE B3LYP
   UNRESTRICTED TRUE
   SYMMETRY_DECOMPOSITION	0
   BASIS                   g3large
   JOBTYPE                 opt
   mem_static              760
   max_scf_cycles          200
   scf_final_print         1
   sym_ignore              true
$end


--------------------------------------------------------------
 Writing REM_CC_EA            7
 ----------------------------------------------------
       Standard Nuclear Orientation (Angstroms)
    I     Atom         X            Y            Z
 ----------------------------------------------------
    1      C       0.000000     0.000000     1.362798
    2      C       0.647443     0.000000     0.000000
    3      C      -0.647443     0.000000     0.000000
    4      H       0.000000     0.913013     1.966868
    5      H       0.000000    -0.913013     1.966868
    6      H       1.581282     0.000000    -0.542076
    7      H      -1.581282     0.000000    -0.542076
 ----------------------------------------------------
 Nuclear Repulsion Energy =    63.7310766520 hartrees
 There are       11 alpha and       11 beta electrons
 Requested basis set is G3large
 There are 54 shells and 166 basis functions

Total QAlloc Memory Limit   2000 MB
Mega-Array Size       743 MB
MEM_STATIC part       760 MB
 A cutoff of  1.0D-11 yielded   1471 shell pairs
 There are  13909 function pairs ( 17134 Cartesian)
Evaluating contribution to one-electron hamiltonian from nuclear
 Smallest overlap matrix eigenvalue = 2.55E-05
 Multipole matrices computed through 2nd order

  Scale SEOQF with 1.000000e-01/1.000000e-01/1.000000e-01

 Standard Electronic Orientation quadrupole field applied
 Nucleus-field energy     =    -0.0000000016 hartrees
 Guess from superposition of atomic densities
 Warning:  Energy on first SCF cycle will be non-variational
 An unrestricted hybrid HF-DFT SCF calculation will be
 performed using Pulay DIIS extrapolation
 Exchange:     0.2000 Hartree-Fock + 0.0800 Slater + 0.7200 Becke88
 Correlation:  0.8100 LYP + 0.1900 VWN1RPA
 Using SG-1 standard quadrature grid
 SCF converges when DIIS error is below 1.0E-08
 ---------------------------------------
  Cycle       Energy         DIIS Error
 ---------------------------------------
    1    -117.2285593510      3.74E-02
    2    -116.5739007504      4.91E-03
    3    -116.5487214419      5.60E-03
    4    -116.6626350009      4.00E-04
    5    -116.6630304276      1.82E-04
    6    -116.6631083597      1.00E-04
    7    -116.6631398125      3.11E-05
    8    -116.6631430308      3.48E-06
    9    -116.6631430040      5.30E-07
   10    -116.6631430469      6.34E-08
   11    -116.6631430572      1.02E-08
   12    -116.6631430562      1.45E-09 Convergence criterion met
 ---------------------------------------
 One-Electron    Energy =  -281.5313942249
 Total Coulomb   Energy =   118.8694718728
 Alpha Exchange  Energy =    -1.6911623252
 Beta  Exchange  Energy =    -1.6911623252
 DFT   Exchange  Energy =   -13.4321794582
 DFT Correlation Energy =    -0.9177932459
 Nuclear Repu.   Energy =    63.7310766504
 Nuclear Attr.   Energy =  -397.5840483754
 Kinetic         Energy =   116.0526541505
 <S^2> = 0.0000
 SCF time:  CPU 87.20 s  wall 92.09 s
 Final Alpha MO Eigenvalues
            1           2           3           4           5           6
    1 -10.1890530 -10.1879120 -10.1833363  -0.8732707  -0.6029699  -0.5681638
            7           8           9          10          11          12
    1  -0.5086143  -0.4381240  -0.3548014  -0.3016569  -0.2588428  -0.0122684
           13          14          15          16
    1   0.0026763   0.0135613   0.0143358   0.0294996
 Final Beta MO Eigenvalues
            1           2           3           4           5           6
    1 -10.1890530 -10.1879120 -10.1833363  -0.8732707  -0.6029699  -0.5681638
            7           8           9          10          11          12
    1  -0.5086143  -0.4381240  -0.3548014  -0.3016569  -0.2588428  -0.0122684
           13          14          15          16
    1   0.0026763   0.0135613   0.0143358   0.0294996
 Analysis of SCF Wavefunction
 
 --------------------------------------------------------------
                    Orbital Energies (a.u.)
 --------------------------------------------------------------
 
 Alpha MOs
 -- Occupied --
-10.189 -10.188 -10.183  -0.873  -0.603  -0.568  -0.509  -0.438
 -0.355  -0.302  -0.259
 -- Virtual --
 -0.012   0.003   0.014   0.014   0.029   0.070   0.074   0.083
  0.087   0.104   0.122   0.124   0.124   0.129   0.151   0.156
  0.176   0.177   0.191   0.218   0.258   0.264   0.282   0.385
  0.423   0.449   0.479   0.513   0.531   0.545   0.545   0.554
  0.572   0.577   0.578   0.604   0.646   0.662   0.681   0.711
  0.718   0.813   0.862   0.884   0.887   0.887   1.012   1.016
  1.026   1.094   1.118   1.150   1.225   1.233   1.311   1.331
  1.368   1.393   1.435   1.449   1.449   1.495   1.504   1.513
  1.547   1.644   1.721   2.462   2.501   2.529   2.574   2.585
  2.587   2.600   2.643   2.687   2.714   2.782   2.819   2.871
  2.899   2.902   2.911   2.981   3.055   3.109   3.121   3.137
  3.200   3.238   3.282   3.319   3.333   3.366   3.376   3.386
  3.399   3.405   3.545   3.567   3.642   3.661   3.726   3.797
  3.834   3.893   3.896   3.930   3.941   4.090   4.155   4.267
  4.277   4.371   4.437   4.501   4.600   4.798   4.877   4.890
  5.039   5.048   5.082   5.463   5.559   5.640   6.056   6.811
 23.797  24.303  24.825  27.367  27.552  27.558  27.717  28.122
 28.134  28.326  28.700  28.827  40.904  40.926  40.958  40.991
 41.068  41.131  41.151  41.168  41.177  41.226  41.276  41.281
 41.294  41.363  41.428
 
 Beta MOs
 -- Occupied --
-10.189 -10.188 -10.183  -0.873  -0.603  -0.568  -0.509  -0.438
 -0.355  -0.302  -0.259
 -- Virtual --
 -0.012   0.003   0.014   0.014   0.029   0.070   0.074   0.083
  0.087   0.104   0.122   0.124   0.124   0.129   0.151   0.156
  0.176   0.177   0.191   0.218   0.258   0.264   0.282   0.385
  0.423   0.449   0.479   0.513   0.531   0.545   0.545   0.554
  0.572   0.577   0.578   0.604   0.646   0.662   0.681   0.711
  0.718   0.813   0.862   0.884   0.887   0.887   1.012   1.016
  1.026   1.094   1.118   1.150   1.225   1.233   1.311   1.331
  1.368   1.393   1.435   1.449   1.449   1.495   1.504   1.513
  1.547   1.644   1.721   2.462   2.501   2.529   2.574   2.585
  2.587   2.600   2.643   2.687   2.714   2.782   2.819   2.871
  2.899   2.902   2.911   2.981   3.055   3.109   3.121   3.137
  3.200   3.238   3.282   3.319   3.333   3.366   3.376   3.386
  3.399   3.405   3.545   3.567   3.642   3.661   3.726   3.797
  3.834   3.893   3.896   3.930   3.941   4.090   4.155   4.267
  4.277   4.371   4.437   4.501   4.600   4.798   4.877   4.890
  5.039   5.048   5.082   5.463   5.559   5.640   6.056   6.811
 23.797  24.303  24.825  27.367  27.552  27.558  27.717  28.122
 28.134  28.326  28.700  28.827  40.904  40.926  40.958  40.991
 41.068  41.131  41.151  41.168  41.177  41.226  41.276  41.281
 41.294  41.363  41.428
 --------------------------------------------------------------
 
          Ground-State Mulliken Net Atomic Charges

     Atom                 Charge (a.u.)    Spin (a.u.)
  --------------------------------------------------------
      1 C                    -0.168268       0.000000
      2 C                    -0.142331       0.000000
      3 C                    -0.142331       0.000000
      4 H                     0.076271       0.000000
      5 H                     0.076271       0.000000
      6 H                     0.150195       0.000000
      7 H                     0.150195       0.000000
  --------------------------------------------------------
  Sum of atomic charges =     0.000000
  Sum of spin   charges =     0.000000

 -----------------------------------------------------------------
                    Cartesian Multipole Moments
 -----------------------------------------------------------------
    Charge (ESU x 10^10)
                 0.0000
    Dipole Moment (Debye)
         X       0.0000      Y       0.0000      Z      -0.4708
       Tot       0.4708
    Quadrupole Moments (Debye-Ang)
        XX     -17.0021     XY       0.0000     YY     -19.7155
        XZ       0.0000     YZ       0.0000     ZZ     -19.2924
    Octapole Moments (Debye-Ang^2)
       XXX       0.0000    XXY       0.0000    XYY       0.0000
       YYY       0.0000    XXZ     -13.3816    XYZ       0.0000
       YYZ      -8.2845    XZZ       0.0000    YZZ       0.0000
       ZZZ     -28.8903
    Hexadecapole Moments (Debye-Ang^3)
      XXXX     -60.3711   XXXY       0.0000   XXYY     -17.3970
      XYYY       0.0000   YYYY     -30.6964   XXXZ       0.0000
      XXYZ       0.0000   XYYZ       0.0000   YYYZ       0.0000
      XXZZ     -32.7550   XYZZ       0.0000   YYZZ     -23.8737
      XZZZ       0.0000   YZZZ       0.0000   ZZZZ    -121.3929
 -----------------------------------------------------------------
 Calculating analytic gradient of the SCF energy
 Gradient of XC Energy
            1           2           3           4           5           6
    1   0.0000000   0.2394878  -0.2394878  -0.0000000  -0.0000000   0.1901047
    2  -0.0000000   0.0000000  -0.0000000   0.1585606  -0.1585606   0.0000000
    3   0.0496993  -0.0224871  -0.0224871   0.1089568   0.1089568  -0.1113194
            7
    1  -0.1901047
    2   0.0000000
    3  -0.1113194
 Gradient of SCF Energy
            1           2           3           4           5           6
    1  -0.0000000   0.0080568  -0.0080568  -0.0000000  -0.0000000   0.0033150
    2  -0.0000000   0.0000000   0.0000000   0.0030795  -0.0030795  -0.0000000
    3  -0.0023531   0.0000156   0.0000156   0.0028465   0.0028465  -0.0016856
            7
    1  -0.0033150
    2  -0.0000000
    3  -0.0016856
 Max gradient component =       8.057E-03
 RMS gradient           =       3.072E-03
 Gradient time:  CPU 30.56 s  wall 30.62 s
 Geometry Optimization Parameters
   NAtoms,    NIC,     NZ,  NCons,   NDum,   NFix, NCnnct, MaxDiis
        7      46       8       0       0       0       0       0


** GEOMETRY OPTIMIZATION IN DELOCALIZED INTERNAL COORDINATES **
   Searching for a Minimum

   Optimization Cycle:   1

                       Coordinates (Angstroms)
     ATOM              X           Y           Z
    1  C           0.000000    0.000000    1.362798
    2  C           0.647443    0.000000    0.000000
    3  C          -0.647443    0.000000    0.000000
    4  H           0.000000    0.913013    1.966868
    5  H           0.000000   -0.913013    1.966868
    6  H           1.581282    0.000000   -0.542076
    7  H          -1.581282    0.000000   -0.542076
   Point Group: c1    Number of degrees of freedom:  15


   Energy is   -116.663143056


 Attempting to Generate Delocalized Internal Coordinates

  9 Hessian modes will be used to form the next step
  Hessian Eigenvalues:
     0.117514    0.160000    0.160000    0.299645    0.342686    0.342686
     0.360222    0.360222    0.572493

 Minimum Search - Taking Simple RFO Step
 Searching for Lamda that Minimizes Along All modes
 Value Taken    Lamda =  -0.00036588
 Step Taken.  Stepsize is  0.030403

                             Maximum     Tolerance    Cnvgd?
         Gradient           0.010579      0.000300      NO
         Displacement       0.027074      0.001200      NO
         Energy change     *********      0.000001      NO


 New Cartesian Coordinates Obtained by Inverse Iteration

 Displacement from previous Coordinates is:  0.034913
 Writing REM_CC_EA            7
 ----------------------------------------------------
       Standard Nuclear Orientation (Angstroms)
    I     Atom         X            Y            Z
 ----------------------------------------------------
    1      C       0.000000     0.000000     1.363181
    2      C       0.643541     0.000000     0.002329
    3      C      -0.643541     0.000000     0.002329
    4      H       0.000000     0.909269     1.961332
    5      H       0.000000    -0.909269     1.961332
    6      H       1.571475     0.000000    -0.539061
    7      H      -1.571475     0.000000    -0.539061
 ----------------------------------------------------
 Nuclear Repulsion Energy =    63.9953273834 hartrees
 There are       11 alpha and       11 beta electrons
 Applying Cartesian multipole field
    Component          Value
    ---------          -----
     (2,0,0)        1.00000E-11
     (0,2,0)        2.00000E-11
     (0,0,2)       -3.00000E-11
 Nucleus-field energy     =    -0.0000000016 hartrees
 Requested basis set is G3large
 There are 54 shells and 166 basis functions
 A cutoff of  1.0D-11 yielded   1473 shell pairs
 There are  13927 function pairs ( 17152 Cartesian)
Evaluating contribution to one-electron hamiltonian from nuclear
 Smallest overlap matrix eigenvalue = 2.49E-05
 Multipole matrices computed through 2nd order
 Guess MOs from SCF MO coefficient file
Reading MOs from coefficient file
Reading MOs from coefficient file
 An unrestricted hybrid HF-DFT SCF calculation will be
 performed using Pulay DIIS extrapolation
 Exchange:     0.2000 Hartree-Fock + 0.0800 Slater + 0.7200 Becke88
 Correlation:  0.8100 LYP + 0.1900 VWN1RPA
 Using SG-1 standard quadrature grid
 SCF converges when DIIS error is below 1.0E-08
 ---------------------------------------
  Cycle       Energy         DIIS Error
 ---------------------------------------
    1    -116.6670064472      2.81E-04
    2    -116.6633120218      7.11E-05
    3    -116.6633126181      8.02E-05
    4    -116.6633355006      3.71E-06
    5    -116.6633356659      9.50E-07
    6    -116.6633356622      5.50E-07
    7    -116.6633356804      8.39E-08
    8    -116.6633356775      3.73E-09 Convergence criterion met
 ---------------------------------------
 One-Electron    Energy =  -282.0451934612
 Total Coulomb   Energy =   119.1354931785
 Alpha Exchange  Energy =    -1.6929121595
 Beta  Exchange  Energy =    -1.6929121595
 DFT   Exchange  Energy =   -13.4445456922
 DFT Correlation Energy =    -0.9185927655
 Nuclear Repu.   Energy =    63.9953273818
 Nuclear Attr.   Energy =  -398.1627146908
 Kinetic         Energy =   116.1175212296
 <S^2> = 0.0000
 SCF time:  CPU 58.42 s  wall 59.34 s
 Final Alpha MO Eigenvalues
            1           2           3           4           5           6
    1 -10.1869168 -10.1857014 -10.1812861  -0.8756704  -0.6044607  -0.5687015
            7           8           9          10          11          12
    1  -0.5100898  -0.4400648  -0.3558298  -0.3012365  -0.2597629  -0.0107382
           13          14          15          16
    1   0.0027866   0.0139716   0.0146694   0.0295590
 Final Beta MO Eigenvalues
            1           2           3           4           5           6
    1 -10.1869168 -10.1857014 -10.1812861  -0.8756704  -0.6044607  -0.5687015
            7           8           9          10          11          12
    1  -0.5100898  -0.4400648  -0.3558298  -0.3012365  -0.2597629  -0.0107382
           13          14          15          16
    1   0.0027866   0.0139716   0.0146694   0.0295590
 Analysis of SCF Wavefunction
 
 --------------------------------------------------------------
                    Orbital Energies (a.u.)
 --------------------------------------------------------------
 
 Alpha MOs
 -- Occupied --
-10.187 -10.186 -10.181  -0.876  -0.604  -0.569  -0.510  -0.440
 -0.356  -0.301  -0.260
 -- Virtual --
 -0.011   0.003   0.014   0.015   0.030   0.071   0.074   0.083
  0.087   0.104   0.122   0.124   0.124   0.129   0.151   0.156
  0.176   0.178   0.192   0.220   0.262   0.265   0.284   0.386
  0.424   0.449   0.479   0.514   0.532   0.546   0.546   0.554
  0.573   0.578   0.578   0.606   0.648   0.663   0.681   0.711
  0.721   0.819   0.865   0.886   0.890   0.892   1.013   1.020
  1.029   1.096   1.120   1.155   1.226   1.238   1.315   1.332
  1.371   1.393   1.438   1.450   1.451   1.497   1.509   1.520
  1.549   1.645   1.723   2.463   2.501   2.525   2.568   2.582
  2.585   2.603   2.644   2.690   2.718   2.783   2.823   2.878
  2.902   2.902   2.915   2.984   3.059   3.109   3.125   3.134
  3.199   3.234   3.283   3.318   3.343   3.362   3.375   3.384
  3.399   3.417   3.545   3.575   3.653   3.668   3.739   3.809
  3.845   3.907   3.910   3.932   3.951   4.101   4.169   4.287
  4.289   4.378   4.455   4.512   4.613   4.811   4.903   4.907
  5.062   5.069   5.105   5.485   5.583   5.660   6.092   6.849
 23.804  24.327  24.865  27.374  27.559  27.565  27.731  28.121
 28.145  28.342  28.705  28.853  40.906  40.927  40.961  40.996
 41.074  41.132  41.154  41.170  41.180  41.231  41.283  41.290
 41.299  41.372  41.443
 
 Beta MOs
 -- Occupied --
-10.187 -10.186 -10.181  -0.876  -0.604  -0.569  -0.510  -0.440
 -0.356  -0.301  -0.260
 -- Virtual --
 -0.011   0.003   0.014   0.015   0.030   0.071   0.074   0.083
  0.087   0.104   0.122   0.124   0.124   0.129   0.151   0.156
  0.176   0.178   0.192   0.220   0.262   0.265   0.284   0.386
  0.424   0.449   0.479   0.514   0.532   0.546   0.546   0.554
  0.573   0.578   0.578   0.606   0.648   0.663   0.681   0.711
  0.721   0.819   0.865   0.886   0.890   0.892   1.013   1.020
  1.029   1.096   1.120   1.155   1.226   1.238   1.315   1.332
  1.371   1.393   1.438   1.450   1.451   1.497   1.509   1.520
  1.549   1.645   1.723   2.463   2.501   2.525   2.568   2.582
  2.585   2.603   2.644   2.690   2.718   2.783   2.823   2.878
  2.902   2.902   2.915   2.984   3.059   3.109   3.125   3.134
  3.199   3.234   3.283   3.318   3.343   3.362   3.375   3.384
  3.399   3.417   3.545   3.575   3.653   3.668   3.739   3.809
  3.845   3.907   3.910   3.932   3.951   4.101   4.169   4.287
  4.289   4.378   4.455   4.512   4.613   4.811   4.903   4.907
  5.062   5.069   5.105   5.485   5.583   5.660   6.092   6.849
 23.804  24.327  24.865  27.374  27.559  27.565  27.731  28.121
 28.145  28.342  28.705  28.853  40.906  40.927  40.961  40.996
 41.074  41.132  41.154  41.170  41.180  41.231  41.283  41.290
 41.299  41.372  41.443
 --------------------------------------------------------------
 
          Ground-State Mulliken Net Atomic Charges

     Atom                 Charge (a.u.)    Spin (a.u.)
  --------------------------------------------------------
      1 C                    -0.172270       0.000000
      2 C                    -0.141928       0.000000
      3 C                    -0.141928       0.000000
      4 H                     0.077875       0.000000
      5 H                     0.077875       0.000000
      6 H                     0.150189       0.000000
      7 H                     0.150189       0.000000
  --------------------------------------------------------
  Sum of atomic charges =     0.000000
  Sum of spin   charges =     0.000000

 -----------------------------------------------------------------
                    Cartesian Multipole Moments
 -----------------------------------------------------------------
    Charge (ESU x 10^10)
                 0.0000
    Dipole Moment (Debye)
         X       0.0000      Y       0.0000      Z      -0.4731
       Tot       0.4731
    Quadrupole Moments (Debye-Ang)
        XX     -17.0233     XY       0.0000     YY     -19.6532
        XZ       0.0000     YZ       0.0000     ZZ     -19.2611
    Octapole Moments (Debye-Ang^2)
       XXX       0.0000    XXY       0.0000    XYY       0.0000
       YYY       0.0000    XXZ     -13.3341    XYZ       0.0000
       YYZ      -8.2947    XZZ       0.0000    YZZ       0.0000
       ZZZ     -28.9358
    Hexadecapole Moments (Debye-Ang^3)
      XXXX     -59.9466   XXXY       0.0000   XXYY     -17.2125
      XYYY       0.0000   YYYY     -30.4340   XXXZ       0.0000
      XXYZ       0.0000   XYYZ       0.0000   YYYZ       0.0000
      XXZZ     -32.5731   XYZZ       0.0000   YYZZ     -23.7530
      XZZZ       0.0000   YZZZ       0.0000   ZZZZ    -120.8905
 -----------------------------------------------------------------
 Calculating analytic gradient of the SCF energy
 Gradient of XC Energy
            1           2           3           4           5           6
    1   0.0000000   0.2386401  -0.2386401   0.0000000   0.0000000   0.1902214
    2   0.0000000  -0.0000000  -0.0000000   0.1595760  -0.1595760   0.0000000
    3   0.0495154  -0.0210949  -0.0210949   0.1087096   0.1087096  -0.1123724
            7
    1  -0.1902214
    2  -0.0000000
    3  -0.1123724
 Gradient of SCF Energy
            1           2           3           4           5           6
    1   0.0000000   0.0008644  -0.0008644  -0.0000000  -0.0000000  -0.0000933
    2   0.0000000   0.0000000   0.0000000  -0.0000440   0.0000440  -0.0000000
    3  -0.0008263  -0.0000385  -0.0000385   0.0003936   0.0003936   0.0000581
            7
    1   0.0000933
    2  -0.0000000
    3   0.0000581
 Max gradient component =       8.644E-04
 RMS gradient           =       3.463E-04
 Gradient time:  CPU 30.68 s  wall 30.75 s
 Geometry Optimization Parameters
   NAtoms,    NIC,     NZ,  NCons,   NDum,   NFix, NCnnct, MaxDiis
        7      46       8       0       0       0       0       0

 Cartesian Hessian Update
 Hessian Updated using BFGS Update


** GEOMETRY OPTIMIZATION IN DELOCALIZED INTERNAL COORDINATES **
   Searching for a Minimum

   Optimization Cycle:   2

                       Coordinates (Angstroms)
     ATOM              X           Y           Z
    1  C           0.000000    0.000000    1.363181
    2  C           0.643541    0.000000    0.002329
    3  C          -0.643541    0.000000    0.002329
    4  H           0.000000    0.909269    1.961332
    5  H           0.000000   -0.909269    1.961332
    6  H           1.571475    0.000000   -0.539061
    7  H          -1.571475    0.000000   -0.539061
   Point Group: c1    Number of degrees of freedom:  15


   Energy is   -116.663335677

 Hessian Updated using BFGS Update

  6 Hessian modes will be used to form the next step
  Hessian Eigenvalues:
     0.114434    0.160015    0.300218    0.338631    0.369339    0.552424

 Minimum Search - Taking Simple RFO Step
 Searching for Lamda that Minimizes Along All modes
 Value Taken    Lamda =  -0.00000325
 Step Taken.  Stepsize is  0.004717

                             Maximum     Tolerance    Cnvgd?
         Gradient           0.000634      0.000300      NO
         Displacement       0.003164      0.001200      NO
         Energy change     -0.000193      0.000001      NO


 New Cartesian Coordinates Obtained by Inverse Iteration

 Displacement from previous Coordinates is:  0.003415
 Writing REM_CC_EA            7
 ----------------------------------------------------
       Standard Nuclear Orientation (Angstroms)
    I     Atom         X            Y            Z
 ----------------------------------------------------
    1      C       0.000000     0.000000     1.363731
    2      C       0.643214     0.000000     0.002737
    3      C      -0.643214     0.000000     0.002737
    4      H       0.000000     0.909815     1.960446
    5      H       0.000000    -0.909815     1.960446
    6      H       1.571184     0.000000    -0.538857
    7      H      -1.571184     0.000000    -0.538857
 ----------------------------------------------------
 Nuclear Repulsion Energy =    64.0072104231 hartrees
 There are       11 alpha and       11 beta electrons
 Applying Cartesian multipole field
    Component          Value
    ---------          -----
     (2,0,0)        1.00000E-11
     (0,2,0)        2.00000E-11
     (0,0,2)       -3.00000E-11
 Nucleus-field energy     =    -0.0000000016 hartrees
 Requested basis set is G3large
 There are 54 shells and 166 basis functions
 A cutoff of  1.0D-11 yielded   1473 shell pairs
 There are  13927 function pairs ( 17152 Cartesian)
Evaluating contribution to one-electron hamiltonian from nuclear
 Smallest overlap matrix eigenvalue = 2.48E-05
 Multipole matrices computed through 2nd order
 Guess MOs from SCF MO coefficient file
Reading MOs from coefficient file
Reading MOs from coefficient file
 An unrestricted hybrid HF-DFT SCF calculation will be
 performed using Pulay DIIS extrapolation
 Exchange:     0.2000 Hartree-Fock + 0.0800 Slater + 0.7200 Becke88
 Correlation:  0.8100 LYP + 0.1900 VWN1RPA
 Using SG-1 standard quadrature grid
 SCF converges when DIIS error is below 1.0E-08
 ---------------------------------------
  Cycle       Energy         DIIS Error
 ---------------------------------------
    1    -116.6633090138      2.74E-05
    2    -116.6633374989      3.42E-06
    3    -116.6633375654      3.97E-06
    4    -116.6633378764      4.18E-07
    5    -116.6633379034      1.73E-07
    6    -116.6633378631      4.38E-08
    7    -116.6633378736      4.50E-09 Convergence criterion met
 ---------------------------------------
 One-Electron    Energy =  -282.0689047356
 Total Coulomb   Energy =   119.1479537676
 Alpha Exchange  Energy =    -1.6929792384
 Beta  Exchange  Energy =    -1.6929792384
 DFT   Exchange  Energy =   -13.4450143167
 DFT Correlation Energy =    -0.9186245336
 Nuclear Repu.   Energy =    64.0072104215
 Nuclear Attr.   Energy =  -398.1891307102
 Kinetic         Energy =   116.1202259746
 <S^2> = 0.0000
 SCF time:  CPU 49.81 s  wall 50.19 s
 Final Alpha MO Eigenvalues
            1           2           3           4           5           6
    1 -10.1867792 -10.1855574 -10.1811963  -0.8757856  -0.6044898  -0.5685785
            7           8           9          10          11          12
    1  -0.5100151  -0.4403409  -0.3558329  -0.3011270  -0.2598740  -0.0105958
           13          14          15          16
    1   0.0027926   0.0139811   0.0146880   0.0295411
 Final Beta MO Eigenvalues
            1           2           3           4           5           6
    1 -10.1867792 -10.1855574 -10.1811963  -0.8757856  -0.6044898  -0.5685785
            7           8           9          10          11          12
    1  -0.5100151  -0.4403409  -0.3558329  -0.3011270  -0.2598740  -0.0105958
           13          14          15          16
    1   0.0027926   0.0139811   0.0146880   0.0295411
 Analysis of SCF Wavefunction
 
 --------------------------------------------------------------
                    Orbital Energies (a.u.)
 --------------------------------------------------------------
 
 Alpha MOs
 -- Occupied --
-10.187 -10.186 -10.181  -0.876  -0.604  -0.569  -0.510  -0.440
 -0.356  -0.301  -0.260
 -- Virtual --
 -0.011   0.003   0.014   0.015   0.030   0.071   0.074   0.083
  0.087   0.104   0.122   0.124   0.125   0.129   0.151   0.156
  0.176   0.177   0.192   0.220   0.262   0.265   0.284   0.386
  0.424   0.449   0.479   0.514   0.532   0.546   0.546   0.554
  0.573   0.578   0.578   0.606   0.649   0.663   0.681   0.711
  0.721   0.819   0.865   0.886   0.890   0.892   1.013   1.021
  1.029   1.096   1.120   1.155   1.226   1.239   1.315   1.332
  1.371   1.393   1.438   1.450   1.450   1.497   1.509   1.520
  1.549   1.645   1.723   2.463   2.502   2.525   2.568   2.582
  2.585   2.604   2.644   2.690   2.718   2.783   2.824   2.879
  2.901   2.902   2.915   2.984   3.059   3.109   3.125   3.134
  3.199   3.234   3.283   3.318   3.344   3.362   3.375   3.383
  3.399   3.417   3.544   3.576   3.653   3.668   3.740   3.810
  3.845   3.908   3.910   3.932   3.952   4.102   4.168   4.287
  4.289   4.377   4.455   4.512   4.613   4.811   4.904   4.907
  5.064   5.069   5.106   5.486   5.583   5.661   6.092   6.849
 23.803  24.328  24.868  27.374  27.559  27.566  27.732  28.121
 28.146  28.342  28.704  28.854  40.906  40.928  40.961  40.997
 41.075  41.132  41.154  41.170  41.180  41.231  41.283  41.291
 41.299  41.373  41.444
 
 Beta MOs
 -- Occupied --
-10.187 -10.186 -10.181  -0.876  -0.604  -0.569  -0.510  -0.440
 -0.356  -0.301  -0.260
 -- Virtual --
 -0.011   0.003   0.014   0.015   0.030   0.071   0.074   0.083
  0.087   0.104   0.122   0.124   0.125   0.129   0.151   0.156
  0.176   0.177   0.192   0.220   0.262   0.265   0.284   0.386
  0.424   0.449   0.479   0.514   0.532   0.546   0.546   0.554
  0.573   0.578   0.578   0.606   0.649   0.663   0.681   0.711
  0.721   0.819   0.865   0.886   0.890   0.892   1.013   1.021
  1.029   1.096   1.120   1.155   1.226   1.239   1.315   1.332
  1.371   1.393   1.438   1.450   1.450   1.497   1.509   1.520
  1.549   1.645   1.723   2.463   2.502   2.525   2.568   2.582
  2.585   2.604   2.644   2.690   2.718   2.783   2.824   2.879
  2.901   2.902   2.915   2.984   3.059   3.109   3.125   3.134
  3.199   3.234   3.283   3.318   3.344   3.362   3.375   3.383
  3.399   3.417   3.544   3.576   3.653   3.668   3.740   3.810
  3.845   3.908   3.910   3.932   3.952   4.102   4.168   4.287
  4.289   4.377   4.455   4.512   4.613   4.811   4.904   4.907
  5.064   5.069   5.106   5.486   5.583   5.661   6.092   6.849
 23.803  24.328  24.868  27.374  27.559  27.566  27.732  28.121
 28.146  28.342  28.704  28.854  40.906  40.928  40.961  40.997
 41.075  41.132  41.154  41.170  41.180  41.231  41.283  41.291
 41.299  41.373  41.444
 --------------------------------------------------------------
 
          Ground-State Mulliken Net Atomic Charges

     Atom                 Charge (a.u.)    Spin (a.u.)
  --------------------------------------------------------
      1 C                    -0.172570       0.000000
      2 C                    -0.141818       0.000000
      3 C                    -0.141818       0.000000
      4 H                     0.078054       0.000000
      5 H                     0.078054       0.000000
      6 H                     0.150049       0.000000
      7 H                     0.150049       0.000000
  --------------------------------------------------------
  Sum of atomic charges =     0.000000
  Sum of spin   charges =     0.000000

 -----------------------------------------------------------------
                    Cartesian Multipole Moments
 -----------------------------------------------------------------
    Charge (ESU x 10^10)
                 0.0000
    Dipole Moment (Debye)
         X       0.0000      Y       0.0000      Z      -0.4730
       Tot       0.4730
    Quadrupole Moments (Debye-Ang)
        XX     -17.0264     XY       0.0000     YY     -19.6459
        XZ       0.0000     YZ       0.0000     ZZ     -19.2627
    Octapole Moments (Debye-Ang^2)
       XXX       0.0000    XXY       0.0000    XYY       0.0000
       YYY       0.0000    XXZ     -13.3379    XYZ       0.0000
       YYZ      -8.2918    XZZ       0.0000    YZZ       0.0000
       ZZZ     -28.9644
    Hexadecapole Moments (Debye-Ang^3)
      XXXX     -59.9325   XXXY       0.0000   XXYY     -17.2065
      XYYY       0.0000   YYYY     -30.4182   XXXZ       0.0000
      XXYZ       0.0000   XYYZ       0.0000   YYYZ       0.0000
      XXZZ     -32.5723   XYZZ       0.0000   YYZZ     -23.7389
      XZZZ       0.0000   YZZZ       0.0000   ZZZZ    -120.9307
 -----------------------------------------------------------------
 Calculating analytic gradient of the SCF energy
 Gradient of XC Energy
            1           2           3           4           5           6
    1   0.0000000   0.2385703  -0.2385703  -0.0000000   0.0000000   0.1901668
    2  -0.0000000   0.0000000  -0.0000000   0.1599246  -0.1599246   0.0000000
    3   0.0500255  -0.0209506  -0.0209506   0.1083486   0.1083486  -0.1124107
            7
    1  -0.1901668
    2  -0.0000000
    3  -0.1124107
 Gradient of SCF Energy
            1           2           3           4           5           6
    1  -0.0000000  -0.0000421   0.0000421   0.0000000   0.0000000  -0.0000230
    2   0.0000000   0.0000000   0.0000000  -0.0000596   0.0000596  -0.0000000
    3  -0.0004453   0.0001045   0.0001045   0.0001194   0.0001194  -0.0000013
            7
    1   0.0000230
    2  -0.0000000
    3  -0.0000012
 Max gradient component =       4.453E-04
 RMS gradient           =       1.114E-04
 Gradient time:  CPU 31.54 s  wall 31.60 s
 Geometry Optimization Parameters
   NAtoms,    NIC,     NZ,  NCons,   NDum,   NFix, NCnnct, MaxDiis
        7      46       8       0       0       0       0       0

 Cartesian Hessian Update
 Hessian Updated using BFGS Update


** GEOMETRY OPTIMIZATION IN DELOCALIZED INTERNAL COORDINATES **
   Searching for a Minimum

   Optimization Cycle:   3

                       Coordinates (Angstroms)
     ATOM              X           Y           Z
    1  C           0.000000    0.000000    1.363731
    2  C           0.643214    0.000000    0.002737
    3  C          -0.643214    0.000000    0.002737
    4  H           0.000000    0.909815    1.960446
    5  H           0.000000   -0.909815    1.960446
    6  H           1.571184    0.000000   -0.538857
    7  H          -1.571184    0.000000   -0.538857
   Point Group: c1    Number of degrees of freedom:  15


   Energy is   -116.663337874

 Hessian Updated using BFGS Update

  6 Hessian modes will be used to form the next step
  Hessian Eigenvalues:
     0.076034    0.160356    0.300176    0.343727    0.368308    0.630785

 Minimum Search - Taking Simple RFO Step
 Searching for Lamda that Minimizes Along All modes
 Value Taken    Lamda =   0.00000000
 Step Taken.  Stepsize is  0.002517

                             Maximum     Tolerance    Cnvgd?
         Gradient           0.000213      0.000300     YES
         Displacement       0.002061      0.001200      NO
         Energy change     -0.000002      0.000001      NO


 New Cartesian Coordinates Obtained by Inverse Iteration

 Displacement from previous Coordinates is:  0.001649
 Writing REM_CC_EA            7
 ----------------------------------------------------
       Standard Nuclear Orientation (Angstroms)
    I     Atom         X            Y            Z
 ----------------------------------------------------
    1      C       0.000000     0.000000     1.364086
    2      C       0.643187     0.000000     0.002823
    3      C      -0.643187     0.000000     0.002823
    4      H       0.000000     0.910203     1.960065
    5      H       0.000000    -0.910203     1.960065
    6      H       1.571213     0.000000    -0.538740
    7      H      -1.571213     0.000000    -0.538740
 ----------------------------------------------------
 Nuclear Repulsion Energy =    64.0045803876 hartrees
 There are       11 alpha and       11 beta electrons
 Applying Cartesian multipole field
    Component          Value
    ---------          -----
     (2,0,0)        1.00000E-11
     (0,2,0)        2.00000E-11
     (0,0,2)       -3.00000E-11
 Nucleus-field energy     =    -0.0000000016 hartrees
 Requested basis set is G3large
 There are 54 shells and 166 basis functions
 A cutoff of  1.0D-11 yielded   1473 shell pairs
 There are  13927 function pairs ( 17152 Cartesian)
Evaluating contribution to one-electron hamiltonian from nuclear
 Smallest overlap matrix eigenvalue = 2.48E-05
 Multipole matrices computed through 2nd order
 Guess MOs from SCF MO coefficient file
Reading MOs from coefficient file
Reading MOs from coefficient file
 An unrestricted hybrid HF-DFT SCF calculation will be
 performed using Pulay DIIS extrapolation
 Exchange:     0.2000 Hartree-Fock + 0.0800 Slater + 0.7200 Becke88
 Correlation:  0.8100 LYP + 0.1900 VWN1RPA
 Using SG-1 standard quadrature grid
 SCF converges when DIIS error is below 1.0E-08
 ---------------------------------------
  Cycle       Energy         DIIS Error
 ---------------------------------------
    1    -116.6633235954      1.10E-05
    2    -116.6633378545      1.69E-06
    3    -116.6633379694      1.83E-06
    4    -116.6633379310      2.06E-07
    5    -116.6633379547      6.52E-08
    6    -116.6633379645      2.14E-08
    7    -116.6633379606      1.57E-09 Convergence criterion met
 ---------------------------------------
 One-Electron    Energy =  -282.0639634818
 Total Coulomb   Energy =   119.1455596440
 Alpha Exchange  Energy =    -1.6929706429
 Beta  Exchange  Energy =    -1.6929706429
 DFT   Exchange  Energy =   -13.4449534706
 DFT Correlation Energy =    -0.9186197524
 Nuclear Repu.   Energy =    64.0045803860
 Nuclear Attr.   Energy =  -398.1839408257
 Kinetic         Energy =   116.1199773439
 <S^2> = 0.0000
 SCF time:  CPU 49.54 s  wall 50.14 s
 Final Alpha MO Eigenvalues
            1           2           3           4           5           6
    1 -10.1867667 -10.1855444 -10.1812012  -0.8757195  -0.6044876  -0.5685488
            7           8           9          10          11          12
    1  -0.5099584  -0.4404417  -0.3558002  -0.3010569  -0.2599151  -0.0105765
           13          14          15          16
    1   0.0027938   0.0139796   0.0146930   0.0295322
 Final Beta MO Eigenvalues
            1           2           3           4           5           6
    1 -10.1867667 -10.1855444 -10.1812012  -0.8757195  -0.6044876  -0.5685488
            7           8           9          10          11          12
    1  -0.5099584  -0.4404417  -0.3558002  -0.3010569  -0.2599151  -0.0105765
           13          14          15          16
    1   0.0027938   0.0139796   0.0146930   0.0295322
 Analysis of SCF Wavefunction
 
 --------------------------------------------------------------
                    Orbital Energies (a.u.)
 --------------------------------------------------------------
 
 Alpha MOs
 -- Occupied --
-10.187 -10.186 -10.181  -0.876  -0.604  -0.569  -0.510  -0.440
 -0.356  -0.301  -0.260
 -- Virtual --
 -0.011   0.003   0.014   0.015   0.030   0.071   0.074   0.083
  0.087   0.104   0.122   0.124   0.125   0.129   0.151   0.156
  0.176   0.177   0.192   0.220   0.262   0.265   0.284   0.386
  0.424   0.449   0.479   0.514   0.532   0.546   0.546   0.554
  0.573   0.578   0.578   0.606   0.649   0.663   0.681   0.711
  0.721   0.819   0.865   0.886   0.890   0.892   1.013   1.021
  1.029   1.096   1.120   1.155   1.226   1.239   1.315   1.332
  1.371   1.393   1.438   1.450   1.450   1.497   1.510   1.520
  1.548   1.645   1.724   2.463   2.502   2.525   2.568   2.582
  2.585   2.604   2.644   2.690   2.718   2.783   2.824   2.879
  2.901   2.902   2.915   2.984   3.059   3.109   3.125   3.134
  3.199   3.234   3.283   3.318   3.344   3.362   3.375   3.383
  3.399   3.417   3.544   3.576   3.653   3.668   3.740   3.810
  3.845   3.908   3.910   3.932   3.952   4.103   4.167   4.287
  4.290   4.376   4.455   4.511   4.613   4.811   4.904   4.907
  5.064   5.069   5.106   5.486   5.582   5.660   6.092   6.849
 23.803  24.328  24.868  27.374  27.559  27.566  27.731  28.121
 28.146  28.342  28.704  28.854  40.906  40.928  40.961  40.997
 41.074  41.132  41.154  41.170  41.180  41.231  41.283  41.291
 41.299  41.373  41.444
 
 Beta MOs
 -- Occupied --
-10.187 -10.186 -10.181  -0.876  -0.604  -0.569  -0.510  -0.440
 -0.356  -0.301  -0.260
 -- Virtual --
 -0.011   0.003   0.014   0.015   0.030   0.071   0.074   0.083
  0.087   0.104   0.122   0.124   0.125   0.129   0.151   0.156
  0.176   0.177   0.192   0.220   0.262   0.265   0.284   0.386
  0.424   0.449   0.479   0.514   0.532   0.546   0.546   0.554
  0.573   0.578   0.578   0.606   0.649   0.663   0.681   0.711
  0.721   0.819   0.865   0.886   0.890   0.892   1.013   1.021
  1.029   1.096   1.120   1.155   1.226   1.239   1.315   1.332
  1.371   1.393   1.438   1.450   1.450   1.497   1.510   1.520
  1.548   1.645   1.724   2.463   2.502   2.525   2.568   2.582
  2.585   2.604   2.644   2.690   2.718   2.783   2.824   2.879
  2.901   2.902   2.915   2.984   3.059   3.109   3.125   3.134
  3.199   3.234   3.283   3.318   3.344   3.362   3.375   3.383
  3.399   3.417   3.544   3.576   3.653   3.668   3.740   3.810
  3.845   3.908   3.910   3.932   3.952   4.103   4.167   4.287
  4.290   4.376   4.455   4.511   4.613   4.811   4.904   4.907
  5.064   5.069   5.106   5.486   5.582   5.660   6.092   6.849
 23.803  24.328  24.868  27.374  27.559  27.566  27.731  28.121
 28.146  28.342  28.704  28.854  40.906  40.928  40.961  40.997
 41.074  41.132  41.154  41.170  41.180  41.231  41.283  41.291
 41.299  41.373  41.444
 --------------------------------------------------------------
 
          Ground-State Mulliken Net Atomic Charges

     Atom                 Charge (a.u.)    Spin (a.u.)
  --------------------------------------------------------
      1 C                    -0.172666       0.000000
      2 C                    -0.141858       0.000000
      3 C                    -0.141858       0.000000
      4 H                     0.078153       0.000000
      5 H                     0.078153       0.000000
      6 H                     0.150038       0.000000
      7 H                     0.150038       0.000000
  --------------------------------------------------------
  Sum of atomic charges =     0.000000
  Sum of spin   charges =     0.000000

 -----------------------------------------------------------------
                    Cartesian Multipole Moments
 -----------------------------------------------------------------
    Charge (ESU x 10^10)
                 0.0000
    Dipole Moment (Debye)
         X       0.0000      Y       0.0000      Z      -0.4726
       Tot       0.4726
    Quadrupole Moments (Debye-Ang)
        XX     -17.0276     XY       0.0000     YY     -19.6434
        XZ       0.0000     YZ       0.0000     ZZ     -19.2640
    Octapole Moments (Debye-Ang^2)
       XXX       0.0000    XXY       0.0000    XYY       0.0000
       YYY       0.0000    XXZ     -13.3408    XYZ       0.0000
       YYZ      -8.2888    XZZ       0.0000    YZZ       0.0000
       ZZZ     -28.9762
    Hexadecapole Moments (Debye-Ang^3)
      XXXX     -59.9352   XXXY       0.0000   XXYY     -17.2077
      XYYY       0.0000   YYYY     -30.4157   XXXZ       0.0000
      XXYZ       0.0000   XYYZ       0.0000   YYYZ       0.0000
      XXZZ     -32.5777   XYZZ       0.0000   YYZZ     -23.7329
      XZZZ       0.0000   YZZZ       0.0000   ZZZZ    -120.9637
 -----------------------------------------------------------------
 Calculating analytic gradient of the SCF energy
 Gradient of XC Energy
            1           2           3           4           5           6
    1  -0.0000000   0.2385144  -0.2385144   0.0000000   0.0000000   0.1901668
    2  -0.0000000  -0.0000000   0.0000000   0.1601103  -0.1601103  -0.0000000
    3   0.0502978  -0.0209007  -0.0209007   0.1081511   0.1081511  -0.1123993
            7
    1  -0.1901668
    2  -0.0000000
    3  -0.1123993
 Gradient of SCF Energy
            1           2           3           4           5           6
    1   0.0000000  -0.0000838   0.0000838  -0.0000000  -0.0000000  -0.0000021
    2  -0.0000000   0.0000000   0.0000000  -0.0000109   0.0000109  -0.0000000
    3  -0.0001192   0.0000591   0.0000591   0.0000122   0.0000122  -0.0000116
            7
    1   0.0000021
    2   0.0000000
    3  -0.0000116
 Max gradient component =       1.192E-04
 RMS gradient           =       4.142E-05
 Gradient time:  CPU 33.08 s  wall 33.14 s
 Geometry Optimization Parameters
   NAtoms,    NIC,     NZ,  NCons,   NDum,   NFix, NCnnct, MaxDiis
        7      46       8       0       0       0       0       0

 Cartesian Hessian Update
 Hessian Updated using BFGS Update


** GEOMETRY OPTIMIZATION IN DELOCALIZED INTERNAL COORDINATES **
   Searching for a Minimum

   Optimization Cycle:   4

                       Coordinates (Angstroms)
     ATOM              X           Y           Z
    1  C           0.000000    0.000000    1.364086
    2  C           0.643187    0.000000    0.002823
    3  C          -0.643187    0.000000    0.002823
    4  H           0.000000    0.910203    1.960065
    5  H           0.000000   -0.910203    1.960065
    6  H           1.571213    0.000000   -0.538740
    7  H          -1.571213    0.000000   -0.538740
   Point Group: c1    Number of degrees of freedom:  15


   Energy is   -116.663337961

 Hessian Updated using BFGS Update

  8 Hessian modes will be used to form the next step
  Hessian Eigenvalues:
     0.066849    0.160321    0.272125    0.287478    0.343785    0.360222
     0.369227    0.617465

 Minimum Search - Taking Simple RFO Step
 Searching for Lamda that Minimizes Along All modes
 Value Taken    Lamda =   0.00000000
 Step Taken.  Stepsize is  0.000574

                             Maximum     Tolerance    Cnvgd?
         Gradient           0.000061      0.000300     YES
         Displacement       0.000521      0.001200     YES
         Energy change      0.000000      0.000001     YES


                       Distance Matrix (Angstroms)
             C (  1)   C (  2)   C (  3)   H (  4)   H (  5)   H (  6)
   C (  2)  1.505565
   C (  3)  1.505565  1.286374
   H (  4)  1.087961  2.252322  2.252322
   H (  5)  1.087961  2.252322  2.252322  1.820405
   H (  6)  2.467683  1.074488  2.279662  3.088885  3.088885
   H (  7)  2.467683  2.279662  1.074488  3.088885  3.088885  3.142427

 


 ******************************
 **  OPTIMIZATION CONVERGED  **
 ******************************
 Analysis of SCF Wavefunction
 
 --------------------------------------------------------------
                    Orbital Energies (a.u.)
 --------------------------------------------------------------
 
 Alpha MOs
 -- Occupied --
-10.187 -10.186 -10.181  -0.876  -0.604  -0.569  -0.510  -0.440
 -0.356  -0.301  -0.260
 -- Virtual --
 -0.011   0.003   0.014   0.015   0.030   0.071   0.074   0.083
  0.087   0.104   0.122   0.124   0.125   0.129   0.151   0.156
  0.176   0.177   0.192   0.220   0.262   0.265   0.284   0.386
  0.424   0.449   0.479   0.514   0.532   0.546   0.546   0.554
  0.573   0.578   0.578   0.606   0.649   0.663   0.681   0.711
  0.721   0.819   0.865   0.886   0.890   0.892   1.013   1.021
  1.029   1.096   1.120   1.155   1.226   1.239   1.315   1.332
  1.371   1.393   1.438   1.450   1.450   1.497   1.510   1.520
  1.548   1.645   1.724   2.463   2.502   2.525   2.568   2.582
  2.585   2.604   2.644   2.690   2.718   2.783   2.824   2.879
  2.901   2.902   2.915   2.984   3.059   3.109   3.125   3.134
  3.199   3.234   3.283   3.318   3.344   3.362   3.375   3.383
  3.399   3.417   3.544   3.576   3.653   3.668   3.740   3.810
  3.845   3.908   3.910   3.932   3.952   4.103   4.167   4.287
  4.290   4.376   4.455   4.511   4.613   4.811   4.904   4.907
  5.064   5.069   5.106   5.486   5.582   5.660   6.092   6.849
 23.803  24.328  24.868  27.374  27.559  27.566  27.731  28.121
 28.146  28.342  28.704  28.854  40.906  40.928  40.961  40.997
 41.074  41.132  41.154  41.170  41.180  41.231  41.283  41.291
 41.299  41.373  41.444
 
 Beta MOs
 -- Occupied --
-10.187 -10.186 -10.181  -0.876  -0.604  -0.569  -0.510  -0.440
 -0.356  -0.301  -0.260
 -- Virtual --
 -0.011   0.003   0.014   0.015   0.030   0.071   0.074   0.083
  0.087   0.104   0.122   0.124   0.125   0.129   0.151   0.156
  0.176   0.177   0.192   0.220   0.262   0.265   0.284   0.386
  0.424   0.449   0.479   0.514   0.532   0.546   0.546   0.554
  0.573   0.578   0.578   0.606   0.649   0.663   0.681   0.711
  0.721   0.819   0.865   0.886   0.890   0.892   1.013   1.021
  1.029   1.096   1.120   1.155   1.226   1.239   1.315   1.332
  1.371   1.393   1.438   1.450   1.450   1.497   1.510   1.520
  1.548   1.645   1.724   2.463   2.502   2.525   2.568   2.582
  2.585   2.604   2.644   2.690   2.718   2.783   2.824   2.879
  2.901   2.902   2.915   2.984   3.059   3.109   3.125   3.134
  3.199   3.234   3.283   3.318   3.344   3.362   3.375   3.383
  3.399   3.417   3.544   3.576   3.653   3.668   3.740   3.810
  3.845   3.908   3.910   3.932   3.952   4.103   4.167   4.287
  4.290   4.376   4.455   4.511   4.613   4.811   4.904   4.907
  5.064   5.069   5.106   5.486   5.582   5.660   6.092   6.849
 23.803  24.328  24.868  27.374  27.559  27.566  27.731  28.121
 28.146  28.342  28.704  28.854  40.906  40.928  40.961  40.997
 41.074  41.132  41.154  41.170  41.180  41.231  41.283  41.291
 41.299  41.373  41.444
 --------------------------------------------------------------
 
          Ground-State Mulliken Net Atomic Charges

     Atom                 Charge (a.u.)    Spin (a.u.)
  --------------------------------------------------------
      1 C                    -0.172666       0.000000
      2 C                    -0.141858       0.000000
      3 C                    -0.141858       0.000000
      4 H                     0.078153       0.000000
      5 H                     0.078153       0.000000
      6 H                     0.150038       0.000000
      7 H                     0.150038       0.000000
  --------------------------------------------------------
  Sum of atomic charges =     0.000000
  Sum of spin   charges =     0.000000

 -----------------------------------------------------------------
                    Cartesian Multipole Moments
 -----------------------------------------------------------------
    Charge (ESU x 10^10)
                 0.0000
    Dipole Moment (Debye)
         X       0.0000      Y       0.0000      Z      -0.4726
       Tot       0.4726
    Quadrupole Moments (Debye-Ang)
        XX     -17.0276     XY       0.0000     YY     -19.6434
        XZ       0.0000     YZ       0.0000     ZZ     -19.2640
    Octapole Moments (Debye-Ang^2)
       XXX       0.0000    XXY       0.0000    XYY       0.0000
       YYY       0.0000    XXZ     -13.3408    XYZ       0.0000
       YYZ      -8.2888    XZZ       0.0000    YZZ       0.0000
       ZZZ     -28.9762
    Hexadecapole Moments (Debye-Ang^3)
      XXXX     -59.9352   XXXY       0.0000   XXYY     -17.2077
      XYYY       0.0000   YYYY     -30.4157   XXXZ       0.0000
      XXYZ       0.0000   XYYZ       0.0000   YYYZ       0.0000
      XXZZ     -32.5777   XYZZ       0.0000   YYZZ     -23.7329
      XZZZ       0.0000   YZZZ       0.0000   ZZZZ    -120.9637
 -----------------------------------------------------------------
 Total job time:  378.85s(wall), 371.42s(cpu) 
 Wed Jul 24 16:04:57 2013

        *************************************************************
        *                                                           *
        *  Thank you very much for using Q-Chem.  Have a nice day.  *
        *                                                           *
        *************************************************************


0 sent ACK to 0 
now end server 0 ... 
 
**********************************************************************
Job 2 of 2 
**********************************************************************
 
Process 0 of 1 is on cl109.stfx.acenet.ca - thread support 1
initial socket setup ...start
initial socket setup ...done 
now start server 0 ... 

cmd = /usr/bin/ssh clhead /usr/local/qchem/bin/get_hostid 922734870 > /scratch/tmp/6067105.1.short.q/qchem28488/lic.dat
                  Welcome to Q-Chem
     A Quantum Leap Into The Future Of Chemistry

 Y. Shao, L. Fusti-Molnar, Y. Jung, J. Kussmann, C. Ochsenfeld,
 S. T. Brown, A. T. B. Gilbert, L. V. Slipchenko,S. V. Levchenko,
 D. P. O'Neill, R. A. DiStasio Jr., R. C. Lochan, T. Wang,
 G. J. O. Beran, N. A. Besley, J. M. Herbert, C. Y. Lin,
 T. Van Voorhis, S. H. Chien, A. Sodt, R. P. Steele, 
 V. A. Rassolov, P. E. Maslen, P. P. Korambath, R. D. Adamson,
 B. Austin, J. Baker, E. F. C. Byrd, H. Dachsel, R. J. Doerksen,
 A. Dreuw, B. D. Dunietz, A. D. Dutoi, T. R. Furlani,
 S. R. Gwaltney, A. Heyden, S. Hirata, C.-P. Hsu, G. Kedziora,
 R. Z. Khaliullin, P. Klunzinger, A. M. Lee, M. S. Lee, W. Liang,
 I. Lotan, N. Nair, B. Peters, E. I. Proynov, P. A. Pieniazek, 
 Y. M. Rhee, J. Ritchie, E. Rosta, C. D. Sherrill, 
 A. C. Simmonett, J. E. Subotnik, H. L. Woodcock III,
 W. Zhang, A. T. Bell, A. K. Chakraborty, D. M. Chipman,
 F. J. Keil, A. Warshel, W. J. Hehre, H. F. Schaefer III,
 J. Kong, A. I. Krylov, P. M. W. Gill, M. Head-Gordon,
 Q-Chem, Version 3.1, Q-Chem, Inc., Pittsburgh, PA (2007).

 Additional authors for Version 3.1: 
 Z. Gan, Y. Zhao, N. E. Schultz, D. Truhlar, E. Epifanovsky and M. Oana.

 Additional authors for Version 3.2: 
 R. Baer, B. R. Brooks, D. Casanova, J.-D. Chai, C.-L. Cheng, 
 C. Cramer, D. Crittenden, A. Ghysels, G. Hawkins, E. G. Hohenstein, 
 C. Kelley, W. Kurlancheek, D. Liotard, E. Livshits, P. Manohar, 
 A. Marenich, D. Neuhauser, R. Olson, M. A. Rohrdanz, K. S. Thanthiriwatte, 
 A. J. W. Thom, V. Vanovschi, C. F. Williams, Q. Wu and Z.-Q. You. 


 Intel X86 Linux Version

 Q-chem begins on Wed Jul 24 16:05:00 2013  

 Parallel job on  1  processors
Processing $rem in /usr/local/qchem/config/preferences.

theFileMan(): MAXOPENFILES=974 MAX_SUB_FILE_NUM=16
Maximum size of a physical file is 2.0 GB, maximum size of a tmp-file is 32.0 GB


--------------------------------------------------------------
User input:
--------------------------------------------------------------

$molecule 
READ 
$end 

$rem
   EXCHANGE B3LYP
   UNRESTRICTED TRUE
   SYMMETRY_DECOMPOSITION       0
   BASIS                   g3large
   JOBTYPE                 freq
   mem_static              760
   max_scf_cycles          200
   scf_final_print         1
   sym_ignore              true
   JOBTYPE                 freq
   IDERIV 1
   SCF_GUESS READ
$end
--------------------------------------------------------------
 Writing REM_CC_EA            7
 ----------------------------------------------------
       Standard Nuclear Orientation (Angstroms)
    I     Atom         X            Y            Z
 ----------------------------------------------------
    1      C       0.000000     0.000000     1.364086
    2      C       0.643187     0.000000     0.002823
    3      C      -0.643187     0.000000     0.002823
    4      H       0.000000     0.910203     1.960065
    5      H       0.000000    -0.910203     1.960065
    6      H       1.571213     0.000000    -0.538740
    7      H      -1.571213     0.000000    -0.538740
 ----------------------------------------------------
 Nuclear Repulsion Energy =    64.0045803876 hartrees
 There are       11 alpha and       11 beta electrons
 Requested basis set is G3large
 There are 54 shells and 166 basis functions

Total QAlloc Memory Limit   2000 MB
Mega-Array Size       759 MB
MEM_STATIC part       760 MB

                       Distance Matrix (Angstroms)
             C (  1)   C (  2)   C (  3)   H (  4)   H (  5)   H (  6)
   C (  2)  1.505565
   C (  3)  1.505565  1.286374
   H (  4)  1.087961  2.252322  2.252322
   H (  5)  1.087961  2.252322  2.252322  1.820405
   H (  6)  2.467683  1.074488  2.279662  3.088885  3.088885
   H (  7)  2.467683  2.279662  1.074488  3.088885  3.088885  3.142427

 
 A cutoff of  1.0D-11 yielded   1473 shell pairs
 There are  13927 function pairs ( 17152 Cartesian)
Evaluating contribution to one-electron hamiltonian from nuclear
 Smallest overlap matrix eigenvalue = 2.48E-05
 Multipole matrices computed through 2nd order
 Guess MOs from SCF MO coefficient file
Reading MOs from coefficient file
Reading MOs from coefficient file
 An unrestricted hybrid HF-DFT SCF calculation will be
 performed using Pulay DIIS extrapolation
 Exchange:     0.2000 Hartree-Fock + 0.0800 Slater + 0.7200 Becke88
 Correlation:  0.8100 LYP + 0.1900 VWN1RPA
 Using SG-1 standard quadrature grid
 SCF converges when DIIS error is below 1.0E-08
 ---------------------------------------
  Cycle       Energy         DIIS Error
 ---------------------------------------
    1    -116.6633378577      5.28E-10
    2    -116.6633378587      8.53E-10 Convergence criterion met
 ---------------------------------------
 One-Electron    Energy =  -282.0639632568
 Total Coulomb   Energy =   119.1455593965
 Alpha Exchange  Energy =    -1.6929706408
 Beta  Exchange  Energy =    -1.6929706408
 DFT   Exchange  Energy =   -13.4449533625
 DFT Correlation Energy =    -0.9186197418
 Nuclear Repu.   Energy =    64.0045803876
 Nuclear Attr.   Energy =  -398.1839404784
 Kinetic         Energy =   116.1199772216
 <S^2> = 0.0000
 SCF time:  CPU 14.34 s  wall 14.40 s
 Final Alpha MO Eigenvalues
            1           2           3           4           5           6
    1 -10.1867667 -10.1855444 -10.1812012  -0.8757195  -0.6044876  -0.5685488
            7           8           9          10          11          12
    1  -0.5099584  -0.4404417  -0.3558002  -0.3010569  -0.2599151  -0.0105765
           13          14          15          16
    1   0.0027938   0.0139796   0.0146930   0.0295322
 Final Beta MO Eigenvalues
            1           2           3           4           5           6
    1 -10.1867667 -10.1855444 -10.1812012  -0.8757195  -0.6044876  -0.5685488
            7           8           9          10          11          12
    1  -0.5099584  -0.4404417  -0.3558002  -0.3010569  -0.2599151  -0.0105765
           13          14          15          16
    1   0.0027938   0.0139796   0.0146930   0.0295322
 Analysis of SCF Wavefunction
 
 --------------------------------------------------------------
                    Orbital Energies (a.u.)
 --------------------------------------------------------------
 
 Alpha MOs
 -- Occupied --
-10.187 -10.186 -10.181  -0.876  -0.604  -0.569  -0.510  -0.440
 -0.356  -0.301  -0.260
 -- Virtual --
 -0.011   0.003   0.014   0.015   0.030   0.071   0.074   0.083
  0.087   0.104   0.122   0.124   0.125   0.129   0.151   0.156
  0.176   0.177   0.192   0.220   0.262   0.265   0.284   0.386
  0.424   0.449   0.479   0.514   0.532   0.546   0.546   0.554
  0.573   0.578   0.578   0.606   0.649   0.663   0.681   0.711
  0.721   0.819   0.865   0.886   0.890   0.892   1.013   1.021
  1.029   1.096   1.120   1.155   1.226   1.239   1.315   1.332
  1.371   1.393   1.438   1.450   1.450   1.497   1.510   1.520
  1.548   1.645   1.724   2.463   2.502   2.525   2.568   2.582
  2.585   2.604   2.644   2.690   2.718   2.783   2.824   2.879
  2.901   2.902   2.915   2.984   3.059   3.109   3.125   3.134
  3.199   3.234   3.283   3.318   3.344   3.362   3.375   3.383
  3.399   3.417   3.544   3.576   3.653   3.668   3.740   3.810
  3.845   3.908   3.910   3.932   3.952   4.103   4.167   4.287
  4.290   4.376   4.455   4.511   4.613   4.811   4.904   4.907
  5.064   5.069   5.106   5.486   5.582   5.660   6.092   6.849
 23.803  24.328  24.868  27.374  27.559  27.566  27.731  28.121
 28.146  28.342  28.704  28.854  40.906  40.928  40.961  40.997
 41.074  41.132  41.154  41.170  41.180  41.231  41.283  41.291
 41.299  41.373  41.444
 
 Beta MOs
 -- Occupied --
-10.187 -10.186 -10.181  -0.876  -0.604  -0.569  -0.510  -0.440
 -0.356  -0.301  -0.260
 -- Virtual --
 -0.011   0.003   0.014   0.015   0.030   0.071   0.074   0.083
  0.087   0.104   0.122   0.124   0.125   0.129   0.151   0.156
  0.176   0.177   0.192   0.220   0.262   0.265   0.284   0.386
  0.424   0.449   0.479   0.514   0.532   0.546   0.546   0.554
  0.573   0.578   0.578   0.606   0.649   0.663   0.681   0.711
  0.721   0.819   0.865   0.886   0.890   0.892   1.013   1.021
  1.029   1.096   1.120   1.155   1.226   1.239   1.315   1.332
  1.371   1.393   1.438   1.450   1.450   1.497   1.510   1.520
  1.548   1.645   1.724   2.463   2.502   2.525   2.568   2.582
  2.585   2.604   2.644   2.690   2.718   2.783   2.824   2.879
  2.901   2.902   2.915   2.984   3.059   3.109   3.125   3.134
  3.199   3.234   3.283   3.318   3.344   3.362   3.375   3.383
  3.399   3.417   3.544   3.576   3.653   3.668   3.740   3.810
  3.845   3.908   3.910   3.932   3.952   4.103   4.167   4.287
  4.290   4.376   4.455   4.511   4.613   4.811   4.904   4.907
  5.064   5.069   5.106   5.486   5.582   5.660   6.092   6.849
 23.803  24.328  24.868  27.374  27.559  27.566  27.731  28.121
 28.146  28.342  28.704  28.854  40.906  40.928  40.961  40.997
 41.074  41.132  41.154  41.170  41.180  41.231  41.283  41.291
 41.299  41.373  41.444
 --------------------------------------------------------------
 
          Ground-State Mulliken Net Atomic Charges

     Atom                 Charge (a.u.)    Spin (a.u.)
  --------------------------------------------------------
      1 C                    -0.172666       0.000000
      2 C                    -0.141858       0.000000
      3 C                    -0.141858       0.000000
      4 H                     0.078153       0.000000
      5 H                     0.078153       0.000000
      6 H                     0.150038       0.000000
      7 H                     0.150038       0.000000
  --------------------------------------------------------
  Sum of atomic charges =     0.000000
  Sum of spin   charges =     0.000000

 -----------------------------------------------------------------
                    Cartesian Multipole Moments
 -----------------------------------------------------------------
    Charge (ESU x 10^10)
                 0.0000
    Dipole Moment (Debye)
         X       0.0000      Y       0.0000      Z      -0.4726
       Tot       0.4726
    Quadrupole Moments (Debye-Ang)
        XX     -17.0276     XY       0.0000     YY     -19.6434
        XZ       0.0000     YZ       0.0000     ZZ     -19.2640
    Octapole Moments (Debye-Ang^2)
       XXX       0.0000    XXY       0.0000    XYY       0.0000
       YYY       0.0000    XXZ     -13.3408    XYZ       0.0000
       YYZ      -8.2888    XZZ       0.0000    YZZ       0.0000
       ZZZ     -28.9762
    Hexadecapole Moments (Debye-Ang^3)
      XXXX     -59.9352   XXXY       0.0000   XXYY     -17.2077
      XYYY       0.0000   YYYY     -30.4157   XXXZ       0.0000
      XXYZ       0.0000   XYYZ       0.0000   YYYZ       0.0000
      XXZZ     -32.5777   XYZZ       0.0000   YYZZ     -23.7329
      XZZZ       0.0000   YZZZ       0.0000   ZZZZ    -120.9637
 -----------------------------------------------------------------
 Calculating analytic gradient of the SCF energy
 Gradient of XC Energy
            1           2           3           4           5           6
    1  -0.0000000   0.2385143  -0.2385143   0.0000000   0.0000000   0.1901668
    2  -0.0000000   0.0000000   0.0000000   0.1601103  -0.1601103  -0.0000000
    3   0.0502978  -0.0209007  -0.0209007   0.1081511   0.1081511  -0.1123993
            7
    1  -0.1901668
    2  -0.0000000
    3  -0.1123993
 Gradient of SCF Energy
            1           2           3           4           5           6
    1   0.0000000  -0.0000838   0.0000838  -0.0000000  -0.0000000  -0.0000021
    2   0.0000000   0.0000000   0.0000000  -0.0000109   0.0000109  -0.0000000
    3  -0.0001192   0.0000591   0.0000591   0.0000122   0.0000122  -0.0000116
            7
    1   0.0000021
    2   0.0000000
    3  -0.0000116
 Max gradient component =       1.192E-04
 RMS gradient           =       4.142E-05
 Gradient time:  CPU 30.82 s  wall 31.00 s
 ######################################################
 ######################################################
 # Starting finite difference calculation for IDERIV  #
 Finite diff step size: 1.89e-03 a.u.
 Writing REM_CC_EA            7
 ----------------------------------------------------
       Standard Nuclear Orientation (Angstroms)
    I     Atom         X            Y            Z
 ----------------------------------------------------
    1      C       0.001000     0.000000     1.364086
    2      C       0.643187     0.000000     0.002823
    3      C      -0.643187     0.000000     0.002823
    4      H       0.000000     0.910203     1.960065
    5      H       0.000000    -0.910203     1.960065
    6      H       1.571213     0.000000    -0.538740
    7      H      -1.571213     0.000000    -0.538740
 ----------------------------------------------------
 Nuclear Repulsion Energy =    64.0045754419 hartrees
 There are       11 alpha and       11 beta electrons

                       Distance Matrix (Angstroms)
             C (  1)   C (  2)   C (  3)   H (  4)   H (  5)   H (  6)
   C (  2)  1.505138
   C (  3)  1.505993  1.286374
   H (  4)  1.087962  2.252322  2.252322
   H (  5)  1.087962  2.252322  2.252322  1.820405
   H (  6)  2.467046  1.074488  2.279662  3.088885  3.088885
   H (  7)  2.468320  2.279662  1.074488  3.088885  3.088885  3.142427

 
 Requested basis set is G3large
 There are 54 shells and 166 basis functions
 A cutoff of  1.0D-11 yielded   1473 shell pairs
 There are  13927 function pairs ( 17152 Cartesian)
Evaluating contribution to one-electron hamiltonian from nuclear
 Smallest overlap matrix eigenvalue = 2.48E-05
 Multipole matrices computed through 2nd order
 Guess MOs from SCF MO coefficient file
Reading MOs from coefficient file
Reading MOs from coefficient file
 An unrestricted hybrid HF-DFT SCF calculation will be
 performed using Pulay DIIS extrapolation
 Exchange:     0.2000 Hartree-Fock + 0.0800 Slater + 0.7200 Becke88
 Correlation:  0.8100 LYP + 0.1900 VWN1RPA
 Using SG-1 standard quadrature grid
 SCF converges when DIIS error is below 1.0E-08
 ---------------------------------------
  Cycle       Energy         DIIS Error
 ---------------------------------------
    1    -116.6633368713      2.26E-05
    2    -116.6633375024      2.02E-06
    3    -116.6633374811      3.55E-06
    4    -116.6633375212      3.76E-07
    5    -116.6633375200      4.63E-08
    6    -116.6633375212      8.34E-09 Convergence criterion met
 ---------------------------------------
 One-Electron    Energy =  -282.0639506741
 Total Coulomb   Energy =   119.1455515249
 Alpha Exchange  Energy =    -1.6929705763
 Beta  Exchange  Energy =    -1.6929705763
 DFT   Exchange  Energy =   -13.4449529465
 DFT Correlation Energy =    -0.9186197147
 Nuclear Repu.   Energy =    64.0045754419
 Nuclear Attr.   Energy =  -398.1839263355
 Kinetic         Energy =   116.1199756614
 <S^2> = 0.0000
 SCF time:  CPU 43.82 s  wall 44.01 s
 Final Alpha MO Eigenvalues
            1           2           3           4           5           6
    1 -10.1867668 -10.1855445 -10.1812016  -0.8757196  -0.6044876  -0.5685488
            7           8           9          10          11          12
    1  -0.5099584  -0.4404417  -0.3558008  -0.3010564  -0.2599151  -0.0105766
           13          14          15          16
    1   0.0027938   0.0139796   0.0146930   0.0295323
 Final Beta MO Eigenvalues
            1           2           3           4           5           6
    1 -10.1867668 -10.1855445 -10.1812016  -0.8757196  -0.6044876  -0.5685488
            7           8           9          10          11          12
    1  -0.5099584  -0.4404417  -0.3558008  -0.3010564  -0.2599151  -0.0105766
           13          14          15          16
    1   0.0027938   0.0139796   0.0146930   0.0295323
 Analysis of SCF Wavefunction
 
 --------------------------------------------------------------
                    Orbital Energies (a.u.)
 --------------------------------------------------------------
 
 Alpha MOs
 -- Occupied --
-10.187 -10.186 -10.181  -0.876  -0.604  -0.569  -0.510  -0.440
 -0.356  -0.301  -0.260
 -- Virtual --
 -0.011   0.003   0.014   0.015   0.030   0.071   0.074   0.083
  0.087   0.104   0.122   0.124   0.125   0.129   0.151   0.156
  0.176   0.177   0.192   0.220   0.262   0.265   0.284   0.386
  0.424   0.449   0.479   0.514   0.532   0.546   0.546   0.554
  0.573   0.578   0.578   0.606   0.649   0.663   0.681   0.711
  0.721   0.819   0.865   0.886   0.890   0.892   1.013   1.021
  1.029   1.096   1.120   1.155   1.226   1.239   1.315   1.332
  1.371   1.393   1.438   1.450   1.450   1.497   1.510   1.520
  1.548   1.645   1.724   2.463   2.502   2.525   2.568   2.582
  2.585   2.604   2.644   2.690   2.718   2.783   2.824   2.879
  2.901   2.902   2.915   2.984   3.059   3.109   3.125   3.134
  3.199   3.234   3.283   3.318   3.344   3.362   3.375   3.383
  3.399   3.417   3.544   3.576   3.653   3.668   3.740   3.810
  3.845   3.908   3.910   3.932   3.952   4.103   4.167   4.287
  4.290   4.376   4.455   4.511   4.613   4.811   4.904   4.907
  5.064   5.069   5.106   5.486   5.582   5.660   6.092   6.849
 23.803  24.328  24.868  27.374  27.559  27.566  27.731  28.121
 28.146  28.342  28.704  28.854  40.906  40.928  40.961  40.997
 41.074  41.132  41.154  41.170  41.180  41.231  41.283  41.291
 41.299  41.373  41.444
 
 Beta MOs
 -- Occupied --
-10.187 -10.186 -10.181  -0.876  -0.604  -0.569  -0.510  -0.440
 -0.356  -0.301  -0.260
 -- Virtual --
 -0.011   0.003   0.014   0.015   0.030   0.071   0.074   0.083
  0.087   0.104   0.122   0.124   0.125   0.129   0.151   0.156
  0.176   0.177   0.192   0.220   0.262   0.265   0.284   0.386
  0.424   0.449   0.479   0.514   0.532   0.546   0.546   0.554
  0.573   0.578   0.578   0.606   0.649   0.663   0.681   0.711
  0.721   0.819   0.865   0.886   0.890   0.892   1.013   1.021
  1.029   1.096   1.120   1.155   1.226   1.239   1.315   1.332
  1.371   1.393   1.438   1.450   1.450   1.497   1.510   1.520
  1.548   1.645   1.724   2.463   2.502   2.525   2.568   2.582
  2.585   2.604   2.644   2.690   2.718   2.783   2.824   2.879
  2.901   2.902   2.915   2.984   3.059   3.109   3.125   3.134
  3.199   3.234   3.283   3.318   3.344   3.362   3.375   3.383
  3.399   3.417   3.544   3.576   3.653   3.668   3.740   3.810
  3.845   3.908   3.910   3.932   3.952   4.103   4.167   4.287
  4.290   4.376   4.455   4.511   4.613   4.811   4.904   4.907
  5.064   5.069   5.106   5.486   5.582   5.660   6.092   6.849
 23.803  24.328  24.868  27.374  27.559  27.566  27.731  28.121
 28.146  28.342  28.704  28.854  40.906  40.928  40.961  40.997
 41.074  41.132  41.154  41.170  41.180  41.231  41.283  41.291
 41.299  41.373  41.444
 --------------------------------------------------------------
 
          Ground-State Mulliken Net Atomic Charges

     Atom                 Charge (a.u.)    Spin (a.u.)
  --------------------------------------------------------
      1 C                    -0.172666       0.000000
      2 C                    -0.141768       0.000000
      3 C                    -0.141948       0.000000
      4 H                     0.078153       0.000000
      5 H                     0.078153       0.000000
      6 H                     0.149922       0.000000
      7 H                     0.150154       0.000000
  --------------------------------------------------------
  Sum of atomic charges =     0.000000
  Sum of spin   charges =     0.000000

 -----------------------------------------------------------------
                    Cartesian Multipole Moments
 -----------------------------------------------------------------
    Charge (ESU x 10^10)
                 0.0000
    Dipole Moment (Debye)
         X      -0.0010      Y       0.0000      Z      -0.4726
       Tot       0.4726
    Quadrupole Moments (Debye-Ang)
        XX     -17.0276     XY       0.0000     YY     -19.6434
        XZ      -0.0009     YZ       0.0000     ZZ     -19.2640
    Octapole Moments (Debye-Ang^2)
       XXX      -0.0176    XXY       0.0000    XYY      -0.0062
       YYY       0.0000    XXZ     -13.3408    XYZ       0.0000
       YYZ      -8.2888    XZZ      -0.0104    YZZ       0.0000
       ZZZ     -28.9762
    Hexadecapole Moments (Debye-Ang^3)
      XXXX     -59.9352   XXXY       0.0000   XXYY     -17.2077
      XYYY       0.0000   YYYY     -30.4157   XXXZ      -0.0187
      XXYZ       0.0000   XYYZ      -0.0098   YYYZ       0.0000
      XXZZ     -32.5777   XYZZ       0.0000   YYZZ     -23.7329
      XZZZ      -0.0334   YZZZ       0.0000   ZZZZ    -120.9637
 -----------------------------------------------------------------
 Calculating analytic gradient of the SCF energy
 Gradient of XC Energy
            1           2           3           4           5           6
    1   0.0006043   0.2384535  -0.2385751  -0.0002425  -0.0002425   0.1901680
    2  -0.0000000   0.0000000  -0.0000000   0.1601101  -0.1601101   0.0000000
    3   0.0502977  -0.0210401  -0.0207611   0.1081510   0.1081510  -0.1123778
            7
    1  -0.1901657
    2  -0.0000000
    3  -0.1124207
 Gradient of SCF Energy
            1           2           3           4           5           6
    1   0.0003571  -0.0001865  -0.0000190  -0.0000742  -0.0000742  -0.0000037
    2   0.0000000   0.0000000   0.0000000  -0.0000108   0.0000108  -0.0000000
    3  -0.0001200   0.0001625  -0.0000438   0.0000123   0.0000123   0.0000095
            7
    1   0.0000005
    2  -0.0000000
    3  -0.0000327
 Max gradient component =       3.571E-04
 RMS gradient           =       1.019E-04
 Gradient time:  CPU 33.82 s  wall 33.88 s
 Writing REM_CC_EA            7
 ----------------------------------------------------
       Standard Nuclear Orientation (Angstroms)
    I     Atom         X            Y            Z
 ----------------------------------------------------
    1      C      -0.001000     0.000000     1.364086
    2      C       0.643187     0.000000     0.002823
    3      C      -0.643187     0.000000     0.002823
    4      H       0.000000     0.910203     1.960065
    5      H       0.000000    -0.910203     1.960065
    6      H       1.571213     0.000000    -0.538740
    7      H      -1.571213     0.000000    -0.538740
 ----------------------------------------------------
 Nuclear Repulsion Energy =    64.0045754419 hartrees
 There are       11 alpha and       11 beta electrons

                       Distance Matrix (Angstroms)
             C (  1)   C (  2)   C (  3)   H (  4)   H (  5)   H (  6)
   C (  2)  1.505993
   C (  3)  1.505138  1.286374
   H (  4)  1.087962  2.252322  2.252322
   H (  5)  1.087962  2.252322  2.252322  1.820405
   H (  6)  2.468320  1.074488  2.279662  3.088885  3.088885
   H (  7)  2.467046  2.279662  1.074488  3.088885  3.088885  3.142427

 
 Requested basis set is G3large
 There are 54 shells and 166 basis functions
 A cutoff of  1.0D-11 yielded   1473 shell pairs
 There are  13927 function pairs ( 17152 Cartesian)
Evaluating contribution to one-electron hamiltonian from nuclear
 Smallest overlap matrix eigenvalue = 2.48E-05
 Multipole matrices computed through 2nd order
 Guess MOs from SCF MO coefficient file
Reading MOs from coefficient file
Reading MOs from coefficient file
 An unrestricted hybrid HF-DFT SCF calculation will be
 performed using Pulay DIIS extrapolation
 Exchange:     0.2000 Hartree-Fock + 0.0800 Slater + 0.7200 Becke88
 Correlation:  0.8100 LYP + 0.1900 VWN1RPA
 Using SG-1 standard quadrature grid
 SCF converges when DIIS error is below 1.0E-08
 ---------------------------------------
  Cycle       Energy         DIIS Error
 ---------------------------------------
    1    -116.6633368241      4.52E-05
    2    -116.6633374511      4.04E-06
    3    -116.6633373038      7.09E-06
    4    -116.6633374665      7.53E-07
    5    -116.6633374644      9.28E-08
    6    -116.6633374675      1.80E-08
    7    -116.6633374643      9.83E-09 Convergence criterion met
 ---------------------------------------
 One-Electron    Energy =  -282.0639571033
 Total Coulomb   Energy =   119.1455585201
 Alpha Exchange  Energy =    -1.6929706289
 Beta  Exchange  Energy =    -1.6929706289
 DFT   Exchange  Energy =   -13.4449533303
 DFT Correlation Energy =    -0.9186197348
 Nuclear Repu.   Energy =    64.0045754419
 Nuclear Attr.   Energy =  -398.1839361799
 Kinetic         Energy =   116.1199790767
 <S^2> = 0.0000
 SCF time:  CPU 50.84 s  wall 51.28 s
 Final Alpha MO Eigenvalues
            1           2           3           4           5           6
    1 -10.1867667 -10.1855444 -10.1812013  -0.8757195  -0.6044875  -0.5685488
            7           8           9          10          11          12
    1  -0.5099584  -0.4404416  -0.3558008  -0.3010563  -0.2599150  -0.0105766
           13          14          15          16
    1   0.0027938   0.0139796   0.0146930   0.0295323
 Final Beta MO Eigenvalues
            1           2           3           4           5           6
    1 -10.1867667 -10.1855444 -10.1812013  -0.8757195  -0.6044875  -0.5685488
            7           8           9          10          11          12
    1  -0.5099584  -0.4404416  -0.3558008  -0.3010563  -0.2599150  -0.0105766
           13          14          15          16
    1   0.0027938   0.0139796   0.0146930   0.0295323
 Analysis of SCF Wavefunction
 
 --------------------------------------------------------------
                    Orbital Energies (a.u.)
 --------------------------------------------------------------
 
 Alpha MOs
 -- Occupied --
-10.187 -10.186 -10.181  -0.876  -0.604  -0.569  -0.510  -0.440
 -0.356  -0.301  -0.260
 -- Virtual --
 -0.011   0.003   0.014   0.015   0.030   0.071   0.074   0.083
  0.087   0.104   0.122   0.124   0.125   0.129   0.151   0.156
  0.176   0.177   0.192   0.220   0.262   0.265   0.284   0.386
  0.424   0.449   0.479   0.514   0.532   0.546   0.546   0.554
  0.573   0.578   0.578   0.606   0.649   0.663   0.681   0.711
  0.721   0.819   0.865   0.886   0.890   0.892   1.013   1.021
  1.029   1.096   1.120   1.155   1.226   1.239   1.315   1.332
  1.371   1.393   1.438   1.450   1.450   1.497   1.510   1.520
  1.548   1.645   1.724   2.463   2.502   2.525   2.568   2.582
  2.585   2.604   2.644   2.690   2.718   2.783   2.824   2.879
  2.901   2.902   2.915   2.984   3.059   3.109   3.125   3.134
  3.199   3.234   3.283   3.318   3.344   3.362   3.375   3.383
  3.399   3.417   3.544   3.576   3.653   3.668   3.740   3.810
  3.845   3.908   3.910   3.932   3.952   4.103   4.167   4.287
  4.290   4.376   4.455   4.511   4.613   4.811   4.904   4.907
[...]
    1  -0.0392483   0.0000000  -0.0000024  -0.0008621   0.0000002   0.0111597
    2   0.0000001  -0.2488742   0.1112362  -0.0000031   0.0062326  -0.0000001
    3   0.0000027   0.1102054  -0.1133979  -0.0017582  -0.0000013   0.0002759
    4   0.0016864  -0.0006685  -0.0060298  -0.2848952  -0.0000026   0.1404754
    5  -0.0171024   0.0069874   0.0123122  -0.0000024  -0.0291316   0.0000028
    6   0.0077473  -0.0000652  -0.0184381   0.1340265  -0.0000001  -0.1218563
    7   0.0016794   0.0006686   0.0060327  -0.0043667   0.0000014  -0.0059974
    8   0.0171018   0.0069872   0.0123120  -0.0000026   0.0120718   0.0000024
    9  -0.0077541  -0.0000656  -0.0184390   0.0143551  -0.0000016   0.0018241
   10  -0.0006722  -0.0000015   0.0000014   0.0007129   0.0032199   0.0008687
   11   0.0000020  -0.0200335  -0.0129179  -0.0002467  -0.0006423  -0.0002627
   12   0.0000015   0.0129176   0.0103198   0.0000387  -0.0002895   0.0006847
   13   0.0351265  -0.0000021   0.0000014   0.0007140  -0.0032195   0.0008678
   14  -0.0000021   0.2562140  -0.1235187   0.0002476  -0.0006430   0.0002640
   15   0.0000014  -0.1235187   0.1385879   0.0000383   0.0002912   0.0006843
   16   0.0007140   0.0002476   0.0000383   0.2884169  -0.0000005  -0.1470371
   17  -0.0032195  -0.0006430   0.0002912  -0.0000005   0.0163782   0.0000007
   18   0.0008678   0.0002640   0.0006843  -0.1470371   0.0000007   0.1159370
   19   0.0007146  -0.0002472  -0.0000422   0.0002806   0.0000000  -0.0003371
   20   0.0032202  -0.0006429   0.0002910  -0.0000001  -0.0042657   0.0000003
   21  -0.0008665   0.0002638   0.0006823   0.0003373   0.0000010   0.0024498
           19          20          21
    1  -0.0008625   0.0000003  -0.0111631
    2  -0.0000010   0.0062325  -0.0000018
    3   0.0017702  -0.0000018   0.0002828
    4  -0.0043655  -0.0000016   0.0059969
    5   0.0000000   0.0120718   0.0000024
    6  -0.0143544   0.0000003   0.0018241
    7  -0.2848957   0.0000005  -0.1404747
    8   0.0000000  -0.0291315   0.0000008
    9  -0.1340259  -0.0000004  -0.1218563
   10   0.0007140  -0.0032197  -0.0008668
   11   0.0002469  -0.0006424  -0.0002628
   12  -0.0000434  -0.0002897   0.0006821
   13   0.0007146   0.0032202  -0.0008665
   14  -0.0002472  -0.0006429   0.0002638
   15  -0.0000422   0.0002910   0.0006823
   16   0.0002806  -0.0000001   0.0003373
   17   0.0000000  -0.0042657   0.0000010
   18  -0.0003371   0.0000003   0.0024498
   19   0.2884145   0.0000006   0.1470362
   20   0.0000006   0.0163782   0.0000007
   21   0.1470362   0.0000007   0.1159370
 Writing REM_CC_EA            7
 ----------------------------------------------------
       Standard Nuclear Orientation (Angstroms)
    I     Atom         X            Y            Z
 ----------------------------------------------------
    1      C       0.000000     0.000000     1.364086
    2      C       0.643187     0.000000     0.002823
    3      C      -0.643187     0.000000     0.002823
    4      H       0.000000     0.910203     1.960065
    5      H       0.000000    -0.910203     1.960065
    6      H       1.571213     0.000000    -0.538740
    7      H      -1.571213     0.000000    -0.538740
 ----------------------------------------------------
 Nuclear Repulsion Energy =    64.0045803876 hartrees
 There are       11 alpha and       11 beta electrons
 old dipole drv.
            1           2           3           4           5           6
    1  -0.2008793  -0.0000666   0.0004031  -0.1067381   0.0000119  -0.0454525
    2   0.0000008   0.3008648  -0.0000092   0.0000001  -0.2439476  -0.0000564
    3  -0.0001807   0.0000682   0.2517323   0.3025164   0.0001230  -0.0092148
            7           8           9          10          11          12
    1  -0.1066752  -0.0001033   0.0454536   0.1391955  -0.0000129  -0.0001536
    2   0.0000008  -0.2439477  -0.0000559   0.0000035  -0.1100493  -0.0799325
    3  -0.3025127   0.0000860  -0.0092152   0.0000939  -0.1339530  -0.1388316
           13          14          15          16          17          18
    1   0.1392276  -0.0000193  -0.0001158   0.0679383   0.0000148   0.1123762
    2  -0.0000291  -0.1100498   0.0799037   0.0000590   0.2034437   0.0000396
    3   0.0001107   0.1339535  -0.1388432   0.0443542   0.0000504   0.0221831
           19          20          21
    1   0.0679024   0.0000044  -0.1123751
    2   0.0000003   0.2034455   0.0000398
    3  -0.0443852   0.0000179   0.0221835
 New transposed dipole drv.
            1           2           3
    1  -0.2008793   0.0000008  -0.0001807
    2  -0.0000666   0.3008648   0.0000682
    3   0.0004031  -0.0000092   0.2517323
    4  -0.1067381   0.0000001   0.3025164
    5   0.0000119  -0.2439476   0.0001230
    6  -0.0454525  -0.0000564  -0.0092148
    7  -0.1066752   0.0000008  -0.3025127
    8  -0.0001033  -0.2439477   0.0000860
    9   0.0454536  -0.0000559  -0.0092152
   10   0.1391955   0.0000035   0.0000939
   11  -0.0000129  -0.1100493  -0.1339530
   12  -0.0001536  -0.0799325  -0.1388316
   13   0.1392276  -0.0000291   0.0001107
   14  -0.0000193  -0.1100498   0.1339535
   15  -0.0001158   0.0799037  -0.1388432
   16   0.0679383   0.0000590   0.0443542
   17   0.0000148   0.2034437   0.0000504
   18   0.1123762   0.0000396   0.0221831
   19   0.0679024   0.0000003  -0.0443852
   20   0.0000044   0.2034455   0.0000179
   21  -0.1123751   0.0000398   0.0221835
FINAL TENSOR RESULT:
Order 2, Length 21
Order 1, Length 21
   0.1889559   0.0000002  -0.0000031  -0.0543685   0.0000001   0.0546079  -0.0543654   0.0000008  -0.0545977  -0.0392479  -0.0000035  -0.0000022  -0.0392483   0.0000000  -0.0000024  -0.0008621   0.0000002   0.0111597  -0.0008625   0.0000003  -0.0111631
Order 1, Length 21
   0.0000002   0.5721672   0.0000013   0.0000017  -0.0434402  -0.0000006   0.0000012  -0.0434402   0.0000006  -0.0000003  -0.2488717  -0.1112355   0.0000001  -0.2488742   0.1112362  -0.0000031   0.0062326  -0.0000001  -0.0000010   0.0062325  -0.0000018
Order 1, Length 21
  -0.0000031   0.0000013   0.5846076   0.0861328  -0.0000052  -0.1791909  -0.0861431  -0.0000056  -0.1791878  -0.0000006  -0.1102062  -0.1133970   0.0000027   0.1102054  -0.1133979  -0.0017582  -0.0000013   0.0002759   0.0017702  -0.0000018   0.0002828
Order 1, Length 21
  -0.0543685   0.0000017   0.0861328   1.0283966  -0.0000081  -0.2051667  -0.6881355  -0.0000053  -0.0153951   0.0016826   0.0006687  -0.0060241   0.0016864  -0.0006685  -0.0060298  -0.2848952  -0.0000026   0.1404754  -0.0043655  -0.0000016   0.0059969
Order 1, Length 21
   0.0000001  -0.0434402  -0.0000052  -0.0000081   0.0972334  -0.0000011   0.0000080  -0.0507092  -0.0000018   0.0171022   0.0069880  -0.0123097  -0.0171024   0.0069874   0.0123122  -0.0000024  -0.0291316   0.0000028   0.0000000   0.0120718   0.0000024
Order 1, Length 21
   0.0546079  -0.0000006  -0.1791909  -0.2051667  -0.0000011   0.3485152   0.0153940  -0.0000002  -0.0124116   0.0077482   0.0000641  -0.0184392   0.0077473  -0.0000652  -0.0184381   0.1340265  -0.0000001  -0.1218563  -0.0143544   0.0000003   0.0018241
Order 1, Length 21
  -0.0543654   0.0000012  -0.0861431  -0.6881355   0.0000080   0.0153940   1.0283958   0.0000079   0.2051679   0.0016849  -0.0006684   0.0060279   0.0016794   0.0006686   0.0060327  -0.0043667   0.0000014  -0.0059974  -0.2848957   0.0000005  -0.1404747
Order 1, Length 21
   0.0000008  -0.0434402  -0.0000056  -0.0000053  -0.0507092  -0.0000002   0.0000079   0.0972334   0.0000001  -0.0171022   0.0069881  -0.0123099   0.0171018   0.0069872   0.0123120  -0.0000026   0.0120718   0.0000024   0.0000000  -0.0291315   0.0000008
Order 1, Length 21
  -0.0545977   0.0000006  -0.1791878  -0.0153951  -0.0000018  -0.0124116   0.2051679   0.0000001   0.3485152  -0.0077523   0.0000637  -0.0184403  -0.0077541  -0.0000656  -0.0184390   0.0143551  -0.0000016   0.0018241  -0.1340259  -0.0000004  -0.1218563
Order 1, Length 21
  -0.0392479  -0.0000003  -0.0000006   0.0016826   0.0171022   0.0077482   0.0016849  -0.0171022  -0.0077523   0.0351257   0.0000018   0.0000014  -0.0006722  -0.0000015   0.0000014   0.0007129   0.0032199   0.0008687   0.0007140  -0.0032197  -0.0008668
Order 1, Length 21
  -0.0000035  -0.2488717  -0.1102062   0.0006687   0.0069880   0.0000641  -0.0006684   0.0069881   0.0000637   0.0000018   0.2562141   0.1235204   0.0000020  -0.0200335  -0.0129179  -0.0002467  -0.0006423  -0.0002627   0.0002469  -0.0006424  -0.0002628
Order 1, Length 21
  -0.0000022  -0.1112355  -0.1133970  -0.0060241  -0.0123097  -0.0184392   0.0060279  -0.0123099  -0.0184403   0.0000014   0.1235204   0.1385890   0.0000015   0.0129176   0.0103198   0.0000387  -0.0002895   0.0006847  -0.0000434  -0.0002897   0.0006821
Order 1, Length 21
  -0.0392483   0.0000001   0.0000027   0.0016864  -0.0171024   0.0077473   0.0016794   0.0171018  -0.0077541  -0.0006722   0.0000020   0.0000015   0.0351265  -0.0000021   0.0000014   0.0007140  -0.0032195   0.0008678   0.0007146   0.0032202  -0.0008665
Order 1, Length 21
   0.0000000  -0.2488742   0.1102054  -0.0006685   0.0069874  -0.0000652   0.0006686   0.0069872  -0.0000656  -0.0000015  -0.0200335   0.0129176  -0.0000021   0.2562140  -0.1235187   0.0002476  -0.0006430   0.0002640  -0.0002472  -0.0006429   0.0002638
Order 1, Length 21
  -0.0000024   0.1112362  -0.1133979  -0.0060298   0.0123122  -0.0184381   0.0060327   0.0123120  -0.0184390   0.0000014  -0.0129179   0.0103198   0.0000014  -0.1235187   0.1385879   0.0000383   0.0002912   0.0006843  -0.0000422   0.0002910   0.0006823
Order 1, Length 21
  -0.0008621  -0.0000031  -0.0017582  -0.2848952  -0.0000024   0.1340265  -0.0043667  -0.0000026   0.0143551   0.0007129  -0.0002467   0.0000387   0.0007140   0.0002476   0.0000383   0.2884169  -0.0000005  -0.1470371   0.0002806  -0.0000001   0.0003373
Order 1, Length 21
   0.0000002   0.0062326  -0.0000013  -0.0000026  -0.0291316  -0.0000001   0.0000014   0.0120718  -0.0000016   0.0032199  -0.0006423  -0.0002895  -0.0032195  -0.0006430   0.0002912  -0.0000005   0.0163782   0.0000007   0.0000000  -0.0042657   0.0000010
Order 1, Length 21
   0.0111597  -0.0000001   0.0002759   0.1404754   0.0000028  -0.1218563  -0.0059974   0.0000024   0.0018241   0.0008687  -0.0002627   0.0006847   0.0008678   0.0002640   0.0006843  -0.1470371   0.0000007   0.1159370  -0.0003371   0.0000003   0.0024498
Order 1, Length 21
  -0.0008625  -0.0000010   0.0017702  -0.0043655   0.0000000  -0.0143544  -0.2848957   0.0000000  -0.1340259   0.0007140   0.0002469  -0.0000434   0.0007146  -0.0002472  -0.0000422   0.0002806   0.0000000  -0.0003371   0.2884145   0.0000006   0.1470362
Order 1, Length 21
   0.0000003   0.0062325  -0.0000018  -0.0000016   0.0120718   0.0000003   0.0000005  -0.0291315  -0.0000004  -0.0032197  -0.0006424  -0.0002897   0.0032202  -0.0006429   0.0002910  -0.0000001  -0.0042657   0.0000003   0.0000006   0.0163782   0.0000007
Order 1, Length 21
  -0.0111631  -0.0000018   0.0002828   0.0059969   0.0000024   0.0018241  -0.1404747   0.0000008  -0.1218563  -0.0008668  -0.0002628   0.0006821  -0.0008665   0.0002638   0.0006823   0.0003373   0.0000010   0.0024498   0.1470362   0.0000007   0.1159370


 # Finishing finite difference calculation for IDERIV #
 ######################################################
 ######################################################
 Requested basis set is G3large
 There are 54 shells and 166 basis functions
 **********************************************************************
 **                                                                  **
 **                       VIBRATIONAL ANALYSIS                       **
 **                       --------------------                       **
 **                                                                  **
 **        VIBRATIONAL FREQUENCIES (CM**-1) AND NORMAL MODES         **
 **     FORCE CONSTANTS (mDYN/ANGSTROM) AND REDUCED MASSES (AMU)     **
 **                  INFRARED INTENSITIES (KM/MOL)                   **
 **                                                                  **
 **********************************************************************
 

 Mode:                 1                      2                      3
 Frequency:       604.79                 782.06                 874.10
 Force Cnst:      0.2423                 0.9543                 0.6417
 Red. Mass:       1.1243                 2.6481                 1.4254
 IR Active:          YES                    YES                    YES
 IR Intens:       87.448                 15.285                  0.000
 Raman Active:       YES                    YES                    YES
               X      Y      Z        X      Y      Z        X      Y      Z
 C          0.000  0.014  0.000    0.197  0.000  0.000    0.000  0.000  0.000
 C          0.000 -0.072  0.000   -0.135  0.000  0.193    0.000  0.138  0.000
 C          0.000 -0.072  0.000   -0.135  0.000 -0.193    0.000 -0.138  0.000
 H          0.000  0.087 -0.102    0.379  0.000  0.000   -0.036  0.000  0.000
 H          0.000  0.087  0.102    0.379  0.000  0.000    0.036  0.000  0.000
 H          0.000  0.690  0.000    0.058  0.000  0.528    0.000 -0.693  0.000
 H          0.000  0.690  0.000    0.058  0.000 -0.528    0.000  0.693  0.000
 TransDip   0.000  0.299  0.000    0.125  0.000  0.000    0.000  0.000  0.000

 Mode:                 4                      5                      6
 Frequency:       926.37                1020.47                1039.45
 Force Cnst:      0.5831                 0.6680                 0.9886
 Red. Mass:       1.1533                 1.0888                 1.5530
 IR Active:          YES                    YES                    YES
 IR Intens:        4.183                  0.000                 39.108
 Raman Active:       YES                    YES                    YES
               X      Y      Z        X      Y      Z        X      Y      Z
 C          0.000  0.000 -0.111    0.000  0.000  0.000    0.051  0.000  0.000
 C          0.017  0.000  0.014    0.000  0.061  0.000    0.020  0.000  0.152
 C         -0.017  0.000  0.014    0.000 -0.061  0.000    0.020  0.000 -0.152
 H          0.000  0.002 -0.111    0.696  0.000  0.000   -0.164  0.000  0.000
 H          0.000 -0.002 -0.111   -0.696  0.000  0.000   -0.164  0.000  0.000
 H          0.353  0.000  0.597    0.000  0.108  0.000   -0.378  0.000 -0.553
 H         -0.353  0.000  0.597    0.000 -0.108  0.000   -0.378  0.000  0.553
 TransDip   0.000  0.000  0.065    0.000  0.000  0.000   -0.200  0.000  0.000

 Mode:                 7                      8                      9
 Frequency:      1079.02                1115.49                1147.95
 Force Cnst:      0.9312                 0.9424                 3.2976
 Red. Mass:       1.3574                 1.2855                 4.2472
 IR Active:          YES                    YES                    YES
 IR Intens:       21.517                  1.531                  0.246
 Raman Active:       YES                    YES                    YES
               X      Y      Z        X      Y      Z        X      Y      Z
 C         -0.167  0.000  0.000    0.000 -0.141  0.000    0.000  0.000  0.400
 C          0.032  0.000  0.029    0.000  0.052  0.000   -0.040  0.000 -0.256
 C          0.032  0.000 -0.029    0.000  0.052  0.000    0.040  0.000 -0.256
 H          0.679  0.000  0.000    0.000  0.273 -0.641    0.000  0.053  0.294
 H          0.679  0.000  0.000    0.000  0.273  0.641    0.001 -0.053  0.294
 H         -0.065  0.000 -0.139    0.000 -0.048  0.000    0.348  0.000  0.377
 H         -0.065  0.000  0.139    0.000 -0.048  0.000   -0.348  0.000  0.377
 TransDip   0.149  0.000  0.000    0.000 -0.040  0.000    0.000  0.000  0.016

 Mode:                10                     11                     12
 Frequency:      1529.34                1730.16                3042.65
 Force Cnst:      1.5400                 8.1000                 5.7104
 Red. Mass:       1.1176                 4.5926                 1.0469
 IR Active:          YES                    YES                    YES
 IR Intens:        1.652                 17.879                 72.789
 Raman Active:       YES                    YES                    YES
               X      Y      Z        X      Y      Z        X      Y      Z
 C          0.000  0.000 -0.073    0.000  0.000  0.092    0.000  0.000  0.060
 C          0.047  0.000 -0.011    0.398  0.000 -0.002    0.002  0.000  0.001
 C         -0.047  0.000 -0.011   -0.398  0.000 -0.002   -0.002  0.000  0.001
 H          0.000 -0.388  0.583    0.000  0.210 -0.221    0.000 -0.606 -0.362
 H          0.000  0.388  0.583    0.000 -0.210 -0.221    0.000  0.606 -0.362
 H          0.059  0.000 -0.018    0.388  0.000 -0.306    0.009  0.000 -0.006
 H         -0.059  0.000 -0.018   -0.388  0.000 -0.306   -0.009  0.000 -0.006
 TransDip   0.000  0.000 -0.041    0.000  0.000  0.135    0.000  0.000  0.273

 Mode:                13                     14                     15
 Frequency:      3102.12                3248.45                3293.56
 Force Cnst:      6.3340                 6.7398                 7.3140
 Red. Mass:       1.1172                 1.0840                 1.1444
 IR Active:          YES                    YES                    YES
 IR Intens:       43.545                  0.169                  0.071
 Raman Active:       YES                    YES                    YES
               X      Y      Z        X      Y      Z        X      Y      Z
 C          0.000 -0.100  0.000    0.000  0.000  0.000    0.000  0.000 -0.006
 C          0.000  0.001  0.000   -0.052  0.000  0.028   -0.072  0.000  0.033
 C          0.000  0.001  0.000   -0.052  0.000 -0.028    0.072  0.000  0.033
 H          0.000  0.590  0.383    0.001  0.000  0.000    0.000  0.005  0.002
 H          0.000  0.590 -0.383    0.001  0.000  0.000    0.000 -0.005  0.002
 H          0.000 -0.005  0.000    0.612  0.000 -0.348    0.609  0.000 -0.351
 H          0.000 -0.005  0.000    0.613  0.000  0.349   -0.609  0.000 -0.351
 TransDip   0.000 -0.211  0.000    0.013  0.000  0.000    0.000  0.000 -0.009

 STANDARD THERMODYNAMIC QUANTITIES AT   298.18 K  AND     1.00 ATM

   This Molecule has  0 Imaginary Frequencies
   Zero point vibrational energy:       35.076 kcal/mol

   Atom    1 Element C  Has Mass   12.00000
   Atom    2 Element C  Has Mass   12.00000
   Atom    3 Element C  Has Mass   12.00000
   Atom    4 Element H  Has Mass    1.00783
   Atom    5 Element H  Has Mass    1.00783
   Atom    6 Element H  Has Mass    1.00783
   Atom    7 Element H  Has Mass    1.00783
   Molecular Mass:    40.031320 amu
   Principal axes and moments of inertia in atomic units:
                             1           2           3
    Eigenvalues --       59.18874    82.21012   129.47214
          X               0.00000     1.00000     0.00000
          Y               0.00000     0.00000     1.00000
          Z               1.00000     0.00000     0.00000
   Rotational Symmetry Number is   1
   The Molecule is an Asymmetric Top
   Translational Enthalpy:        0.889 kcal/mol
   Rotational Enthalpy:           0.889 kcal/mol
   Vibrational Enthalpy:         35.385 kcal/mol
   gas constant (RT):             0.593 kcal/mol
   Translational Entropy:        36.989  cal/mol.K
   Rotational Entropy:           21.071  cal/mol.K
   Vibrational Entropy:           1.303  cal/mol.K

   Total Enthalpy:               37.755 kcal/mol
   Total Entropy:                59.364  cal/mol.K
 Total job time:  3730.43s(wall), 3712.62s(cpu) 
 Wed Jul 24 17:07:10 2013

        *************************************************************
        *                                                           *
        *  Thank you very much for using Q-Chem.  Have a nice day.  *
        *                                                           *
        *************************************************************


0 sent ACK to 0 
now end server 0 ... 
