Process 0 of 1 is on cl127.stfx.acenet.ca - thread support 1
initial socket setup ...start
initial socket setup ...done 
now start server 0 ... 

cmd = /usr/bin/ssh clhead /usr/local/qchem/bin/get_hostid 1169536142 > /scratch/tmp/5997812.1.short.q/qchem31037/lic.dat
                  Welcome to Q-Chem
     A Quantum Leap Into The Future Of Chemistry

 Y. Shao, L. Fusti-Molnar, Y. Jung, J. Kussmann, C. Ochsenfeld,
 S. T. Brown, A. T. B. Gilbert, L. V. Slipchenko,S. V. Levchenko,
 D. P. O'Neill, R. A. DiStasio Jr., R. C. Lochan, T. Wang,
 G. J. O. Beran, N. A. Besley, J. M. Herbert, C. Y. Lin,
 T. Van Voorhis, S. H. Chien, A. Sodt, R. P. Steele, 
 V. A. Rassolov, P. E. Maslen, P. P. Korambath, R. D. Adamson,
 B. Austin, J. Baker, E. F. C. Byrd, H. Dachsel, R. J. Doerksen,
 A. Dreuw, B. D. Dunietz, A. D. Dutoi, T. R. Furlani,
 S. R. Gwaltney, A. Heyden, S. Hirata, C.-P. Hsu, G. Kedziora,
 R. Z. Khaliullin, P. Klunzinger, A. M. Lee, M. S. Lee, W. Liang,
 I. Lotan, N. Nair, B. Peters, E. I. Proynov, P. A. Pieniazek, 
 Y. M. Rhee, J. Ritchie, E. Rosta, C. D. Sherrill, 
 A. C. Simmonett, J. E. Subotnik, H. L. Woodcock III,
 W. Zhang, A. T. Bell, A. K. Chakraborty, D. M. Chipman,
 F. J. Keil, A. Warshel, W. J. Hehre, H. F. Schaefer III,
 J. Kong, A. I. Krylov, P. M. W. Gill, M. Head-Gordon,
 Q-Chem, Version 3.1, Q-Chem, Inc., Pittsburgh, PA (2007).

 Additional authors for Version 3.1: 
 Z. Gan, Y. Zhao, N. E. Schultz, D. Truhlar, E. Epifanovsky and M. Oana.

 Additional authors for Version 3.2: 
 R. Baer, B. R. Brooks, D. Casanova, J.-D. Chai, C.-L. Cheng, 
 C. Cramer, D. Crittenden, A. Ghysels, G. Hawkins, E. G. Hohenstein, 
 C. Kelley, W. Kurlancheek, D. Liotard, E. Livshits, P. Manohar, 
 A. Marenich, D. Neuhauser, R. Olson, M. A. Rohrdanz, K. S. Thanthiriwatte, 
 A. J. W. Thom, V. Vanovschi, C. F. Williams, Q. Wu and Z.-Q. You. 


 Intel X86 Linux Version

 Q-chem begins on Wed May 22 11:07:22 2013  

 Parallel job on  1  processors
Processing $rem in /usr/local/qchem/config/preferences.

theFileMan(): MAXOPENFILES=974 MAX_SUB_FILE_NUM=16
Maximum size of a physical file is 2.0 GB, maximum size of a tmp-file is 32.0 GB


--------------------------------------------------------------
User input:
--------------------------------------------------------------

$molecule
-1,2
C          0.00015        0.00000       -0.00006
Cl        -0.00020        0.00000        1.75444
Cl         1.65491        0.00000       -0.58494
Cl        -0.82743       -1.43231       -0.58472
Cl        -0.82743        1.43231       -0.58472
$end

$comment
negative
$end

$xc_functional
C PBE   1.00
X wPBE  1.00
$end

$rem
SYMMETRY_DECOMPOSITION	0
exchange 		general
LRC_DFT                 true
BASIS                   g3large
omega			900
mem_static              760
max_scf_cycles          200
scf_final_print         1
sym_ignore              true
$end

--------------------------------------------------------------
 Writing REM_CC_EA            5
 ----------------------------------------------------
       Standard Nuclear Orientation (Angstroms)
    I     Atom         X            Y            Z
 ----------------------------------------------------
    1      C       0.000150     0.000000    -0.000060
    2      Cl     -0.000200     0.000000     1.754440
    3      Cl      1.654910     0.000000    -0.584940
    4      Cl     -0.827430    -1.432310    -0.584720
    5      Cl     -0.827430     1.432310    -0.584720
 ----------------------------------------------------
 Nuclear Repulsion Energy =   443.2894061578 hartrees
 There are       38 alpha and       37 beta electrons
 Requested basis set is G3large
 There are 86 shells and 306 basis functions

Total QAlloc Memory Limit   2000 MB
Mega-Array Size       743 MB
MEM_STATIC part       760 MB

                       Distance Matrix (Angstroms)
             C (  1)   Cl(  2)   Cl(  3)   Cl(  4)
   Cl(  2)  1.754500
   Cl(  3)  1.755083  2.865674
   Cl(  4)  1.754488  2.864872  2.865925
   Cl(  5)  1.754488  2.864872  2.865925  2.864620
 
 A cutoff of  1.0D-08 yielded   2931 shell pairs
 There are  38903 function pairs ( 54927 Cartesian)
Evaluating contribution to one-electron hamiltonian from nuclear
 Smallest overlap matrix eigenvalue = 3.52E-05

 Q-Chem warning in module mkSTV.C, line 194:

 Overlap eigenvalue is smaller than square root of threshold

 Multipole matrices computed through 2nd order

  Scale SEOQF with 1.000000e-01/1.000000e-01/1.000000e-01

 Standard Electronic Orientation quadrupole field applied
 Guess from superposition of atomic densities
 Warning:  Energy on first SCF cycle will be non-variational
 Long-range K will be added via erf
 Coulomb attenuation parameter = 0.9 bohr**(-1)
 An unrestricted Kohn-Sham SCF calculation will be
 performed using Pulay DIIS extrapolation
 Exchange:  wPBE + LR-HF      Correlation:  PBE
 Using SG-1 standard quadrature grid
 SCF converges when DIIS error is below 1.0E-05
 Requested basis set is G3large
 There are 86 shells and 306 basis functions
 A cutoff of  1.0D-08 yielded   2931 shell pairs
 There are  38903 function pairs ( 54927 Cartesian)
 Warning!  Inaccurate integrated density:
   Number of electrons =    75
   Numerical integral  =    74.000007602611
   Relative error      =    -1.3333231965 %
 ---------------------------------------
  Cycle       Energy         DIIS Error
 ---------------------------------------
    1   -1879.6391937099      1.98E-02
    2   -1878.4106377129      2.78E-03
    3   -1878.4529262739      2.56E-03
    4   -1878.5154548106      3.42E-04
    5   -1878.5178242711      1.29E-04
    6   -1878.5184113155      4.32E-05
    7   -1878.5185293318      1.42E-05
    8   -1878.5185498816      5.76E-06 Convergence criterion met
 ---------------------------------------
 One-Electron    Energy = -3491.5767804912
 Total Coulomb   Energy =  1288.1092029631
 Alpha Exchange  Energy =   -15.1430681069
 Beta  Exchange  Energy =   -14.8839582540
 DFT   Exchange  Energy =   -85.3907756430
 DFT Correlation Energy =    -2.9225765074
 Nuclear Repu.   Energy =   443.2894061578
 Nuclear Attr.   Energy = -5367.9707985502
 Kinetic         Energy =  1876.3940180591
 <S^2> = 0.7597
 SCF time:  CPU 448.81 s  wall 451.22 s
 Final Alpha MO Eigenvalues
            1           2           3           4           5           6
    1-100.9802114-100.9790766-100.9788405-100.9786639 -10.3852591  -9.5078704
            7           8           9          10          11          12
    1  -9.5067581  -9.5064928  -9.5063201  -7.2924396  -7.2913205  -7.2908505
           13          14          15          16          17          18
    1  -7.2908014  -7.2818568  -7.2817408  -7.2807502  -7.2806340  -7.2805409
           19          20          21          22          23          24
    1  -7.2805365  -7.2803537  -7.2802636  -1.0897064  -0.9279155  -0.9273178
           25          26          27          28          29          30
    1  -0.9270965  -0.6701780  -0.4933673  -0.4931230  -0.4930438  -0.3655923
           31          32          33          34          35          36
    1  -0.3655633  -0.3252232  -0.3251566  -0.3250363  -0.2891106  -0.2890307
           37          38          39          40          41          42
    1  -0.2886626   0.0016277   0.2037910   0.2101159   0.2102364   0.2102749
           43
    1   0.2447826
 Final Beta MO Eigenvalues
            1           2           3           4           5           6
    1-100.9794413-100.9782851-100.9780348-100.9778564 -10.3751042  -9.5070093
            7           8           9          10          11          12
    1  -9.5058715  -9.5055914  -9.5054157  -7.2902427  -7.2890716  -7.2884383
           13          14          15          16          17          18
    1  -7.2884356  -7.2813052  -7.2811347  -7.2801781  -7.2800065  -7.2799947
           19          20          21          22          23          24
    1  -7.2799902  -7.2798055  -7.2796631  -1.0697159  -0.9176128  -0.9167853
           25          26          27          28          29          30
    1  -0.9164699  -0.6327926  -0.4776508  -0.4773825  -0.4772990  -0.3600818
           31          32          33          34          35          36
    1  -0.3600566  -0.3145654  -0.3145466  -0.3145191  -0.2859181  -0.2858308
           37          38          39          40          41          42
    1  -0.2853909   0.1956583   0.2180136   0.2183542   0.2184582   0.2517768
 Analysis of SCF Wavefunction
 
 --------------------------------------------------------------
                    Orbital Energies (a.u.)
 --------------------------------------------------------------
 
 Alpha MOs
 -- Occupied --
*******-100.979-100.979-100.979 -10.385  -9.508  -9.507  -9.506
 -9.506  -7.292  -7.291  -7.291  -7.291  -7.282  -7.282  -7.281
 -7.281  -7.281  -7.281  -7.280  -7.280  -1.090  -0.928  -0.927
 -0.927  -0.670  -0.493  -0.493  -0.493  -0.366  -0.366  -0.325
 -0.325  -0.325  -0.289  -0.289  -0.289   0.002
 -- Virtual --
  0.204   0.210   0.210   0.210   0.245   0.245   0.245   0.275
  0.275   0.307   0.307   0.307   0.314   0.318   0.318   0.318
  0.339   0.339   0.339   0.391   0.391   0.391   0.491   0.519
  0.519   0.574   0.574   0.574   0.605   0.605   0.605   0.634
  0.634   0.634   0.646   0.646   0.656   0.692   0.692   0.693
  0.710   0.710   0.711   0.751   0.751   0.751   0.809   0.810
  0.818   0.857   0.857   0.858   0.973   0.974   0.974   1.062
  1.178   1.178   1.178   1.187   1.187   1.279   1.279   1.279
  1.362   1.362   1.362   1.372   1.396   1.396   1.396   1.460
  1.460   1.473   1.473   1.473   1.485   1.485   1.486   1.533
  1.537   1.537   1.537   1.542   1.543   1.543   1.556   1.556
  1.572   1.572   1.572   1.603   1.784   1.785   1.785   1.795
  1.795   1.795   1.826   1.831   1.831   1.956   1.956   1.956
  2.047   2.048   2.048   2.073   2.086   2.086   2.086   2.129
  2.129   2.296   2.297   2.297   2.581   2.581   2.581   2.682
  2.682   2.682   2.696   2.696   2.872   2.872   2.873   3.086
  3.499   3.499   3.499   3.711   3.711   3.711   3.718   3.824
  3.824   3.824   4.045   4.045   4.251   4.252   4.252   4.780
  4.781   4.781   4.784   4.785   4.785   4.789   4.820   4.820
  4.835   4.835   4.835   4.858   4.910   4.910   4.910   4.943
  4.943   5.020   5.021   5.021   5.068   5.069   5.069   5.078
  5.078   5.079   5.104   5.529   5.529   5.531   5.532   5.533
  5.543   5.544   5.544   5.665   5.665   5.666   5.793   5.794
  5.794   5.812   5.812   6.161   6.301   6.301   6.302  10.298
 10.351  10.352  10.352  21.033  21.033  21.033  21.060  21.060
 21.060  21.077  21.077  21.373  21.374  21.375  21.394  24.116
 27.532  27.540  27.548  27.554  27.562  27.568  27.581  27.613
 27.616  27.620  27.621  27.644  27.659  27.681  27.685  27.690
 27.703  27.703  27.716  27.772  28.378  28.386  28.392  37.247
 37.249  37.249  37.250  37.251  37.251  37.251  37.253  37.253
 37.257  37.259  37.259  37.261  37.264  37.265  37.266  37.268
 37.268  37.276  37.276  37.276  37.282  37.284  37.285  37.285
 37.291  37.293  37.293  41.221  41.230  41.443  41.452  41.468
216.279 216.308 216.309 216.309
 
 Beta MOs
 -- Occupied --
*******-100.978-100.978-100.978 -10.375  -9.507  -9.506  -9.506
 -9.505  -7.290  -7.289  -7.288  -7.288  -7.281  -7.281  -7.280
 -7.280  -7.280  -7.280  -7.280  -7.280  -1.070  -0.918  -0.917
 -0.916  -0.633  -0.478  -0.477  -0.477  -0.360  -0.360  -0.315
 -0.315  -0.315  -0.286  -0.286  -0.285
 -- Virtual --
  0.196   0.218   0.218   0.218   0.252   0.252   0.252   0.257
  0.276   0.276   0.308   0.308   0.308   0.328   0.328   0.329
  0.333   0.360   0.360   0.360   0.394   0.394   0.394   0.498
  0.524   0.524   0.582   0.582   0.582   0.611   0.611   0.611
  0.636   0.636   0.636   0.648   0.648   0.664   0.699   0.700
  0.700   0.716   0.716   0.717   0.753   0.753   0.753   0.811
  0.811   0.837   0.872   0.872   0.872   0.976   0.976   0.976
  1.083   1.181   1.182   1.182   1.191   1.191   1.287   1.288
  1.288   1.366   1.366   1.366   1.374   1.398   1.398   1.398
  1.464   1.464   1.476   1.476   1.476   1.489   1.489   1.489
  1.541   1.541   1.541   1.543   1.546   1.546   1.547   1.560
  1.560   1.576   1.577   1.577   1.604   1.787   1.788   1.788
  1.797   1.797   1.797   1.828   1.836   1.836   1.961   1.961
  1.961   2.051   2.051   2.051   2.088   2.093   2.093   2.093
  2.134   2.134   2.300   2.300   2.301   2.582   2.583   2.583
  2.686   2.686   2.686   2.699   2.699   2.879   2.879   2.880
  3.094   3.506   3.506   3.506   3.718   3.718   3.718   3.725
  3.831   3.831   3.831   4.062   4.062   4.267   4.267   4.268
  4.785   4.785   4.785   4.787   4.787   4.788   4.791   4.825
  4.825   4.837   4.838   4.838   4.860   4.914   4.914   4.915
  4.948   4.948   5.026   5.026   5.026   5.075   5.075   5.075
  5.083   5.083   5.084   5.110   5.530   5.530   5.532   5.533
  5.534   5.544   5.545   5.545   5.667   5.668   5.669   5.795
  5.796   5.796   5.814   5.815   6.165   6.304   6.304   6.305
 10.300  10.353  10.354  10.354  21.033  21.034  21.034  21.061
 21.061  21.061  21.077  21.078  21.376  21.377  21.378  21.397
 24.128  27.536  27.543  27.549  27.555  27.564  27.570  27.584
 27.613  27.617  27.621  27.622  27.645  27.662  27.683  27.687
 27.693  27.705  27.706  27.718  27.775  28.386  28.394  28.400
 37.248  37.249  37.250  37.251  37.251  37.251  37.252  37.253
 37.253  37.257  37.259  37.259  37.261  37.264  37.265  37.266
 37.269  37.269  37.276  37.277  37.277  37.283  37.285  37.286
 37.286  37.291  37.293  37.294  41.223  41.232  41.443  41.452
 41.468 216.280 216.309 216.310 216.310
 --------------------------------------------------------------
 
          Ground-State Mulliken Net Atomic Charges

     Atom                 Charge (a.u.)    Spin (a.u.)
  --------------------------------------------------------
      1 C                     1.927532      -0.254835
      2 Cl                   -0.734046       0.316606
      3 Cl                   -0.734586       0.317240
      4 Cl                   -0.731973       0.313616
      5 Cl                   -0.726927       0.307373
  --------------------------------------------------------
  Sum of atomic charges =    -1.000000
  Sum of spin   charges =     1.000000

 -----------------------------------------------------------------
                    Cartesian Multipole Moments
 -----------------------------------------------------------------
    Charge (ESU x 10^10)
                -4.8032
    Dipole Moment (Debye)
         X      -0.0455      Y       0.0361      Z      -0.0246
       Tot       0.0631
    Quadrupole Moments (Debye-Ang)
        XX     -67.6511     XY      -0.0653     YY     -67.4898
        XZ       0.0560     YZ      -0.0462     ZZ     -67.6610
    Octapole Moments (Debye-Ang^2)
       XXX      -7.1407    XXY       0.0986    XYY       6.6729
       YYY       0.2955    XXZ       4.8813    XYZ       0.0671
       YYZ       4.7152    XZZ      -0.0593    YZZ       0.0510
       ZZZ      -9.8990
    Hexadecapole Moments (Debye-Ang^3)
      XXXX    -442.1728   XXXY      -0.3516   XXYY    -146.8913
      XYYY      -0.4863   YYYY    -439.8089   XXXZ       4.7884
      XXYZ      -0.1146   XYYZ      -4.2118   YYYZ      -0.3436
      XXZZ    -144.1851   XYZZ      -0.1283   YYZZ    -143.8170
      XZZZ       0.2909   YZZZ      -0.2245   ZZZZ    -445.1159
 -----------------------------------------------------------------
 Total job time:  451.80s(wall), 449.38s(cpu) 
 Wed May 22 11:14:54 2013

        *************************************************************
        *                                                           *
        *  Thank you very much for using Q-Chem.  Have a nice day.  *
        *                                                           *
        *************************************************************


0 sent ACK to 0 
now end server 0 ... 
 
**********************************************************************
Job 2 of 3 
**********************************************************************
 
Process 0 of 1 is on cl127.stfx.acenet.ca - thread support 1
initial socket setup ...start
initial socket setup ...done 
now start server 0 ... 

cmd = /usr/bin/ssh clhead /usr/local/qchem/bin/get_hostid 1307470560 > /scratch/tmp/5997812.1.short.q/qchem31037/lic.dat
                  Welcome to Q-Chem
     A Quantum Leap Into The Future Of Chemistry

 Y. Shao, L. Fusti-Molnar, Y. Jung, J. Kussmann, C. Ochsenfeld,
 S. T. Brown, A. T. B. Gilbert, L. V. Slipchenko,S. V. Levchenko,
 D. P. O'Neill, R. A. DiStasio Jr., R. C. Lochan, T. Wang,
 G. J. O. Beran, N. A. Besley, J. M. Herbert, C. Y. Lin,
 T. Van Voorhis, S. H. Chien, A. Sodt, R. P. Steele, 
 V. A. Rassolov, P. E. Maslen, P. P. Korambath, R. D. Adamson,
 B. Austin, J. Baker, E. F. C. Byrd, H. Dachsel, R. J. Doerksen,
 A. Dreuw, B. D. Dunietz, A. D. Dutoi, T. R. Furlani,
 S. R. Gwaltney, A. Heyden, S. Hirata, C.-P. Hsu, G. Kedziora,
 R. Z. Khaliullin, P. Klunzinger, A. M. Lee, M. S. Lee, W. Liang,
 I. Lotan, N. Nair, B. Peters, E. I. Proynov, P. A. Pieniazek, 
 Y. M. Rhee, J. Ritchie, E. Rosta, C. D. Sherrill, 
 A. C. Simmonett, J. E. Subotnik, H. L. Woodcock III,
 W. Zhang, A. T. Bell, A. K. Chakraborty, D. M. Chipman,
 F. J. Keil, A. Warshel, W. J. Hehre, H. F. Schaefer III,
 J. Kong, A. I. Krylov, P. M. W. Gill, M. Head-Gordon,
 Q-Chem, Version 3.1, Q-Chem, Inc., Pittsburgh, PA (2007).

 Additional authors for Version 3.1: 
 Z. Gan, Y. Zhao, N. E. Schultz, D. Truhlar, E. Epifanovsky and M. Oana.

 Additional authors for Version 3.2: 
 R. Baer, B. R. Brooks, D. Casanova, J.-D. Chai, C.-L. Cheng, 
 C. Cramer, D. Crittenden, A. Ghysels, G. Hawkins, E. G. Hohenstein, 
 C. Kelley, W. Kurlancheek, D. Liotard, E. Livshits, P. Manohar, 
 A. Marenich, D. Neuhauser, R. Olson, M. A. Rohrdanz, K. S. Thanthiriwatte, 
 A. J. W. Thom, V. Vanovschi, C. F. Williams, Q. Wu and Z.-Q. You. 


 Intel X86 Linux Version

 Q-chem begins on Wed May 22 11:14:57 2013  

 Parallel job on  1  processors
Processing $rem in /usr/local/qchem/config/preferences.

theFileMan(): MAXOPENFILES=974 MAX_SUB_FILE_NUM=16
Maximum size of a physical file is 2.0 GB, maximum size of a tmp-file is 32.0 GB


--------------------------------------------------------------
User input:
--------------------------------------------------------------

$molecule
0,1
C          0.00015        0.00000       -0.00006
Cl        -0.00020        0.00000        1.75444
Cl         1.65491        0.00000       -0.58494
Cl        -0.82743       -1.43231       -0.58472
Cl        -0.82743        1.43231       -0.58472
$end

$comment
neutral
$end

$xc_functional
C PBE   1.00
X wPBE  1.00
$end


$rem
SYMMETRY_DECOMPOSITION	0
LRC_DFT                 true
exchange 		general
BASIS                   g3large
omega			900
mem_static              760
max_scf_cycles          200
scf_final_print         1
sym_ignore              true
$end

--------------------------------------------------------------
 Writing REM_CC_EA            5
 ----------------------------------------------------
       Standard Nuclear Orientation (Angstroms)
    I     Atom         X            Y            Z
 ----------------------------------------------------
    1      C       0.000150     0.000000    -0.000060
    2      Cl     -0.000200     0.000000     1.754440
    3      Cl      1.654910     0.000000    -0.584940
    4      Cl     -0.827430    -1.432310    -0.584720
    5      Cl     -0.827430     1.432310    -0.584720
 ----------------------------------------------------
 Nuclear Repulsion Energy =   443.2894061578 hartrees
 There are       37 alpha and       37 beta electrons
 Requested basis set is G3large
 There are 86 shells and 306 basis functions

Total QAlloc Memory Limit   2000 MB
Mega-Array Size       743 MB
MEM_STATIC part       760 MB

                       Distance Matrix (Angstroms)
             C (  1)   Cl(  2)   Cl(  3)   Cl(  4)
   Cl(  2)  1.754500
   Cl(  3)  1.755083  2.865674
   Cl(  4)  1.754488  2.864872  2.865925
   Cl(  5)  1.754488  2.864872  2.865925  2.864620
 
 A cutoff of  1.0D-08 yielded   2931 shell pairs
 There are  38903 function pairs ( 54927 Cartesian)
Evaluating contribution to one-electron hamiltonian from nuclear
 Smallest overlap matrix eigenvalue = 3.52E-05

 Q-Chem warning in module mkSTV.C, line 194:

 Overlap eigenvalue is smaller than square root of threshold

 Multipole matrices computed through 2nd order

  Scale SEOQF with 1.000000e-01/1.000000e-01/1.000000e-01

 Standard Electronic Orientation quadrupole field applied
 Guess from superposition of atomic densities
 Warning:  Energy on first SCF cycle will be non-variational
 Long-range K will be added via erf
 Coulomb attenuation parameter = 0.9 bohr**(-1)
 A restricted Kohn-Sham SCF calculation will be
 performed using Pulay DIIS extrapolation
 Exchange:  wPBE + LR-HF      Correlation:  PBE
 Using SG-1 standard quadrature grid
 SCF converges when DIIS error is below 1.0E-05
 Requested basis set is G3large
 There are 86 shells and 306 basis functions
 A cutoff of  1.0D-08 yielded   2931 shell pairs
 There are  38903 function pairs ( 54927 Cartesian)
 ---------------------------------------
  Cycle       Energy         DIIS Error
 ---------------------------------------
    1   -1879.6391937099      1.98E-02
    2   -1878.3495013968      3.89E-03
    3   -1878.3787461604      4.27E-03
    4   -1878.5433570666      3.33E-04
    5   -1878.5459686095      1.09E-04
    6   -1878.5463465554      3.32E-05
    7   -1878.5463793401      1.05E-05
    8   -1878.5463823904      3.01E-06 Convergence criterion met
 ---------------------------------------
 One-Electron    Energy = -3476.2527984739
 Total Coulomb   Energy =  1272.4783014874
 Alpha Exchange  Energy =   -14.9239944690
 Beta  Exchange  Energy =   -14.9239944690
 DFT   Exchange  Energy =   -85.3220577211
 DFT Correlation Energy =    -2.8912449026
 Nuclear Repu.   Energy =   443.2894061578
 Nuclear Attr.   Energy = -5351.8705688488
 Kinetic         Energy =  1875.6177703750
 SCF time:  CPU 345.36 s  wall 348.17 s
 Final Alpha MO Eigenvalues
            1           2           3           4           5           6
    1-101.1895609-101.1895521-101.1895373-101.1894896 -10.6404037  -9.7167330
            7           8           9          10          11          12
    1  -9.7167191  -9.7167001  -9.7166551  -7.5026242  -7.5025814  -7.5024551
           13          14          15          16          17          18
    1  -7.5022725  -7.4900034  -7.4900022  -7.4899738  -7.4898852  -7.4898395
           19          20          21          22          23          24
    1  -7.4898189  -7.4896955  -7.4896493  -1.2884735  -1.1284284  -1.1283895
           25          26          27          28          29          30
    1  -1.1283752  -0.8485638  -0.6921159  -0.6920910  -0.6920890  -0.5628443
           31          32          33          34          35          36
    1  -0.5628223  -0.5186266  -0.5185901  -0.5185811  -0.4885157  -0.4885102
           37          38          39          40          41          42
    1  -0.4884492   0.0484762   0.0783010   0.0826138   0.0826514   0.0826601
 Analysis of SCF Wavefunction
 
 --------------------------------------------------------------
                    Orbital Energies (a.u.)
 --------------------------------------------------------------
 
 Alpha MOs
 -- Occupied --
*******-101.190-101.190-101.189 -10.640  -9.717  -9.717  -9.717
 -9.717  -7.503  -7.503  -7.502  -7.502  -7.490  -7.490  -7.490
 -7.490  -7.490  -7.490  -7.490  -7.490  -1.288  -1.128  -1.128
 -1.128  -0.849  -0.692  -0.692  -0.692  -0.563  -0.563  -0.519
 -0.519  -0.519  -0.489  -0.489  -0.488
 -- Virtual --
  0.048   0.078   0.083   0.083   0.083   0.105   0.105   0.105
  0.141   0.141   0.161   0.161   0.161   0.180   0.180   0.180
  0.186   0.198   0.198   0.198   0.241   0.241   0.241   0.332
  0.332   0.340   0.402   0.403   0.403   0.431   0.431   0.431
  0.450   0.450   0.450   0.466   0.466   0.503   0.535   0.535
  0.535   0.537   0.537   0.537   0.582   0.582   0.582   0.633
  0.633   0.651   0.676   0.676   0.676   0.792   0.792   0.792
  0.881   0.987   0.987   0.988   0.995   0.995   1.089   1.089
  1.089   1.172   1.172   1.172   1.184   1.205   1.205   1.205
  1.269   1.269   1.281   1.281   1.281   1.292   1.292   1.292
  1.342   1.343   1.344   1.344   1.352   1.352   1.352   1.359
  1.359   1.382   1.382   1.382   1.415   1.597   1.597   1.597
  1.601   1.601   1.601   1.634   1.634   1.641   1.762   1.762
  1.762   1.856   1.856   1.856   1.880   1.886   1.886   1.886
  1.936   1.936   2.100   2.100   2.101   2.386   2.386   2.386
  2.484   2.484   2.484   2.500   2.500   2.671   2.671   2.672
  2.887   3.285   3.285   3.285   3.500   3.500   3.500   3.506
  3.609   3.610   3.610   3.832   3.832   4.039   4.039   4.039
  4.576   4.577   4.577   4.582   4.582   4.582   4.587   4.615
  4.615   4.632   4.633   4.633   4.656   4.706   4.706   4.706
  4.738   4.738   4.816   4.816   4.816   4.862   4.862   4.863
  4.873   4.873   4.874   4.896   5.324   5.325   5.327   5.328
  5.328   5.338   5.339   5.340   5.456   5.457   5.457   5.587
  5.587   5.587   5.603   5.604   5.953   6.091   6.092   6.092
 10.092  10.145  10.145  10.145  20.825  20.825  20.825  20.852
 20.852  20.852  20.869  20.869  21.163  21.164  21.164  21.184
 23.863  27.314  27.324  27.338  27.345  27.349  27.359  27.368
 27.404  27.407  27.411  27.412  27.434  27.447  27.470  27.476
 27.478  27.490  27.493  27.506  27.562  28.141  28.150  28.157
 37.037  37.039  37.040  37.041  37.041  37.041  37.042  37.043
 37.043  37.048  37.050  37.050  37.052  37.054  37.055  37.056
 37.058  37.058  37.065  37.065  37.066  37.071  37.073  37.074
 37.075  37.080  37.082  37.082  40.968  40.978  41.188  41.198
 41.214 216.070 216.099 216.099 216.099
 --------------------------------------------------------------
 
          Ground-State Mulliken Net Atomic Charges

     Atom                 Charge (a.u.)
  ----------------------------------------
      1 C                     1.527684
      2 Cl                   -0.381875
      3 Cl                   -0.381790
      4 Cl                   -0.381813
      5 Cl                   -0.382205
  ----------------------------------------
  Sum of atomic charges =     0.000000

 -----------------------------------------------------------------
                    Cartesian Multipole Moments
 -----------------------------------------------------------------
    Charge (ESU x 10^10)
                 0.0000
    Dipole Moment (Debye)
         X      -0.0006      Y      -0.0009      Z       0.0012
       Tot       0.0016
    Quadrupole Moments (Debye-Ang)
        XX     -54.0869     XY       0.0000     YY     -54.0894
        XZ       0.0000     YZ       0.0004     ZZ     -54.0858
    Octapole Moments (Debye-Ang^2)
       XXX       4.7821    XXY      -0.0015    XYY      -4.7862
       YYY      -0.0043    XXZ      -3.3817    XYZ       0.0003
       YYZ      -3.3807    XZZ      -0.0028    YZZ      -0.0017
       ZZZ       6.7705
    Hexadecapole Moments (Debye-Ang^3)
      XXXX    -341.7491   XXXY      -0.0055   XXYY    -113.8552
      XYYY       0.0021   YYYY    -341.4323   XXXZ      -6.3367
      XXYZ       0.0013   XYYZ       6.3746   YYYZ       0.0039
      XXZZ    -118.3739   XYZZ      -0.0006   YYZZ    -118.3178
      XZZZ       0.0203   YZZZ      -0.0016   ZZZZ    -336.9658
 -----------------------------------------------------------------
 Total job time:  348.72s(wall), 345.90s(cpu) 
 Wed May 22 11:20:45 2013

        *************************************************************
        *                                                           *
        *  Thank you very much for using Q-Chem.  Have a nice day.  *
        *                                                           *
        *************************************************************


0 sent ACK to 0 
now end server 0 ... 
 
**********************************************************************
Job 3 of 3 
**********************************************************************
 
Process 0 of 1 is on cl127.stfx.acenet.ca - thread support 1
initial socket setup ...start
initial socket setup ...done 
now start server 0 ... 

cmd = /usr/bin/ssh clhead /usr/local/qchem/bin/get_hostid 1630678366 > /scratch/tmp/5997812.1.short.q/qchem31037/lic.dat
                  Welcome to Q-Chem
     A Quantum Leap Into The Future Of Chemistry

 Y. Shao, L. Fusti-Molnar, Y. Jung, J. Kussmann, C. Ochsenfeld,
 S. T. Brown, A. T. B. Gilbert, L. V. Slipchenko,S. V. Levchenko,
 D. P. O'Neill, R. A. DiStasio Jr., R. C. Lochan, T. Wang,
 G. J. O. Beran, N. A. Besley, J. M. Herbert, C. Y. Lin,
 T. Van Voorhis, S. H. Chien, A. Sodt, R. P. Steele, 
 V. A. Rassolov, P. E. Maslen, P. P. Korambath, R. D. Adamson,
 B. Austin, J. Baker, E. F. C. Byrd, H. Dachsel, R. J. Doerksen,
 A. Dreuw, B. D. Dunietz, A. D. Dutoi, T. R. Furlani,
 S. R. Gwaltney, A. Heyden, S. Hirata, C.-P. Hsu, G. Kedziora,
 R. Z. Khaliullin, P. Klunzinger, A. M. Lee, M. S. Lee, W. Liang,
 I. Lotan, N. Nair, B. Peters, E. I. Proynov, P. A. Pieniazek, 
 Y. M. Rhee, J. Ritchie, E. Rosta, C. D. Sherrill, 
 A. C. Simmonett, J. E. Subotnik, H. L. Woodcock III,
 W. Zhang, A. T. Bell, A. K. Chakraborty, D. M. Chipman,
 F. J. Keil, A. Warshel, W. J. Hehre, H. F. Schaefer III,
 J. Kong, A. I. Krylov, P. M. W. Gill, M. Head-Gordon,
 Q-Chem, Version 3.1, Q-Chem, Inc., Pittsburgh, PA (2007).

 Additional authors for Version 3.1: 
 Z. Gan, Y. Zhao, N. E. Schultz, D. Truhlar, E. Epifanovsky and M. Oana.

 Additional authors for Version 3.2: 
 R. Baer, B. R. Brooks, D. Casanova, J.-D. Chai, C.-L. Cheng, 
 C. Cramer, D. Crittenden, A. Ghysels, G. Hawkins, E. G. Hohenstein, 
 C. Kelley, W. Kurlancheek, D. Liotard, E. Livshits, P. Manohar, 
 A. Marenich, D. Neuhauser, R. Olson, M. A. Rohrdanz, K. S. Thanthiriwatte, 
 A. J. W. Thom, V. Vanovschi, C. F. Williams, Q. Wu and Z.-Q. You. 


 Intel X86 Linux Version

 Q-chem begins on Wed May 22 11:20:48 2013  

 Parallel job on  1  processors
Processing $rem in /usr/local/qchem/config/preferences.

theFileMan(): MAXOPENFILES=974 MAX_SUB_FILE_NUM=16
Maximum size of a physical file is 2.0 GB, maximum size of a tmp-file is 32.0 GB


--------------------------------------------------------------
User input:
--------------------------------------------------------------

$molecule
1,2
C          0.00015        0.00000       -0.00006
Cl        -0.00020        0.00000        1.75444
Cl         1.65491        0.00000       -0.58494
Cl        -0.82743       -1.43231       -0.58472
Cl        -0.82743        1.43231       -0.58472
$end

$comment
positive
$end

$xc_functional
C PBE   1.00
X wPBE  1.00
$end

$rem
SYMMETRY_DECOMPOSITION	0
LRC_DFT                 true
exchange 		general
BASIS                   g3large
omega			900
mem_static              760
max_scf_cycles          200
scf_final_print         1
sym_ignore              true
$end

--------------------------------------------------------------
 Writing REM_CC_EA            5
 ----------------------------------------------------
       Standard Nuclear Orientation (Angstroms)
    I     Atom         X            Y            Z
 ----------------------------------------------------
    1      C       0.000150     0.000000    -0.000060
    2      Cl     -0.000200     0.000000     1.754440
    3      Cl      1.654910     0.000000    -0.584940
    4      Cl     -0.827430    -1.432310    -0.584720
    5      Cl     -0.827430     1.432310    -0.584720
 ----------------------------------------------------
 Nuclear Repulsion Energy =   443.2894061578 hartrees
 There are       37 alpha and       36 beta electrons
 Requested basis set is G3large
 There are 86 shells and 306 basis functions

Total QAlloc Memory Limit   2000 MB
Mega-Array Size       743 MB
MEM_STATIC part       760 MB

                       Distance Matrix (Angstroms)
             C (  1)   Cl(  2)   Cl(  3)   Cl(  4)
   Cl(  2)  1.754500
   Cl(  3)  1.755083  2.865674
   Cl(  4)  1.754488  2.864872  2.865925
   Cl(  5)  1.754488  2.864872  2.865925  2.864620
 
 A cutoff of  1.0D-08 yielded   2931 shell pairs
 There are  38903 function pairs ( 54927 Cartesian)
Evaluating contribution to one-electron hamiltonian from nuclear
 Smallest overlap matrix eigenvalue = 3.52E-05

 Q-Chem warning in module mkSTV.C, line 194:

 Overlap eigenvalue is smaller than square root of threshold

 Multipole matrices computed through 2nd order

  Scale SEOQF with 1.000000e-01/1.000000e-01/1.000000e-01

 Standard Electronic Orientation quadrupole field applied
 Guess from superposition of atomic densities
 Warning:  Energy on first SCF cycle will be non-variational
 Long-range K will be added via erf
 Coulomb attenuation parameter = 0.9 bohr**(-1)
 An unrestricted Kohn-Sham SCF calculation will be
 performed using Pulay DIIS extrapolation
 Exchange:  wPBE + LR-HF      Correlation:  PBE
 Using SG-1 standard quadrature grid
 SCF converges when DIIS error is below 1.0E-05
 Requested basis set is G3large
 There are 86 shells and 306 basis functions
 A cutoff of  1.0D-08 yielded   2931 shell pairs
 There are  38903 function pairs ( 54927 Cartesian)
 Warning!  Inaccurate integrated density:
   Number of electrons =    73
   Numerical integral  =    74.000007602611
   Relative error      =     1.3698734282 %
 ---------------------------------------
  Cycle       Energy         DIIS Error
 ---------------------------------------
    1   -1879.6391937099      1.98E-02
    2   -1877.7918985818      4.56E-03
    3   -1877.8540278881      4.98E-03
    4   -1878.0853324369      4.10E-04
    5   -1878.0904891786      1.85E-04
    6   -1878.0922473714      8.48E-05
    7   -1878.0932391063      5.38E-05
    8   -1878.0937841649      3.30E-05
    9   -1878.0941950788      1.85E-05
   10   -1878.0943257244      9.28E-06 Convergence criterion met
 ---------------------------------------
 One-Electron    Energy = -3458.9693813022
 Total Coulomb   Energy =  1255.2719435502
 Alpha Exchange  Energy =   -14.9754043284
 Beta  Exchange  Energy =   -14.6062769755
 DFT   Exchange  Energy =   -85.2556725973
 DFT Correlation Energy =    -2.8489402289
 Nuclear Repu.   Energy =   443.2894061578
 Nuclear Attr.   Energy = -5334.1331637284
 Kinetic         Energy =  1875.1637824262
 <S^2> = 0.7625
 SCF time:  CPU 534.93 s  wall 536.25 s
 Final Alpha MO Eigenvalues
            1           2           3           4           5           6
    1-101.5572451-101.4079907-101.3851060-101.3844907 -10.8576670 -10.0785123
            7           8           9          10          11          12
    1  -9.9328894  -9.9109572  -9.9104060  -7.8694639  -7.8574202  -7.8462154
           13          14          15          16          17          18
    1  -7.7199307  -7.7074386  -7.7046571  -7.6977905  -7.6970320  -7.6843241
           19          20          21          22          23          24
    1  -7.6837724  -7.6833378  -7.6829562  -1.5466034  -1.4148717  -1.3345143
           25          26          27          28          29          30
    1  -1.3214817  -1.0831617  -0.9496118  -0.9360967  -0.9133976  -0.8497120
           31          32          33          34          35          36
    1  -0.8191326  -0.7463854  -0.7349234  -0.7291726  -0.6975815  -0.6919056
           37          38          39          40          41          42
    1  -0.6777942  -0.1764529  -0.1062707  -0.0998679  -0.0944246  -0.0780136
 Final Beta MO Eigenvalues
            1           2           3           4           5           6
    1-101.5512202-101.4070371-101.3849655-101.3843707 -10.8581344 -10.0724435
            7           8           9          10          11          12
    1  -9.9319338  -9.9108161  -9.9102861  -7.8532839  -7.8522424  -7.8422623
           13          14          15          16          17          18
    1  -7.7184487  -7.7054677  -7.7041100  -7.6976021  -7.6968721  -7.6839839
           19          20          21          22          23          24
    1  -7.6834764  -7.6832743  -7.6829056  -1.5137617  -1.3687773  -1.3260624
           25          26          27          28          29          30
    1  -1.3200051  -1.0693952  -0.9299264  -0.9073989  -0.8844274  -0.8094870
           31          32          33          34          35          36
    1  -0.7364367  -0.7303010  -0.7178105  -0.6971577  -0.6888718  -0.6772471
           37          38          39          40          41
    1  -0.4010952  -0.1643321  -0.1035977  -0.0940668  -0.0929955
 Analysis of SCF Wavefunction
 
 --------------------------------------------------------------
                    Orbital Energies (a.u.)
 --------------------------------------------------------------
 
 Alpha MOs
 -- Occupied --
*******-101.408-101.385-101.384 -10.858 -10.079  -9.933  -9.911
 -9.910  -7.869  -7.857  -7.846  -7.720  -7.707  -7.705  -7.698
 -7.697  -7.684  -7.684  -7.683  -7.683  -1.547  -1.415  -1.335
 -1.321  -1.083  -0.950  -0.936  -0.913  -0.850  -0.819  -0.746
 -0.735  -0.729  -0.698  -0.692  -0.678
 -- Virtual --
 -0.176  -0.106  -0.100  -0.094  -0.078  -0.044  -0.039  -0.038
 -0.005  -0.004  -0.002   0.000   0.007   0.034   0.039   0.042
  0.047   0.049   0.053   0.055   0.067   0.073   0.076   0.120
  0.123   0.176   0.178   0.182   0.225   0.239   0.243   0.243
  0.245   0.246   0.267   0.279   0.285   0.317   0.326   0.339
  0.363   0.369   0.377   0.382   0.383   0.393   0.410   0.433
  0.448   0.449   0.477   0.484   0.488   0.580   0.592   0.614
  0.671   0.770   0.775   0.785   0.789   0.790   0.857   0.883
  0.889   0.939   0.942   0.955   0.961   0.968   0.991   0.992
  1.009   1.010   1.059   1.066   1.084   1.093   1.093   1.095
  1.107   1.128   1.134   1.135   1.142   1.148   1.151   1.152
  1.163   1.165   1.192   1.199   1.211   1.341   1.365   1.365
  1.397   1.409   1.416   1.428   1.434   1.450   1.527   1.558
  1.564   1.630   1.634   1.646   1.670   1.676   1.678   1.683
  1.730   1.732   1.867   1.879   1.912   2.101   2.134   2.198
  2.252   2.266   2.268   2.301   2.304   2.426   2.462   2.470
  2.671   3.063   3.065   3.068   3.273   3.279   3.279   3.292
  3.368   3.402   3.407   3.613   3.615   3.817   3.819   3.821
  4.236   4.252   4.276   4.277   4.350   4.366   4.380   4.393
  4.397   4.399   4.422   4.426   4.442   4.466   4.467   4.500
  4.520   4.528   4.532   4.579   4.587   4.630   4.635   4.645
  4.660   4.663   4.680   4.687   4.974   4.974   5.116   5.119
  5.131   5.138   5.142   5.144   5.170   5.188   5.250   5.340
  5.341   5.390   5.391   5.401   5.699   5.826   5.883   5.893
  9.776   9.907   9.942   9.953  20.468  20.493  20.621  20.625
 20.642  20.643  20.663  20.668  20.830  20.949  20.967  20.981
 23.646  26.987  27.028  27.040  27.077  27.083  27.138  27.143
 27.148  27.149  27.166  27.191  27.218  27.221  27.231  27.259
 27.270  27.285  27.297  27.308  27.327  27.906  27.932  27.938
 36.681  36.682  36.685  36.688  36.699  36.715  36.717  36.828
 36.832  36.833  36.834  36.840  36.842  36.849  36.852  36.853
 36.854  36.856  36.857  36.860  36.861  36.862  36.867  36.872
 36.875  36.877  36.877  36.885  40.750  40.761  40.971  40.981
 40.996 215.724 215.870 215.895 215.904
 
 Beta MOs
 -- Occupied --
*******-101.407-101.385-101.384 -10.858 -10.072  -9.932  -9.911
 -9.910  -7.853  -7.852  -7.842  -7.718  -7.705  -7.704  -7.698
 -7.697  -7.684  -7.683  -7.683  -7.683  -1.514  -1.369  -1.326
 -1.320  -1.069  -0.930  -0.907  -0.884  -0.809  -0.736  -0.730
 -0.718  -0.697  -0.689  -0.677
 -- Virtual --
 -0.401  -0.164  -0.104  -0.094  -0.093  -0.077  -0.039  -0.038
 -0.037   0.000   0.001   0.001   0.002   0.008   0.036   0.041
  0.042   0.052   0.052   0.054   0.055   0.076   0.077   0.080
  0.129   0.134   0.177   0.206   0.208   0.229   0.246   0.246
  0.251   0.251   0.253   0.269   0.283   0.286   0.320   0.342
  0.346   0.364   0.369   0.380   0.383   0.395   0.400   0.413
  0.440   0.450   0.453   0.480   0.487   0.488   0.593   0.594
  0.615   0.673   0.776   0.778   0.790   0.791   0.792   0.865
  0.887   0.890   0.955   0.957   0.966   0.970   0.976   1.008
  1.011   1.018   1.020   1.070   1.071   1.088   1.095   1.096
  1.097   1.113   1.137   1.139   1.139   1.147   1.150   1.154
  1.154   1.165   1.167   1.194   1.200   1.215   1.354   1.373
  1.374   1.401   1.412   1.417   1.431   1.435   1.452   1.533
  1.562   1.565   1.635   1.644   1.647   1.672   1.678   1.679
  1.684   1.733   1.733   1.876   1.882   1.912   2.140   2.141
  2.199   2.261   2.268   2.272   2.302   2.306   2.431   2.465
  2.471   2.673   3.063   3.066   3.068   3.274   3.278   3.282
  3.292   3.370   3.402   3.407   3.612   3.614   3.818   3.820
  3.820   4.281   4.297   4.303   4.305   4.370   4.371   4.382
  4.395   4.400   4.403   4.426   4.430   4.446   4.472   4.474
  4.503   4.526   4.533   4.542   4.589   4.591   4.636   4.639
  4.647   4.663   4.665   4.680   4.689   4.991   4.992   5.118
  5.121   5.133   5.139   5.142   5.145   5.182   5.190   5.251
  5.342   5.344   5.390   5.393   5.401   5.704   5.830   5.884
  5.893   9.787   9.909   9.943   9.953  20.488  20.498  20.622
 20.628  20.642  20.644  20.663  20.668  20.835  20.951  20.967
 20.981  23.645  27.001  27.037  27.055  27.082  27.087  27.139
 27.145  27.149  27.151  27.167  27.193  27.219  27.221  27.232
 27.260  27.271  27.285  27.297  27.308  27.329  27.906  27.932
 27.938  36.686  36.687  36.690  36.692  36.703  36.716  36.719
 36.828  36.832  36.833  36.835  36.841  36.843  36.849  36.852
 36.853  36.854  36.857  36.857  36.860  36.861  36.862  36.867
 36.872  36.875  36.877  36.877  36.885  40.750  40.761  40.971
 40.981  40.995 215.731 215.871 215.895 215.904
 --------------------------------------------------------------
 
          Ground-State Mulliken Net Atomic Charges

     Atom                 Charge (a.u.)    Spin (a.u.)
  --------------------------------------------------------
      1 C                     1.536831      -0.052461
      2 Cl                   -0.271833       0.022304
      3 Cl                   -0.271255       0.023924
      4 Cl                    0.238292       0.901635
      5 Cl                   -0.232035       0.104598
  --------------------------------------------------------
  Sum of atomic charges =     1.000000
  Sum of spin   charges =     1.000000

 -----------------------------------------------------------------
                    Cartesian Multipole Moments
 -----------------------------------------------------------------
    Charge (ESU x 10^10)
                 4.8032
    Dipole Moment (Debye)
         X      -1.8834      Y      -2.6746      Z      -1.3347
       Tot       3.5330
    Quadrupole Moments (Debye-Ang)
        XX     -45.0578     XY       2.3630     YY     -40.5374
        XZ       1.7114     YZ       1.6753     ZZ     -46.3109
    Octapole Moments (Debye-Ang^2)
       XXX       4.5930    XXY      -2.4304    XYY     -11.9214
       YYY      -8.8837    XXZ      -8.2339    XYZ      -1.4783
       YYZ      -8.4506    XZZ      -1.7472    YZZ      -1.3773
       ZZZ      10.2476
    Hexadecapole Moments (Debye-Ang^3)
      XXXX    -298.9209   XXXY       7.1701   XXYY     -98.6058
      XYYY       3.7142   YYYY    -273.0170   XXXZ      -4.7856
      XXYZ       2.2035   XYYZ      10.0168   YYYZ       2.7032
      XXZZ    -106.8842   XYZZ       2.5471   YYZZ    -105.6736
      XZZZ       4.0506   YZZZ       4.6100   ZZZZ    -298.3363
 -----------------------------------------------------------------
 Total job time:  536.83s(wall), 535.49s(cpu) 
 Wed May 22 11:29:45 2013

        *************************************************************
        *                                                           *
        *  Thank you very much for using Q-Chem.  Have a nice day.  *
        *                                                           *
        *************************************************************


0 sent ACK to 0 
now end server 0 ... 
