Process 0 of 1 is on cl068.stfx.acenet.ca - thread support 1
initial socket setup ...start
initial socket setup ...done 
now start server 0 ... 

cmd = /usr/bin/ssh clhead /usr/local/qchem/bin/get_hostid 133521547 > /scratch/tmp/6063503.1.short.q/qchem21336/lic.dat
                  Welcome to Q-Chem
     A Quantum Leap Into The Future Of Chemistry

 Y. Shao, L. Fusti-Molnar, Y. Jung, J. Kussmann, C. Ochsenfeld,
 S. T. Brown, A. T. B. Gilbert, L. V. Slipchenko,S. V. Levchenko,
 D. P. O'Neill, R. A. DiStasio Jr., R. C. Lochan, T. Wang,
 G. J. O. Beran, N. A. Besley, J. M. Herbert, C. Y. Lin,
 T. Van Voorhis, S. H. Chien, A. Sodt, R. P. Steele, 
 V. A. Rassolov, P. E. Maslen, P. P. Korambath, R. D. Adamson,
 B. Austin, J. Baker, E. F. C. Byrd, H. Dachsel, R. J. Doerksen,
 A. Dreuw, B. D. Dunietz, A. D. Dutoi, T. R. Furlani,
 S. R. Gwaltney, A. Heyden, S. Hirata, C.-P. Hsu, G. Kedziora,
 R. Z. Khaliullin, P. Klunzinger, A. M. Lee, M. S. Lee, W. Liang,
 I. Lotan, N. Nair, B. Peters, E. I. Proynov, P. A. Pieniazek, 
 Y. M. Rhee, J. Ritchie, E. Rosta, C. D. Sherrill, 
 A. C. Simmonett, J. E. Subotnik, H. L. Woodcock III,
 W. Zhang, A. T. Bell, A. K. Chakraborty, D. M. Chipman,
 F. J. Keil, A. Warshel, W. J. Hehre, H. F. Schaefer III,
 J. Kong, A. I. Krylov, P. M. W. Gill, M. Head-Gordon,
 Q-Chem, Version 3.1, Q-Chem, Inc., Pittsburgh, PA (2007).

 Additional authors for Version 3.1: 
 Z. Gan, Y. Zhao, N. E. Schultz, D. Truhlar, E. Epifanovsky and M. Oana.

 Additional authors for Version 3.2: 
 R. Baer, B. R. Brooks, D. Casanova, J.-D. Chai, C.-L. Cheng, 
 C. Cramer, D. Crittenden, A. Ghysels, G. Hawkins, E. G. Hohenstein, 
 C. Kelley, W. Kurlancheek, D. Liotard, E. Livshits, P. Manohar, 
 A. Marenich, D. Neuhauser, R. Olson, M. A. Rohrdanz, K. S. Thanthiriwatte, 
 A. J. W. Thom, V. Vanovschi, C. F. Williams, Q. Wu and Z.-Q. You. 


 Intel X86 Linux Version

 Q-chem begins on Sun Jul  7 08:37:52 2013  

 Parallel job on  1  processors
Processing $rem in /usr/local/qchem/config/preferences.

theFileMan(): MAXOPENFILES=974 MAX_SUB_FILE_NUM=16
Maximum size of a physical file is 2.0 GB, maximum size of a tmp-file is 32.0 GB


--------------------------------------------------------------
User input:
--------------------------------------------------------------

$molecule
-1,2
C          0.00000        0.00000        0.01177
Cl        -0.00002        0.00000        1.77233
H          1.02690        0.00000       -0.33985
H         -0.51345       -0.88931       -0.33981
H         -0.51345        0.88931       -0.33981
$end

$comment
negative
$end

$xc_functional
C PBE   1.00
X wPBE  1.00
$end

$rem
SYMMETRY_DECOMPOSITION	0
exchange 		general
LRC_DFT                 true
BASIS                   g3large
omega			800
mem_static              760
max_scf_cycles          200
scf_final_print         1
sym_ignore              true
$end

--------------------------------------------------------------
 Writing REM_CC_EA            5
 ----------------------------------------------------
       Standard Nuclear Orientation (Angstroms)
    I     Atom         X            Y            Z
 ----------------------------------------------------
    1      C       0.000000     0.000000     0.011770
    2      Cl     -0.000020     0.000000     1.772330
    3      H       1.026900     0.000000    -0.339850
    4      H      -0.513450    -0.889310    -0.339810
    5      H      -0.513450     0.889310    -0.339810
 ----------------------------------------------------
 Nuclear Repulsion Energy =    51.8179865038 hartrees
 There are       14 alpha and       13 beta electrons
 Requested basis set is G3large
 There are 47 shells and 138 basis functions

Total QAlloc Memory Limit   2000 MB
Mega-Array Size       743 MB
MEM_STATIC part       760 MB

                       Distance Matrix (Angstroms)
             C (  1)   Cl(  2)   H (  3)   H (  4)
   Cl(  2)  1.760560
   H (  3)  1.085431  2.348589
   H (  4)  1.085409  2.348535  1.778637
   H (  5)  1.085409  2.348535  1.778637  1.778620
 
 A cutoff of  1.0D-08 yielded   1082 shell pairs
 There are   9427 function pairs ( 12263 Cartesian)
Evaluating contribution to one-electron hamiltonian from nuclear
 Smallest overlap matrix eigenvalue = 3.55E-04
 Multipole matrices computed through 2nd order

  Scale SEOQF with 1.000000e-01/1.000000e-01/1.000000e-01

 Standard Electronic Orientation quadrupole field applied
 Nucleus-field energy     =    -0.0000000056 hartrees
 Guess from superposition of atomic densities
 Warning:  Energy on first SCF cycle will be non-variational
 Long-range K will be added via erf
 Coulomb attenuation parameter = 0.8 bohr**(-1)
 An unrestricted Kohn-Sham SCF calculation will be
 performed using Pulay DIIS extrapolation
 Exchange:  wPBE + LR-HF      Correlation:  PBE
 Using SG-1 standard quadrature grid
 SCF converges when DIIS error is below 1.0E-05
 Requested basis set is G3large
 There are 47 shells and 138 basis functions
 A cutoff of  1.0D-08 yielded   1082 shell pairs
 There are   9427 function pairs ( 12263 Cartesian)
 Warning!  Inaccurate integrated density:
   Number of electrons =    27
   Numerical integral  =    26.000009345257
   Relative error      =    -3.7036690916 %
 ---------------------------------------
  Cycle       Energy         DIIS Error
 ---------------------------------------
    1    -500.2985257050      3.07E-02
    2    -499.8915869464      3.33E-03
    3    -499.9481445300      2.68E-03
    4    -499.9677356098      7.87E-04
    5    -499.9792552820      4.82E-04
    6    -499.9856970128      1.75E-04
    7    -499.9874529561      8.82E-05
    8    -499.9880094616      4.62E-05
    9    -499.9882377596      2.41E-05
   10    -499.9883022294      8.46E-06 Convergence criterion met
 ---------------------------------------
 One-Electron    Energy =  -795.1033028974
 Total Coulomb   Energy =   278.0765798530
 Alpha Exchange  Energy =    -4.6558436644
 Beta  Exchange  Energy =    -4.5775310746
 DFT   Exchange  Energy =   -24.5905231353
 DFT Correlation Energy =    -0.9556678089
 Nuclear Repu.   Energy =    51.8179864982
 Nuclear Attr.   Energy = -1294.2984456220
 Kinetic         Energy =   499.1951427246
 <S^2> = 0.7501
 SCF time:  CPU 56.16 s  wall 57.46 s
 Final Alpha MO Eigenvalues
            1           2           3           4           5           6
    1-100.9483380 -10.2212905  -9.4760431  -7.2692998  -7.2595718  -7.2595695
            7           8           9          10          11          12
    1  -0.9822680  -0.7648881  -0.4862717  -0.4862603  -0.4382420  -0.3234220
           13          14          15          16          17          18
    1  -0.3234194   0.0254725   0.1588409   0.1588698   0.1844997   0.2443655
           19
    1   0.2584562
 Final Beta MO Eigenvalues
            1           2           3           4           5           6
    1-100.9482777 -10.2205305  -9.4759810  -7.2690772  -7.2595546  -7.2595529
            7           8           9          10          11          12
    1  -0.9811845  -0.7614567  -0.4854420  -0.4854315  -0.4361644  -0.3231024
           13          14          15          16          17          18
    1  -0.3231013   0.1523556   0.1789643   0.1790851   0.1898407   0.2484167
 Analysis of SCF Wavefunction
 
 --------------------------------------------------------------
                    Orbital Energies (a.u.)
 --------------------------------------------------------------
 
 Alpha MOs
 -- Occupied --
******* -10.221  -9.476  -7.269  -7.260  -7.260  -0.982  -0.765
 -0.486  -0.486  -0.438  -0.323  -0.323   0.025
 -- Virtual --
  0.159   0.159   0.184   0.244   0.258   0.258   0.270   0.270
  0.282   0.337   0.363   0.393   0.393   0.473   0.535   0.535
  0.569   0.569   0.637   0.674   0.689   0.689   0.743   0.743
  0.826   0.826   0.891   0.906   0.998   1.034   1.034   1.140
  1.249   1.249   1.296   1.328   1.328   1.369   1.416   1.416
  1.446   1.447   1.447   1.522   1.522   1.673   1.673   1.697
  1.718   1.718   1.745   1.745   1.835   1.870   1.870   2.005
  2.541   2.541   2.664   2.811   2.811   2.866   3.269   3.308
  3.428   3.428   3.525   3.525   3.668   3.669   3.787   3.866
  3.866   3.934   4.220   4.220   4.255   4.463   4.463   4.609
  4.662   4.662   4.721   4.768   4.801   4.801   4.842   4.933
  4.933   5.026   5.434   5.436   5.457   5.588   5.588   6.019
  6.019   6.118  10.132  20.953  20.953  21.170  24.481  27.456
 27.506  27.532  27.576  27.576  28.331  28.379  28.379  37.180
 37.181  37.184  37.184  37.192  37.192  37.203  41.275  41.296
 41.484  41.515  41.569 216.047
 
 Beta MOs
 -- Occupied --
******* -10.221  -9.476  -7.269  -7.260  -7.260  -0.981  -0.761
 -0.485  -0.485  -0.436  -0.323  -0.323
 -- Virtual --
  0.152   0.179   0.179   0.190   0.248   0.259   0.259   0.269
  0.269   0.292   0.339   0.363   0.395   0.395   0.469   0.536
  0.536   0.568   0.568   0.636   0.674   0.688   0.688   0.743
  0.743   0.823   0.823   0.890   0.904   0.999   1.034   1.034
  1.141   1.250   1.250   1.296   1.328   1.328   1.369   1.416
  1.416   1.446   1.447   1.447   1.522   1.523   1.673   1.673
  1.696   1.717   1.717   1.746   1.746   1.834   1.870   1.870
  2.005   2.541   2.541   2.664   2.811   2.811   2.866   3.270
  3.308   3.428   3.428   3.526   3.526   3.669   3.669   3.788
  3.867   3.867   3.935   4.220   4.220   4.255   4.463   4.463
  4.609   4.662   4.662   4.721   4.768   4.801   4.801   4.842
  4.934   4.934   5.026   5.434   5.436   5.457   5.588   5.588
  6.019   6.019   6.118  10.132  20.953  20.953  21.170  24.481
 27.456  27.506  27.532  27.576  27.577  28.331  28.379  28.379
 37.180  37.181  37.184  37.184  37.192  37.192  37.203  41.276
 41.296  41.484  41.515  41.569 216.048
 --------------------------------------------------------------
 
          Ground-State Mulliken Net Atomic Charges

     Atom                 Charge (a.u.)    Spin (a.u.)
  --------------------------------------------------------
      1 C                     3.777199      -3.695620
      2 Cl                   -1.064840       0.735502
      3 H                    -1.239123       1.321768
      4 H                    -1.240395       1.323106
      5 H                    -1.232841       1.315243
  --------------------------------------------------------
  Sum of atomic charges =    -1.000000
  Sum of spin   charges =     1.000000

 -----------------------------------------------------------------
                    Cartesian Multipole Moments
 -----------------------------------------------------------------
    Charge (ESU x 10^10)
                -4.8032
    Dipole Moment (Debye)
         X      -0.0080      Y       0.0248      Z       3.3782
       Tot       3.3783
    Quadrupole Moments (Debye-Ang)
        XX     -42.9639     XY      -0.0199     YY     -42.9483
        XZ       0.0077     YZ      -0.0244     ZZ     -45.6190
    Octapole Moments (Debye-Ang^2)
       XXX      -4.4882    XXY       0.0896    XYY       4.3621
       YYY       0.2689    XXZ      -1.1809    XYZ       0.0118
       YYZ      -1.1898    XZZ      -0.0302    YZZ       0.0851
       ZZZ     -16.2969
    Hexadecapole Moments (Debye-Ang^3)
      XXXX    -290.8294   XXXY      -0.1559   XXYY     -96.8908
      XYYY      -0.1823   YYYY    -290.5526   XXXZ       2.5638
      XXYZ      -0.0661   XYYZ      -2.4752   YYYZ      -0.1983
      XXZZ    -134.2794   XYZZ      -0.0534   YYZZ    -134.2345
      XZZZ       0.0639   YZZZ      -0.1846   ZZZZ    -490.5933
 -----------------------------------------------------------------
 Total job time:  57.65s(wall), 56.32s(cpu) 
 Sun Jul  7 08:38:50 2013

        *************************************************************
        *                                                           *
        *  Thank you very much for using Q-Chem.  Have a nice day.  *
        *                                                           *
        *************************************************************


0 sent ACK to 0 
now end server 0 ... 
 
**********************************************************************
Job 2 of 3 
**********************************************************************
 
Process 0 of 1 is on cl068.stfx.acenet.ca - thread support 1
initial socket setup ...start
initial socket setup ...done 
now start server 0 ... 

cmd = /usr/bin/ssh clhead /usr/local/qchem/bin/get_hostid 1217349014 > /scratch/tmp/6063503.1.short.q/qchem21336/lic.dat
                  Welcome to Q-Chem
     A Quantum Leap Into The Future Of Chemistry

 Y. Shao, L. Fusti-Molnar, Y. Jung, J. Kussmann, C. Ochsenfeld,
 S. T. Brown, A. T. B. Gilbert, L. V. Slipchenko,S. V. Levchenko,
 D. P. O'Neill, R. A. DiStasio Jr., R. C. Lochan, T. Wang,
 G. J. O. Beran, N. A. Besley, J. M. Herbert, C. Y. Lin,
 T. Van Voorhis, S. H. Chien, A. Sodt, R. P. Steele, 
 V. A. Rassolov, P. E. Maslen, P. P. Korambath, R. D. Adamson,
 B. Austin, J. Baker, E. F. C. Byrd, H. Dachsel, R. J. Doerksen,
 A. Dreuw, B. D. Dunietz, A. D. Dutoi, T. R. Furlani,
 S. R. Gwaltney, A. Heyden, S. Hirata, C.-P. Hsu, G. Kedziora,
 R. Z. Khaliullin, P. Klunzinger, A. M. Lee, M. S. Lee, W. Liang,
 I. Lotan, N. Nair, B. Peters, E. I. Proynov, P. A. Pieniazek, 
 Y. M. Rhee, J. Ritchie, E. Rosta, C. D. Sherrill, 
 A. C. Simmonett, J. E. Subotnik, H. L. Woodcock III,
 W. Zhang, A. T. Bell, A. K. Chakraborty, D. M. Chipman,
 F. J. Keil, A. Warshel, W. J. Hehre, H. F. Schaefer III,
 J. Kong, A. I. Krylov, P. M. W. Gill, M. Head-Gordon,
 Q-Chem, Version 3.1, Q-Chem, Inc., Pittsburgh, PA (2007).

 Additional authors for Version 3.1: 
 Z. Gan, Y. Zhao, N. E. Schultz, D. Truhlar, E. Epifanovsky and M. Oana.

 Additional authors for Version 3.2: 
 R. Baer, B. R. Brooks, D. Casanova, J.-D. Chai, C.-L. Cheng, 
 C. Cramer, D. Crittenden, A. Ghysels, G. Hawkins, E. G. Hohenstein, 
 C. Kelley, W. Kurlancheek, D. Liotard, E. Livshits, P. Manohar, 
 A. Marenich, D. Neuhauser, R. Olson, M. A. Rohrdanz, K. S. Thanthiriwatte, 
 A. J. W. Thom, V. Vanovschi, C. F. Williams, Q. Wu and Z.-Q. You. 


 Intel X86 Linux Version

 Q-chem begins on Sun Jul  7 08:38:53 2013  

 Parallel job on  1  processors
Processing $rem in /usr/local/qchem/config/preferences.

theFileMan(): MAXOPENFILES=974 MAX_SUB_FILE_NUM=16
Maximum size of a physical file is 2.0 GB, maximum size of a tmp-file is 32.0 GB


--------------------------------------------------------------
User input:
--------------------------------------------------------------

$molecule
0,1
C          0.00000        0.00000        0.01177
Cl        -0.00002        0.00000        1.77233
H          1.02690        0.00000       -0.33985
H         -0.51345       -0.88931       -0.33981
H         -0.51345        0.88931       -0.33981
$end

$comment
neutral
$end

$xc_functional
C PBE   1.00
X wPBE  1.00
$end


$rem
SYMMETRY_DECOMPOSITION	0
LRC_DFT                 true
exchange 		general
BASIS                   g3large
omega			800
mem_static              760
max_scf_cycles          200
scf_final_print         1
sym_ignore              true
$end

--------------------------------------------------------------
 Writing REM_CC_EA            5
 ----------------------------------------------------
       Standard Nuclear Orientation (Angstroms)
    I     Atom         X            Y            Z
 ----------------------------------------------------
    1      C       0.000000     0.000000     0.011770
    2      Cl     -0.000020     0.000000     1.772330
    3      H       1.026900     0.000000    -0.339850
    4      H      -0.513450    -0.889310    -0.339810
    5      H      -0.513450     0.889310    -0.339810
 ----------------------------------------------------
 Nuclear Repulsion Energy =    51.8179865038 hartrees
 There are       13 alpha and       13 beta electrons
 Requested basis set is G3large
 There are 47 shells and 138 basis functions

Total QAlloc Memory Limit   2000 MB
Mega-Array Size       743 MB
MEM_STATIC part       760 MB

                       Distance Matrix (Angstroms)
             C (  1)   Cl(  2)   H (  3)   H (  4)
   Cl(  2)  1.760560
   H (  3)  1.085431  2.348589
   H (  4)  1.085409  2.348535  1.778637
   H (  5)  1.085409  2.348535  1.778637  1.778620
 
 A cutoff of  1.0D-08 yielded   1082 shell pairs
 There are   9427 function pairs ( 12263 Cartesian)
Evaluating contribution to one-electron hamiltonian from nuclear
 Smallest overlap matrix eigenvalue = 3.55E-04
 Multipole matrices computed through 2nd order

  Scale SEOQF with 1.000000e-01/1.000000e-01/1.000000e-01

 Standard Electronic Orientation quadrupole field applied
 Nucleus-field energy     =    -0.0000000056 hartrees
 Guess from superposition of atomic densities
 Warning:  Energy on first SCF cycle will be non-variational
 Long-range K will be added via erf
 Coulomb attenuation parameter = 0.8 bohr**(-1)
 A restricted Kohn-Sham SCF calculation will be
 performed using Pulay DIIS extrapolation
 Exchange:  wPBE + LR-HF      Correlation:  PBE
 Using SG-1 standard quadrature grid
 SCF converges when DIIS error is below 1.0E-05
 Requested basis set is G3large
 There are 47 shells and 138 basis functions
 A cutoff of  1.0D-08 yielded   1082 shell pairs
 There are   9427 function pairs ( 12263 Cartesian)
 ---------------------------------------
  Cycle       Energy         DIIS Error
 ---------------------------------------
    1    -500.2985257050      3.07E-02
    2    -499.9918980598      2.86E-03
    3    -500.0143597706      1.38E-03
    4    -500.0179017956      3.67E-04
    5    -500.0183682757      7.74E-05
    6    -500.0184061449      2.16E-05
    7    -500.0184092426      8.29E-06 Convergence criterion met
 ---------------------------------------
 One-Electron    Energy =  -791.4941560034
 Total Coulomb   Energy =   274.3522001915
 Alpha Exchange  Energy =    -4.5800569800
 Beta  Exchange  Energy =    -4.5800569800
 DFT   Exchange  Energy =   -24.5862778091
 DFT Correlation Energy =    -0.9480481598
 Nuclear Repu.   Energy =    51.8179864982
 Nuclear Attr.   Energy = -1290.6091477586
 Kinetic         Energy =   499.1149917552
 SCF time:  CPU 32.74 s  wall 32.97 s
 Final Alpha MO Eigenvalues
            1           2           3           4           5           6
    1-101.0833013 -10.3747686  -9.6107920  -7.4046426  -7.3940357  -7.3940322
            7           8           9          10          11          12
    1  -1.1202107  -0.9099511  -0.6356493  -0.6356434  -0.5769503  -0.4593129
           13          14          15          16          17          18
    1  -0.4593117   0.0374041   0.0694458   0.0694470   0.0827678   0.1376132
 Analysis of SCF Wavefunction
 
 --------------------------------------------------------------
                    Orbital Energies (a.u.)
 --------------------------------------------------------------
 
 Alpha MOs
 -- Occupied --
******* -10.375  -9.611  -7.405  -7.394  -7.394  -1.120  -0.910
 -0.636  -0.636  -0.577  -0.459  -0.459
 -- Virtual --
  0.037   0.069   0.069   0.083   0.138   0.153   0.153   0.156
  0.156   0.164   0.212   0.243   0.255   0.255   0.340   0.403
  0.403   0.438   0.438   0.500   0.542   0.542   0.556   0.617
  0.617   0.684   0.684   0.749   0.762   0.858   0.888   0.888
  0.985   1.109   1.109   1.156   1.185   1.185   1.226   1.270
  1.270   1.314   1.314   1.315   1.378   1.390   1.533   1.533
  1.557   1.569   1.569   1.599   1.599   1.687   1.732   1.732
  1.868   2.408   2.408   2.526   2.661   2.661   2.716   3.117
  3.159   3.277   3.277   3.374   3.374   3.519   3.519   3.643
  3.715   3.715   3.784   4.069   4.069   4.103   4.311   4.311
  4.459   4.510   4.510   4.583   4.634   4.667   4.667   4.695
  4.796   4.796   4.888   5.301   5.302   5.305   5.452   5.452
  5.866   5.866   5.980   9.998  20.819  20.819  21.035  24.327
 27.322  27.368  27.397  27.441  27.441  28.182  28.225  28.226
 37.046  37.047  37.049  37.050  37.057  37.057  37.068  41.123
 41.142  41.331  41.362  41.416 215.913
 --------------------------------------------------------------
 
          Ground-State Mulliken Net Atomic Charges

     Atom                 Charge (a.u.)
  ----------------------------------------
      1 C                     0.043386
      2 Cl                   -0.286083
      3 H                     0.080907
      4 H                     0.080888
      5 H                     0.080902
  ----------------------------------------
  Sum of atomic charges =     0.000000

 -----------------------------------------------------------------
                    Cartesian Multipole Moments
 -----------------------------------------------------------------
    Charge (ESU x 10^10)
                 0.0000
    Dipole Moment (Debye)
         X       0.0002      Y       0.0000      Z      -2.0374
       Tot       2.0374
    Quadrupole Moments (Debye-Ang)
        XX     -19.5807     XY      -0.0001     YY     -19.5807
        XZ       0.0004     YZ      -0.0001     ZZ     -22.3405
    Octapole Moments (Debye-Ang^2)
       XXX       0.8942    XXY       0.0001    XYY      -0.8928
       YYY       0.0003    XXZ     -23.1734    XYZ      -0.0002
       YYZ     -23.1732    XZZ       0.0020    YZZ      -0.0021
       ZZZ     -66.0555
    Hexadecapole Moments (Debye-Ang^3)
      XXXX     -27.2695   XXXY      -0.0002   XXYY      -9.0899
      XYYY      -0.0002   YYYY     -27.2696   XXXZ      -0.3422
      XXYZ       0.0001   XYYZ       0.3448   YYYZ       0.0005
      XXZZ     -50.2519   XYZZ      -0.0004   YYZZ     -50.2518
      XZZZ       0.0062   YZZZ      -0.0069   ZZZZ    -250.4496
 -----------------------------------------------------------------
 Total job time:  33.12s(wall), 32.88s(cpu) 
 Sun Jul  7 08:39:26 2013

        *************************************************************
        *                                                           *
        *  Thank you very much for using Q-Chem.  Have a nice day.  *
        *                                                           *
        *************************************************************


0 sent ACK to 0 
now end server 0 ... 
 
**********************************************************************
Job 3 of 3 
**********************************************************************
 
Process 0 of 1 is on cl068.stfx.acenet.ca - thread support 1
initial socket setup ...start
initial socket setup ...done 
now start server 0 ... 

cmd = /usr/bin/ssh clhead /usr/local/qchem/bin/get_hostid 2070247334 > /scratch/tmp/6063503.1.short.q/qchem21336/lic.dat
                  Welcome to Q-Chem
     A Quantum Leap Into The Future Of Chemistry

 Y. Shao, L. Fusti-Molnar, Y. Jung, J. Kussmann, C. Ochsenfeld,
 S. T. Brown, A. T. B. Gilbert, L. V. Slipchenko,S. V. Levchenko,
 D. P. O'Neill, R. A. DiStasio Jr., R. C. Lochan, T. Wang,
 G. J. O. Beran, N. A. Besley, J. M. Herbert, C. Y. Lin,
 T. Van Voorhis, S. H. Chien, A. Sodt, R. P. Steele, 
 V. A. Rassolov, P. E. Maslen, P. P. Korambath, R. D. Adamson,
 B. Austin, J. Baker, E. F. C. Byrd, H. Dachsel, R. J. Doerksen,
 A. Dreuw, B. D. Dunietz, A. D. Dutoi, T. R. Furlani,
 S. R. Gwaltney, A. Heyden, S. Hirata, C.-P. Hsu, G. Kedziora,
 R. Z. Khaliullin, P. Klunzinger, A. M. Lee, M. S. Lee, W. Liang,
 I. Lotan, N. Nair, B. Peters, E. I. Proynov, P. A. Pieniazek, 
 Y. M. Rhee, J. Ritchie, E. Rosta, C. D. Sherrill, 
 A. C. Simmonett, J. E. Subotnik, H. L. Woodcock III,
 W. Zhang, A. T. Bell, A. K. Chakraborty, D. M. Chipman,
 F. J. Keil, A. Warshel, W. J. Hehre, H. F. Schaefer III,
 J. Kong, A. I. Krylov, P. M. W. Gill, M. Head-Gordon,
 Q-Chem, Version 3.1, Q-Chem, Inc., Pittsburgh, PA (2007).

 Additional authors for Version 3.1: 
 Z. Gan, Y. Zhao, N. E. Schultz, D. Truhlar, E. Epifanovsky and M. Oana.

 Additional authors for Version 3.2: 
 R. Baer, B. R. Brooks, D. Casanova, J.-D. Chai, C.-L. Cheng, 
 C. Cramer, D. Crittenden, A. Ghysels, G. Hawkins, E. G. Hohenstein, 
 C. Kelley, W. Kurlancheek, D. Liotard, E. Livshits, P. Manohar, 
 A. Marenich, D. Neuhauser, R. Olson, M. A. Rohrdanz, K. S. Thanthiriwatte, 
 A. J. W. Thom, V. Vanovschi, C. F. Williams, Q. Wu and Z.-Q. You. 


 Intel X86 Linux Version

 Q-chem begins on Sun Jul  7 08:39:29 2013  

 Parallel job on  1  processors
Processing $rem in /usr/local/qchem/config/preferences.

theFileMan(): MAXOPENFILES=974 MAX_SUB_FILE_NUM=16
Maximum size of a physical file is 2.0 GB, maximum size of a tmp-file is 32.0 GB


--------------------------------------------------------------
User input:
--------------------------------------------------------------

$molecule
1,2
C          0.00000        0.00000        0.01177
Cl        -0.00002        0.00000        1.77233
H          1.02690        0.00000       -0.33985
H         -0.51345       -0.88931       -0.33981
H         -0.51345        0.88931       -0.33981
$end

$comment
positive
$end

$xc_functional
C PBE   1.00
X wPBE  1.00
$end

$rem
SYMMETRY_DECOMPOSITION	0
LRC_DFT                 true
exchange 		general
BASIS                   g3large
omega			800
mem_static              760
max_scf_cycles          200
scf_final_print         1
sym_ignore              true
$end

--------------------------------------------------------------
 Writing REM_CC_EA            5
 ----------------------------------------------------
       Standard Nuclear Orientation (Angstroms)
    I     Atom         X            Y            Z
 ----------------------------------------------------
    1      C       0.000000     0.000000     0.011770
    2      Cl     -0.000020     0.000000     1.772330
    3      H       1.026900     0.000000    -0.339850
    4      H      -0.513450    -0.889310    -0.339810
    5      H      -0.513450     0.889310    -0.339810
 ----------------------------------------------------
 Nuclear Repulsion Energy =    51.8179865038 hartrees
 There are       13 alpha and       12 beta electrons
 Requested basis set is G3large
 There are 47 shells and 138 basis functions

Total QAlloc Memory Limit   2000 MB
Mega-Array Size       743 MB
MEM_STATIC part       760 MB

                       Distance Matrix (Angstroms)
             C (  1)   Cl(  2)   H (  3)   H (  4)
   Cl(  2)  1.760560
   H (  3)  1.085431  2.348589
   H (  4)  1.085409  2.348535  1.778637
   H (  5)  1.085409  2.348535  1.778637  1.778620
 
 A cutoff of  1.0D-08 yielded   1082 shell pairs
 There are   9427 function pairs ( 12263 Cartesian)
Evaluating contribution to one-electron hamiltonian from nuclear
 Smallest overlap matrix eigenvalue = 3.55E-04
 Multipole matrices computed through 2nd order

  Scale SEOQF with 1.000000e-01/1.000000e-01/1.000000e-01

 Standard Electronic Orientation quadrupole field applied
 Nucleus-field energy     =    -0.0000000056 hartrees
 Guess from superposition of atomic densities
 Warning:  Energy on first SCF cycle will be non-variational
 Long-range K will be added via erf
 Coulomb attenuation parameter = 0.8 bohr**(-1)
 An unrestricted Kohn-Sham SCF calculation will be
 performed using Pulay DIIS extrapolation
 Exchange:  wPBE + LR-HF      Correlation:  PBE
 Using SG-1 standard quadrature grid
 SCF converges when DIIS error is below 1.0E-05
 Requested basis set is G3large
 There are 47 shells and 138 basis functions
 A cutoff of  1.0D-08 yielded   1082 shell pairs
 There are   9427 function pairs ( 12263 Cartesian)
 Warning!  Inaccurate integrated density:
   Number of electrons =    25
   Numerical integral  =    26.000009345257
   Relative error      =     4.0000373810 %
 ---------------------------------------
  Cycle       Energy         DIIS Error
 ---------------------------------------
    1    -500.2985257050      3.07E-02
    2    -499.5190021644      3.88E-03
    3    -499.5777153508      2.08E-03
    4    -499.5892805481      4.78E-04
    5    -499.5936014126      3.10E-04
    6    -499.5951598727      1.63E-04
    7    -499.5961391986      5.82E-05
    8    -499.5962886626      2.13E-05
    9    -499.5963093772      1.12E-05
   10    -499.5963166988      6.49E-06 Convergence criterion met
 ---------------------------------------
 One-Electron    Energy =  -782.6264138717
 Total Coulomb   Energy =   265.5666002126
 Alpha Exchange  Energy =    -4.6262763204
 Beta  Exchange  Energy =    -4.2972906740
 DFT   Exchange  Energy =   -24.5237334990
 DFT Correlation Energy =    -0.9071890445
 Nuclear Repu.   Energy =    51.8179864982
 Nuclear Attr.   Energy = -1281.3730993881
 Kinetic         Energy =   498.7466855164
 <S^2> = 0.7583
 SCF time:  CPU 54.48 s  wall 55.07 s
 Final Alpha MO Eigenvalues
            1           2           3           4           5           6
    1-101.4937298 -10.6389388 -10.0147936  -7.8162627  -7.8020016  -7.7921193
            7           8           9          10          11          12
    1  -1.4864373  -1.2020779  -0.9501402  -0.9136596  -0.8981278  -0.8282989
           13          14          15          16          17          18
    1  -0.7886876  -0.1398030  -0.1115560  -0.0738037  -0.0699647  -0.0515304
 Final Beta MO Eigenvalues
            1           2           3           4           5           6
    1-101.4874931 -10.6388941 -10.0085961  -7.7987882  -7.7983972  -7.7876356
            7           8           9          10          11          12
    1  -1.4214025  -1.1757879  -0.9068368  -0.8854102  -0.8719624  -0.7759345
           13          14          15          16          17
    1  -0.3838341  -0.1284656  -0.1096420  -0.0716437  -0.0697185
 Analysis of SCF Wavefunction
 
 --------------------------------------------------------------
                    Orbital Energies (a.u.)
 --------------------------------------------------------------
 
 Alpha MOs
 -- Occupied --
******* -10.639 -10.015  -7.816  -7.802  -7.792  -1.486  -1.202
 -0.950  -0.914  -0.898  -0.828  -0.789
 -- Virtual --
 -0.140  -0.112  -0.074  -0.070  -0.052  -0.028  -0.027  -0.025
 -0.015  -0.009   0.032   0.057   0.057   0.064   0.098   0.108
  0.153   0.159   0.165   0.275   0.315   0.323   0.326   0.348
  0.367   0.463   0.469   0.499   0.549   0.600   0.624   0.638
  0.758   0.819   0.835   0.869   0.899   0.903   0.941   0.949
  0.955   0.994   1.017   1.022   1.085   1.116   1.235   1.244
  1.263   1.319   1.329   1.331   1.337   1.440   1.444   1.461
  1.585   2.033   2.074   2.206   2.398   2.406   2.464   2.863
  2.886   3.009   3.016   3.111   3.117   3.249   3.254   3.348
  3.454   3.456   3.516   3.805   3.810   3.844   4.044   4.048
  4.165   4.190   4.229   4.232   4.240   4.280   4.289   4.418
  4.430   4.460   4.540   4.898   4.899   5.041   5.061   5.090
  5.604   5.612   5.619   9.605  20.398  20.424  20.641  24.063
 26.909  26.978  26.998  27.030  27.048  27.892  27.961  27.963
 36.636  36.638  36.644  36.647  36.651  36.667  36.674  40.857
 40.879  41.066  41.097  41.152 215.504
 
 Beta MOs
 -- Occupied --
******* -10.639 -10.009  -7.799  -7.798  -7.788  -1.421  -1.176
 -0.907  -0.885  -0.872  -0.776
 -- Virtual --
 -0.384  -0.128  -0.110  -0.072  -0.070  -0.047  -0.026  -0.021
 -0.020  -0.009  -0.008   0.033   0.060   0.065   0.065   0.131
  0.140   0.160   0.184   0.189   0.281   0.319   0.330   0.330
  0.371   0.383   0.467   0.469   0.506   0.552   0.604   0.638
  0.640   0.761   0.838   0.839   0.885   0.914   0.914   0.958
  0.987   0.990   1.018   1.025   1.026   1.096   1.124   1.251
  1.253   1.275   1.327   1.330   1.340   1.340   1.446   1.458
  1.463   1.591   2.083   2.086   2.213   2.405   2.409   2.468
  2.866   2.887   3.013   3.017   3.115   3.118   3.252   3.254
  3.351   3.457   3.457   3.518   3.809   3.811   3.847   4.053
  4.053   4.186   4.240   4.242   4.243   4.283   4.312   4.314
  4.425   4.460   4.465   4.553   4.916   4.919   5.046   5.079
  5.093   5.609   5.614   5.628   9.617  20.421  20.431  20.645
 24.063  26.925  26.995  27.002  27.044  27.051  27.893  27.962
 27.963  36.642  36.643  36.649  36.650  36.655  36.668  36.675
 40.856  40.879  41.066  41.097  41.152 215.511
 --------------------------------------------------------------
 
          Ground-State Mulliken Net Atomic Charges

     Atom                 Charge (a.u.)    Spin (a.u.)
  --------------------------------------------------------
      1 C                     0.118528      -0.013283
      2 Cl                    0.457329       0.940162
      3 H                     0.141240       0.023796
      4 H                     0.135809       0.005237
      5 H                     0.147093       0.044088
  --------------------------------------------------------
  Sum of atomic charges =     1.000000
  Sum of spin   charges =     1.000000

 -----------------------------------------------------------------
                    Cartesian Multipole Moments
 -----------------------------------------------------------------
    Charge (ESU x 10^10)
                 4.8032
    Dipole Moment (Debye)
         X      -0.0011      Y       0.0647      Z       4.0375
       Tot       4.0380
    Quadrupole Moments (Debye-Ang)
        XX     -15.6194     XY      -0.8738     YY     -15.5689
        XZ       0.0059     YZ      -0.0922     ZZ      -7.1041
    Octapole Moments (Debye-Ang^2)
       XXX       1.2443    XXY       0.0209    XYY      -1.2435
       YYY       0.0626    XXZ     -18.4682    XYZ      -1.4328
       YYZ     -18.3856    XZZ       0.0085    YZZ      -0.0306
       ZZZ     -34.9088
    Hexadecapole Moments (Debye-Ang^3)
      XXXX     -19.1173   XXXY      -0.6896   XXYY      -6.3598
      XYYY      -0.7071   YYYY     -19.0366   XXXZ      -0.5886
      XXYZ      -0.0453   XYYZ       0.6008   YYYZ      -0.1363
      XXZZ     -38.1066   XYZZ      -2.9664   YYZZ     -37.9354
      XZZZ       0.0252   YZZZ      -0.1541   ZZZZ    -171.6538
 -----------------------------------------------------------------
 Total job time:  55.22s(wall), 54.62s(cpu) 
 Sun Jul  7 08:40:24 2013

        *************************************************************
        *                                                           *
        *  Thank you very much for using Q-Chem.  Have a nice day.  *
        *                                                           *
        *************************************************************


0 sent ACK to 0 
now end server 0 ... 
