Process 0 of 1 is on cl263.stfx.acenet.ca - thread support 1
initial socket setup ...start
initial socket setup ...done 
now start server 0 ... 

cmd = /usr/bin/ssh clhead /usr/local/qchem/bin/get_hostid 1809317208 > /globalscratch/itamblyn/bnl/g297_b3lyp_neut_g03Large_worked/g2g71020/omega400/qchem26526/lic.dat
                  Welcome to Q-Chem
     A Quantum Leap Into The Future Of Chemistry

 Y. Shao, L. Fusti-Molnar, Y. Jung, J. Kussmann, C. Ochsenfeld,
 S. T. Brown, A. T. B. Gilbert, L. V. Slipchenko,S. V. Levchenko,
 D. P. O'Neill, R. A. DiStasio Jr., R. C. Lochan, T. Wang,
 G. J. O. Beran, N. A. Besley, J. M. Herbert, C. Y. Lin,
 T. Van Voorhis, S. H. Chien, A. Sodt, R. P. Steele, 
 V. A. Rassolov, P. E. Maslen, P. P. Korambath, R. D. Adamson,
 B. Austin, J. Baker, E. F. C. Byrd, H. Dachsel, R. J. Doerksen,
 A. Dreuw, B. D. Dunietz, A. D. Dutoi, T. R. Furlani,
 S. R. Gwaltney, A. Heyden, S. Hirata, C.-P. Hsu, G. Kedziora,
 R. Z. Khaliullin, P. Klunzinger, A. M. Lee, M. S. Lee, W. Liang,
 I. Lotan, N. Nair, B. Peters, E. I. Proynov, P. A. Pieniazek, 
 Y. M. Rhee, J. Ritchie, E. Rosta, C. D. Sherrill, 
 A. C. Simmonett, J. E. Subotnik, H. L. Woodcock III,
 W. Zhang, A. T. Bell, A. K. Chakraborty, D. M. Chipman,
 F. J. Keil, A. Warshel, W. J. Hehre, H. F. Schaefer III,
 J. Kong, A. I. Krylov, P. M. W. Gill, M. Head-Gordon,
 Q-Chem, Version 3.1, Q-Chem, Inc., Pittsburgh, PA (2007).

 Additional authors for Version 3.1: 
 Z. Gan, Y. Zhao, N. E. Schultz, D. Truhlar, E. Epifanovsky and M. Oana.

 Additional authors for Version 3.2: 
 R. Baer, B. R. Brooks, D. Casanova, J.-D. Chai, C.-L. Cheng, 
 C. Cramer, D. Crittenden, A. Ghysels, G. Hawkins, E. G. Hohenstein, 
 C. Kelley, W. Kurlancheek, D. Liotard, E. Livshits, P. Manohar, 
 A. Marenich, D. Neuhauser, R. Olson, M. A. Rohrdanz, K. S. Thanthiriwatte, 
 A. J. W. Thom, V. Vanovschi, C. F. Williams, Q. Wu and Z.-Q. You. 


 Intel X86 Linux Version

 Q-chem begins on Tue Apr 12 20:38:41 2011  

 Parallel job on  1  processors
Processing $rem in /usr/local/qchem/config/preferences.

theFileMan(): MAXOPENFILES=974 MAX_SUB_FILE_NUM=16
Maximum size of a physical file is 2.0 GB, maximum size of a tmp-file is 32.0 GB


--------------------------------------------------------------
User input:
--------------------------------------------------------------

$molecule
-1,2
Cl
H,1,R

 R=1.28991833

$end

$comment
negative
$end

$xc_functional
   X HF 1.0
   X BNL 1.0
   C LYP 1.0
$end

$rem
SYMMETRY_DECOMPOSITION	0
exchange 		general
BASIS                   g3large
omega			400
separate_jk		true
mem_static              760
max_scf_cycles          200
scf_final_print         1
sym_ignore              true
$end

--------------------------------------------------------------
 Writing REM_CC_EA            2
 ----------------------------------------------------
       Standard Nuclear Orientation (Angstroms)
    I     Atom         X            Y            Z
 ----------------------------------------------------
    1      Cl      0.000000     0.000000     0.000000
    2      H       0.000000     0.000000     1.289918
 ----------------------------------------------------
 Nuclear Repulsion Energy =     6.9740946961 hartrees
 There are       10 alpha and        9 beta electrons
 Requested basis set is G3large
 There are 25 shells and 76 basis functions

Total QAlloc Memory Limit   2000 MB
Mega-Array Size       743 MB
MEM_STATIC part       760 MB

                       Distance Matrix (Angstroms)
             Cl(  1)
   H (  2)  1.289918
 
 A cutoff of  1.0D-08 yielded    325 shell pairs
 There are   3056 function pairs (  4227 Cartesian)
Evaluating contribution to one-electron hamiltonian from nuclear
 Smallest overlap matrix eigenvalue = 3.76E-03
 Multipole matrices computed through 2nd order

  Scale SEOQF with 1.000000e-01/1.000000e-01/1.000000e-01

 Standard Electronic Orientation quadrupole field applied
 Nucleus-field energy     =    -0.0000000002 hartrees
 Guess from superposition of atomic densities
 Warning:  Energy on first SCF cycle will be non-variational
 An unrestricted hybrid HF-DFT SCF calculation will be
 performed using Pulay DIIS extrapolation
 Exchange:     1.0000 Hartree-Fock + 1.0000 BNL
 Correlation:  1.0000 LYP
 Using SG-1 standard quadrature grid
 SCF converges when DIIS error is below 1.0E-05
 Warning!  Inaccurate integrated density:
   Number of electrons =    19
   Numerical integral  =    18.000009746852
   Relative error      =    -5.2631065955 %
 ---------------------------------------
  Cycle       Energy         DIIS Error
 ---------------------------------------
    1    -458.8539708433      3.53E-02
    2    -458.8599678647      3.98E-03
    3    -458.8777957989      3.34E-03
    4    -458.8841112206      5.12E-04
    5    -458.8852286572      2.23E-04
    6    -458.8858136565      9.11E-05
    7    -458.8859705360      2.38E-05
    8    -458.8859805816      6.68E-06 Convergence criterion met
 ---------------------------------------
 One-Electron    Energy =  -652.8470282390
 Total Coulomb   Energy =   213.7290813120
 Alpha Exchange  Energy =    -1.9526228552
 Beta  Exchange  Energy =    -1.8596904651
 DFT   Exchange  Energy =   -22.1953830560
 DFT Correlation Energy =    -0.7344319741
 Nuclear Repu.   Energy =     6.9740946959
 Nuclear Attr.   Energy = -1111.1250865009
 Kinetic         Energy =   458.2780582619
 <S^2> = 0.7503
 SCF time:  CPU 10.90 s  wall 12.90 s
 Final Alpha MO Eigenvalues
            1           2           3           4           5           6
    1-100.3095731  -9.1651391  -7.0171828  -7.0089210  -7.0089206  -0.7988903
            7           8           9          10          11          12
    1  -0.4044542  -0.2731896  -0.2731879   0.0280107   0.2280398   0.2484414
           13          14          15
    1   0.2484416   0.2925256   0.3233561
 Final Beta MO Eigenvalues
            1           2           3           4           5           6
    1-100.3088389  -9.1643752  -7.0160414  -7.0082395  -7.0082382  -0.7945763
            7           8           9          10          11          12
    1  -0.3980929  -0.2716053  -0.2716025   0.1710840   0.2342204   0.2464341
           13          14
    1   0.2464361   0.2980570
 Analysis of SCF Wavefunction
 
 --------------------------------------------------------------
                    Orbital Energies (a.u.)
 --------------------------------------------------------------
 
 Alpha MOs
 -- Occupied --
*******  -9.165  -7.017  -7.009  -7.009  -0.799  -0.404  -0.273
 -0.273   0.028
 -- Virtual --
  0.228   0.248   0.248   0.293   0.323   0.511   0.511   0.542
  0.543   0.543   0.699   0.734   0.734   0.848   1.123   1.123
  1.198   1.247   1.334   1.334   1.357   1.357   1.396   1.396
  1.416   1.416   1.656   1.700   1.700   1.847   2.411   2.411
  2.761   2.986   3.984   4.044   4.044   4.608   4.609   4.623
  4.623   4.722   4.722   5.017   5.262   5.264   5.279   5.279
  6.029   9.680  20.722  20.722  20.974  27.298  27.403  27.403
 27.405  27.566  37.058  37.058  37.060  37.061  37.067  37.067
 37.077 216.071
 
 Beta MOs
 -- Occupied --
*******  -9.164  -7.016  -7.008  -7.008  -0.795  -0.398  -0.272
 -0.272
 -- Virtual --
  0.171   0.234   0.246   0.246   0.298   0.334   0.512   0.512
  0.541   0.543   0.543   0.697   0.732   0.732   0.849   1.126
  1.126   1.200   1.246   1.337   1.337   1.359   1.359   1.397
  1.397   1.416   1.416   1.657   1.702   1.702   1.848   2.411
  2.411   2.762   2.990   3.989   4.049   4.049   4.611   4.611
  4.625   4.625   4.725   4.725   5.021   5.263   5.265   5.281
  5.281   6.032   9.681  20.723  20.723  20.975  27.299  27.404
 27.404  27.406  27.567  37.059  37.059  37.061  37.061  37.067
 37.067  37.077 216.072
 --------------------------------------------------------------
 
          Ground-State Mulliken Net Atomic Charges

     Atom                 Charge (a.u.)    Spin (a.u.)
  --------------------------------------------------------
      1 Cl                    0.642569      -0.949084
      2 H                    -1.642569       1.949084
  --------------------------------------------------------
  Sum of atomic charges =    -1.000000
  Sum of spin   charges =     1.000000

 -----------------------------------------------------------------
                    Cartesian Multipole Moments
 -----------------------------------------------------------------
    Charge (ESU x 10^10)
                -4.8032
    Dipole Moment (Debye)
         X       0.0001      Y      -0.0001      Z      -7.0818
       Tot       7.0818
    Quadrupole Moments (Debye-Ang)
        XX     -26.3280     XY      -0.0001     YY     -26.3280
        XZ       0.0001     YZ       0.0000     ZZ     -43.2882
    Octapole Moments (Debye-Ang^2)
       XXX       0.0006    XXY      -0.0001    XYY       0.0002
       YYY      -0.0002    XXZ     -21.4490    XYZ       0.0000
       YYZ     -21.4491    XZZ       0.0004    YZZ      -0.0003
       ZZZ     -97.3447
    Hexadecapole Moments (Debye-Ang^3)
      XXXX    -106.4360   XXXY      -0.0002   XXYY     -35.4787
      XYYY      -0.0002   YYYY    -106.4360   XXXZ       0.0004
      XXYZ       0.0000   XYYZ       0.0001   YYYZ      -0.0001
      XXZZ     -79.4228   XYZZ      -0.0001   YYZZ     -79.4228
      XZZZ       0.0004   YZZZ      -0.0003   ZZZZ    -425.4431
 -----------------------------------------------------------------
 Total job time:  13.65s(wall), 11.00s(cpu) 
 Tue Apr 12 20:38:55 2011

        *************************************************************
        *                                                           *
        *  Thank you very much for using Q-Chem.  Have a nice day.  *
        *                                                           *
        *************************************************************


0 sent ACK to 0 
now end server 0 ... 
 
**********************************************************************
Job 2 of 3 
**********************************************************************
 
Process 0 of 1 is on cl263.stfx.acenet.ca - thread support 1
initial socket setup ...start
initial socket setup ...done 
now start server 0 ... 

cmd = /usr/bin/ssh clhead /usr/local/qchem/bin/get_hostid 165393165 > /globalscratch/itamblyn/bnl/g297_b3lyp_neut_g03Large_worked/g2g71020/omega400/qchem26526/lic.dat
                  Welcome to Q-Chem
     A Quantum Leap Into The Future Of Chemistry

 Y. Shao, L. Fusti-Molnar, Y. Jung, J. Kussmann, C. Ochsenfeld,
 S. T. Brown, A. T. B. Gilbert, L. V. Slipchenko,S. V. Levchenko,
 D. P. O'Neill, R. A. DiStasio Jr., R. C. Lochan, T. Wang,
 G. J. O. Beran, N. A. Besley, J. M. Herbert, C. Y. Lin,
 T. Van Voorhis, S. H. Chien, A. Sodt, R. P. Steele, 
 V. A. Rassolov, P. E. Maslen, P. P. Korambath, R. D. Adamson,
 B. Austin, J. Baker, E. F. C. Byrd, H. Dachsel, R. J. Doerksen,
 A. Dreuw, B. D. Dunietz, A. D. Dutoi, T. R. Furlani,
 S. R. Gwaltney, A. Heyden, S. Hirata, C.-P. Hsu, G. Kedziora,
 R. Z. Khaliullin, P. Klunzinger, A. M. Lee, M. S. Lee, W. Liang,
 I. Lotan, N. Nair, B. Peters, E. I. Proynov, P. A. Pieniazek, 
 Y. M. Rhee, J. Ritchie, E. Rosta, C. D. Sherrill, 
 A. C. Simmonett, J. E. Subotnik, H. L. Woodcock III,
 W. Zhang, A. T. Bell, A. K. Chakraborty, D. M. Chipman,
 F. J. Keil, A. Warshel, W. J. Hehre, H. F. Schaefer III,
 J. Kong, A. I. Krylov, P. M. W. Gill, M. Head-Gordon,
 Q-Chem, Version 3.1, Q-Chem, Inc., Pittsburgh, PA (2007).

 Additional authors for Version 3.1: 
 Z. Gan, Y. Zhao, N. E. Schultz, D. Truhlar, E. Epifanovsky and M. Oana.

 Additional authors for Version 3.2: 
 R. Baer, B. R. Brooks, D. Casanova, J.-D. Chai, C.-L. Cheng, 
 C. Cramer, D. Crittenden, A. Ghysels, G. Hawkins, E. G. Hohenstein, 
 C. Kelley, W. Kurlancheek, D. Liotard, E. Livshits, P. Manohar, 
 A. Marenich, D. Neuhauser, R. Olson, M. A. Rohrdanz, K. S. Thanthiriwatte, 
 A. J. W. Thom, V. Vanovschi, C. F. Williams, Q. Wu and Z.-Q. You. 


 Intel X86 Linux Version

 Q-chem begins on Tue Apr 12 20:38:58 2011  

 Parallel job on  1  processors
Processing $rem in /usr/local/qchem/config/preferences.

theFileMan(): MAXOPENFILES=974 MAX_SUB_FILE_NUM=16
Maximum size of a physical file is 2.0 GB, maximum size of a tmp-file is 32.0 GB


--------------------------------------------------------------
User input:
--------------------------------------------------------------

$molecule
0,1
Cl
H,1,R

 R=1.28991833

$end

$comment
neutral
$end

$xc_functional
   X HF 1.0
   X BNL 1.0
   C LYP 1.0
$end

$rem
SYMMETRY_DECOMPOSITION	0
exchange 		general
BASIS                   g3large
omega			400
separate_jk		true
mem_static              760
max_scf_cycles          200
scf_final_print         1
sym_ignore              true
$end

--------------------------------------------------------------
 Writing REM_CC_EA            2
 ----------------------------------------------------
       Standard Nuclear Orientation (Angstroms)
    I     Atom         X            Y            Z
 ----------------------------------------------------
    1      Cl      0.000000     0.000000     0.000000
    2      H       0.000000     0.000000     1.289918
 ----------------------------------------------------
 Nuclear Repulsion Energy =     6.9740946961 hartrees
 There are        9 alpha and        9 beta electrons
 Requested basis set is G3large
 There are 25 shells and 76 basis functions

Total QAlloc Memory Limit   2000 MB
Mega-Array Size       743 MB
MEM_STATIC part       760 MB

                       Distance Matrix (Angstroms)
             Cl(  1)
   H (  2)  1.289918
 
 A cutoff of  1.0D-08 yielded    325 shell pairs
 There are   3056 function pairs (  4227 Cartesian)
Evaluating contribution to one-electron hamiltonian from nuclear
 Smallest overlap matrix eigenvalue = 3.76E-03
 Multipole matrices computed through 2nd order

  Scale SEOQF with 1.000000e-01/1.000000e-01/1.000000e-01

 Standard Electronic Orientation quadrupole field applied
 Nucleus-field energy     =    -0.0000000002 hartrees
 Guess from superposition of atomic densities
 Warning:  Energy on first SCF cycle will be non-variational
 A restricted hybrid HF-DFT SCF calculation will be
 performed using Pulay DIIS extrapolation
 Exchange:     1.0000 Hartree-Fock + 1.0000 BNL
 Correlation:  1.0000 LYP
 Using SG-1 standard quadrature grid
 SCF converges when DIIS error is below 1.0E-05
 ---------------------------------------
  Cycle       Energy         DIIS Error
 ---------------------------------------
    1    -458.8539708433      3.53E-02
    2    -458.8995520576      4.01E-03
    3    -458.9110171824      2.57E-03
    4    -458.9143862155      3.22E-04
    5    -458.9144434023      8.12E-05
    6    -458.9144539380      2.63E-05
    7    -458.9144551532      7.51E-06 Convergence criterion met
 ---------------------------------------
 One-Electron    Energy =  -649.5286114980
 Total Coulomb   Energy =   210.2684215145
 Alpha Exchange  Energy =    -1.8623662724
 Beta  Exchange  Energy =    -1.8623662724
 DFT   Exchange  Energy =   -22.1765347626
 DFT Correlation Energy =    -0.7270925583
 Nuclear Repu.   Energy =     6.9740946959
 Nuclear Attr.   Energy = -1107.6847789481
 Kinetic         Energy =   458.1561674501
 SCF time:  CPU 8.66 s  wall 10.79 s
 Final Alpha MO Eigenvalues
            1           2           3           4           5           6
    1-100.4989926  -9.3532037  -7.2063795  -7.1965061  -7.1965047  -0.9831750
            7           8           9          10          11          12
    1  -0.5882565  -0.4532469  -0.4532461   0.0263976   0.1073442   0.1172724
           13          14
    1   0.1172725   0.1261406
 Analysis of SCF Wavefunction
 
 --------------------------------------------------------------
                    Orbital Energies (a.u.)
 --------------------------------------------------------------
 
 Alpha MOs
 -- Occupied --
*******  -9.353  -7.206  -7.197  -7.197  -0.983  -0.588  -0.453
 -0.453
 -- Virtual --
  0.026   0.107   0.117   0.117   0.126   0.177   0.333   0.333
  0.368   0.371   0.371   0.537   0.571   0.571   0.665   0.931
  0.931   1.014   1.070   1.153   1.153   1.179   1.179   1.218
  1.218   1.242   1.242   1.469   1.517   1.517   1.662   2.232
  2.232   2.580   2.789   3.787   3.842   3.842   4.425   4.425
  4.442   4.442   4.536   4.536   4.828   5.078   5.081   5.093
  5.093   5.840   9.494  20.535  20.535  20.785  27.111  27.215
 27.215  27.218  27.377  36.871  36.871  36.872  36.872  36.878
 36.878  36.888 215.882
 --------------------------------------------------------------
 
          Ground-State Mulliken Net Atomic Charges

     Atom                 Charge (a.u.)
  ----------------------------------------
      1 Cl                   -0.235064
      2 H                     0.235064
  ----------------------------------------
  Sum of atomic charges =     0.000000

 -----------------------------------------------------------------
                    Cartesian Multipole Moments
 -----------------------------------------------------------------
    Charge (ESU x 10^10)
                 0.0000
    Dipole Moment (Debye)
         X      -0.0001      Y       0.0002      Z       1.2258
       Tot       1.2258
    Quadrupole Moments (Debye-Ang)
        XX     -14.2574     XY       0.0000     YY     -14.2574
        XZ       0.0000     YZ       0.0000     ZZ     -10.3399
    Octapole Moments (Debye-Ang^2)
       XXX      -0.0001    XXY       0.0001    XYY       0.0000
       YYY       0.0003    XXZ      -0.9778    XYZ       0.0000
       YYZ      -0.9778    XZZ      -0.0002    YZZ       0.0005
       ZZZ       0.5744
    Hexadecapole Moments (Debye-Ang^3)
      XXXX     -17.5038   XXXY       0.0000   XXYY      -5.8346
      XYYY       0.0000   YYYY     -17.5038   XXXZ       0.0000
      XXYZ       0.0000   XYYZ       0.0000   YYYZ       0.0000
      XXZZ      -6.2439   XYZZ       0.0000   YYZZ      -6.2439
      XZZZ      -0.0001   YZZZ       0.0003   ZZZZ     -14.0579
 -----------------------------------------------------------------
 Total job time:  11.62s(wall), 8.75s(cpu) 
 Tue Apr 12 20:39:09 2011

        *************************************************************
        *                                                           *
        *  Thank you very much for using Q-Chem.  Have a nice day.  *
        *                                                           *
        *************************************************************


0 sent ACK to 0 
now end server 0 ... 
 
**********************************************************************
Job 3 of 3 
**********************************************************************
 
Process 0 of 1 is on cl263.stfx.acenet.ca - thread support 1
initial socket setup ...start
initial socket setup ...done 
now start server 0 ... 

cmd = /usr/bin/ssh clhead /usr/local/qchem/bin/get_hostid 968291357 > /globalscratch/itamblyn/bnl/g297_b3lyp_neut_g03Large_worked/g2g71020/omega400/qchem26526/lic.dat
                  Welcome to Q-Chem
     A Quantum Leap Into The Future Of Chemistry

 Y. Shao, L. Fusti-Molnar, Y. Jung, J. Kussmann, C. Ochsenfeld,
 S. T. Brown, A. T. B. Gilbert, L. V. Slipchenko,S. V. Levchenko,
 D. P. O'Neill, R. A. DiStasio Jr., R. C. Lochan, T. Wang,
 G. J. O. Beran, N. A. Besley, J. M. Herbert, C. Y. Lin,
 T. Van Voorhis, S. H. Chien, A. Sodt, R. P. Steele, 
 V. A. Rassolov, P. E. Maslen, P. P. Korambath, R. D. Adamson,
 B. Austin, J. Baker, E. F. C. Byrd, H. Dachsel, R. J. Doerksen,
 A. Dreuw, B. D. Dunietz, A. D. Dutoi, T. R. Furlani,
 S. R. Gwaltney, A. Heyden, S. Hirata, C.-P. Hsu, G. Kedziora,
 R. Z. Khaliullin, P. Klunzinger, A. M. Lee, M. S. Lee, W. Liang,
 I. Lotan, N. Nair, B. Peters, E. I. Proynov, P. A. Pieniazek, 
 Y. M. Rhee, J. Ritchie, E. Rosta, C. D. Sherrill, 
 A. C. Simmonett, J. E. Subotnik, H. L. Woodcock III,
 W. Zhang, A. T. Bell, A. K. Chakraborty, D. M. Chipman,
 F. J. Keil, A. Warshel, W. J. Hehre, H. F. Schaefer III,
 J. Kong, A. I. Krylov, P. M. W. Gill, M. Head-Gordon,
 Q-Chem, Version 3.1, Q-Chem, Inc., Pittsburgh, PA (2007).

 Additional authors for Version 3.1: 
 Z. Gan, Y. Zhao, N. E. Schultz, D. Truhlar, E. Epifanovsky and M. Oana.

 Additional authors for Version 3.2: 
 R. Baer, B. R. Brooks, D. Casanova, J.-D. Chai, C.-L. Cheng, 
 C. Cramer, D. Crittenden, A. Ghysels, G. Hawkins, E. G. Hohenstein, 
 C. Kelley, W. Kurlancheek, D. Liotard, E. Livshits, P. Manohar, 
 A. Marenich, D. Neuhauser, R. Olson, M. A. Rohrdanz, K. S. Thanthiriwatte, 
 A. J. W. Thom, V. Vanovschi, C. F. Williams, Q. Wu and Z.-Q. You. 


 Intel X86 Linux Version

 Q-chem begins on Tue Apr 12 20:39:12 2011  

 Parallel job on  1  processors
Processing $rem in /usr/local/qchem/config/preferences.

theFileMan(): MAXOPENFILES=974 MAX_SUB_FILE_NUM=16
Maximum size of a physical file is 2.0 GB, maximum size of a tmp-file is 32.0 GB


--------------------------------------------------------------
User input:
--------------------------------------------------------------

$molecule
1,2
Cl
H,1,R

 R=1.28991833

$end

$comment
positive
$end

$xc_functional
   X HF 1.0
   X BNL 1.0
   C LYP 1.0
$end

$rem
SYMMETRY_DECOMPOSITION	0
exchange 		general
BASIS                   g3large
omega			400
separate_jk		true
mem_static              760
max_scf_cycles          200
scf_final_print         1
sym_ignore              true
$end

--------------------------------------------------------------
 Writing REM_CC_EA            2
 ----------------------------------------------------
       Standard Nuclear Orientation (Angstroms)
    I     Atom         X            Y            Z
 ----------------------------------------------------
    1      Cl      0.000000     0.000000     0.000000
    2      H       0.000000     0.000000     1.289918
 ----------------------------------------------------
 Nuclear Repulsion Energy =     6.9740946961 hartrees
 There are        9 alpha and        8 beta electrons
 Requested basis set is G3large
 There are 25 shells and 76 basis functions

Total QAlloc Memory Limit   2000 MB
Mega-Array Size       743 MB
MEM_STATIC part       760 MB

                       Distance Matrix (Angstroms)
             Cl(  1)
   H (  2)  1.289918
 
 A cutoff of  1.0D-08 yielded    325 shell pairs
 There are   3056 function pairs (  4227 Cartesian)
Evaluating contribution to one-electron hamiltonian from nuclear
 Smallest overlap matrix eigenvalue = 3.76E-03
 Multipole matrices computed through 2nd order

  Scale SEOQF with 1.000000e-01/1.000000e-01/1.000000e-01

 Standard Electronic Orientation quadrupole field applied
 Nucleus-field energy     =    -0.0000000002 hartrees
 Guess from superposition of atomic densities
 Warning:  Energy on first SCF cycle will be non-variational
 An unrestricted hybrid HF-DFT SCF calculation will be
 performed using Pulay DIIS extrapolation
 Exchange:     1.0000 Hartree-Fock + 1.0000 BNL
 Correlation:  1.0000 LYP
 Using SG-1 standard quadrature grid
 SCF converges when DIIS error is below 1.0E-05
 Warning!  Inaccurate integrated density:
   Number of electrons =    17
   Numerical integral  =    18.000009746852
   Relative error      =     5.8824102756 %
 ---------------------------------------
  Cycle       Energy         DIIS Error
 ---------------------------------------
    1    -458.8539708433      3.53E-02
    2    -458.3992615734      6.68E-03
    3    -458.4387324348      3.61E-03
    4    -458.4428290374      4.16E-04
    5    -458.4432149572      1.43E-04
    6    -458.4433563402      8.28E-05
    7    -458.4434320956      4.92E-05
    8    -458.4434708694      1.47E-05
    9    -458.4434739345      2.32E-06 Convergence criterion met
 ---------------------------------------
 One-Electron    Energy =  -642.0117263968
 Total Coulomb   Energy =   202.8962716516
 Alpha Exchange  Energy =    -1.8792504945
 Beta  Exchange  Energy =    -1.6821843754
 DFT   Exchange  Energy =   -22.0501832188
 DFT Correlation Energy =    -0.6904957966
 Nuclear Repu.   Energy =     6.9740946959
 Nuclear Attr.   Energy = -1099.7912885122
 Kinetic         Energy =   457.7795621154
 <S^2> = 0.7527
 SCF time:  CPU 12.32 s  wall 15.12 s
 Final Alpha MO Eigenvalues
            1           2           3           4           5           6
    1-100.9497568  -9.7966493  -7.6575368  -7.6440773  -7.6337180  -1.3960843
            7           8           9          10          11          12
    1  -0.9647405  -0.8910286  -0.8354226  -0.2157929  -0.1254201  -0.0822129
           13          14
    1  -0.0759352  -0.0703960
 Final Beta MO Eigenvalues
            1           2           3           4           5           6
    1-100.9423123  -9.7889256  -7.6406312  -7.6386848  -7.6274441  -1.3450964
            7           8           9          10          11          12
    1  -0.9485966  -0.8173682  -0.4926601  -0.2073570  -0.1221476  -0.0816690
           13
    1  -0.0736834
 Analysis of SCF Wavefunction
 
 --------------------------------------------------------------
                    Orbital Energies (a.u.)
 --------------------------------------------------------------
 
 Alpha MOs
 -- Occupied --
*******  -9.797  -7.658  -7.644  -7.634  -1.396  -0.965  -0.891
 -0.835
 -- Virtual --
 -0.216  -0.125  -0.082  -0.076  -0.070  -0.015  -0.013   0.012
  0.027   0.028   0.119   0.272   0.277   0.297   0.374   0.619
  0.633   0.678   0.745   0.754   0.782   0.786   0.786   0.873
  0.873   0.888   0.888   1.146   1.182   1.203   1.321   1.825
  1.865   2.216   2.463   3.427   3.499   3.508   3.996   3.996
  3.996   3.997   4.107   4.144   4.430   4.640   4.643   4.655
  4.684   5.431   9.062  20.075  20.101  20.351  26.661  26.764
 26.767  26.782  26.939  36.422  36.425  36.426  36.430  36.430
 36.447  36.454 215.433
 
 Beta MOs
 -- Occupied --
*******  -9.789  -7.641  -7.639  -7.627  -1.345  -0.949  -0.817
 -- Virtual --
 -0.493  -0.207  -0.122  -0.082  -0.074  -0.070  -0.014   0.018
  0.021   0.059   0.060   0.124   0.276   0.293   0.301   0.377
  0.626   0.634   0.696   0.755   0.787   0.795   0.814   0.814
  0.889   0.890   0.909   0.910   1.154   1.198   1.207   1.333
  1.864   1.877   2.226   2.462   3.435   3.502   3.506   4.033
  4.033   4.047   4.048   4.147   4.154   4.446   4.662   4.665
  4.678   4.690   5.445   9.078  20.098  20.110  20.357  26.676
 26.778  26.782  26.787  26.947  36.429  36.432  36.433  36.435
 36.436  36.449  36.456 215.441
 --------------------------------------------------------------
 
          Ground-State Mulliken Net Atomic Charges

     Atom                 Charge (a.u.)    Spin (a.u.)
  --------------------------------------------------------
      1 Cl                    0.664038       1.015228
      2 H                     0.335962      -0.015228
  --------------------------------------------------------
  Sum of atomic charges =     1.000000
  Sum of spin   charges =     1.000000

 -----------------------------------------------------------------
                    Cartesian Multipole Moments
 -----------------------------------------------------------------
    Charge (ESU x 10^10)
                 4.8032
    Dipole Moment (Debye)
         X       0.0000      Y       0.0000      Z       1.8805
       Tot       1.8805
    Quadrupole Moments (Debye-Ang)
        XX     -10.6222     XY      -0.8831     YY     -10.5410
        XZ       0.0000     YZ       0.0000     ZZ      -7.0471
    Octapole Moments (Debye-Ang^2)
       XXX       0.0000    XXY       0.0000    XYY       0.0000
       YYY       0.0000    XXZ      -0.7325    XYZ      -0.0525
       YYZ      -0.7277    XZZ       0.0000    YZZ      -0.0001
       ZZZ       2.5847
    Hexadecapole Moments (Debye-Ang^3)
      XXXX      -9.8365   XXXY      -0.7626   XXYY      -3.2506
      XYYY      -0.7633   YYYY      -9.6962   XXXZ       0.0000
      XXYZ       0.0000   XYYZ       0.0000   YYYZ       0.0000
      XXZZ      -3.9404   XYZZ      -0.2747   YYZZ      -3.9151
      XZZZ       0.0000   YZZZ       0.0000   ZZZZ      -6.2621
 -----------------------------------------------------------------
 Total job time:  16.04s(wall), 12.42s(cpu) 
 Tue Apr 12 20:39:28 2011

        *************************************************************
        *                                                           *
        *  Thank you very much for using Q-Chem.  Have a nice day.  *
        *                                                           *
        *************************************************************


0 sent ACK to 0 
now end server 0 ... 
