Process 0 of 1 is on cl118.stfx.acenet.ca - thread support 1
initial socket setup ...start
initial socket setup ...done 
now start server 0 ... 

cmd = /usr/bin/ssh clhead /usr/local/qchem/bin/get_hostid 1083212392 > /scratch/tmp/5997317.1.short.q/qchem21099/lic.dat
                  Welcome to Q-Chem
     A Quantum Leap Into The Future Of Chemistry

 Y. Shao, L. Fusti-Molnar, Y. Jung, J. Kussmann, C. Ochsenfeld,
 S. T. Brown, A. T. B. Gilbert, L. V. Slipchenko,S. V. Levchenko,
 D. P. O'Neill, R. A. DiStasio Jr., R. C. Lochan, T. Wang,
 G. J. O. Beran, N. A. Besley, J. M. Herbert, C. Y. Lin,
 T. Van Voorhis, S. H. Chien, A. Sodt, R. P. Steele, 
 V. A. Rassolov, P. E. Maslen, P. P. Korambath, R. D. Adamson,
 B. Austin, J. Baker, E. F. C. Byrd, H. Dachsel, R. J. Doerksen,
 A. Dreuw, B. D. Dunietz, A. D. Dutoi, T. R. Furlani,
 S. R. Gwaltney, A. Heyden, S. Hirata, C.-P. Hsu, G. Kedziora,
 R. Z. Khaliullin, P. Klunzinger, A. M. Lee, M. S. Lee, W. Liang,
 I. Lotan, N. Nair, B. Peters, E. I. Proynov, P. A. Pieniazek, 
 Y. M. Rhee, J. Ritchie, E. Rosta, C. D. Sherrill, 
 A. C. Simmonett, J. E. Subotnik, H. L. Woodcock III,
 W. Zhang, A. T. Bell, A. K. Chakraborty, D. M. Chipman,
 F. J. Keil, A. Warshel, W. J. Hehre, H. F. Schaefer III,
 J. Kong, A. I. Krylov, P. M. W. Gill, M. Head-Gordon,
 Q-Chem, Version 3.1, Q-Chem, Inc., Pittsburgh, PA (2007).

 Additional authors for Version 3.1: 
 Z. Gan, Y. Zhao, N. E. Schultz, D. Truhlar, E. Epifanovsky and M. Oana.

 Additional authors for Version 3.2: 
 R. Baer, B. R. Brooks, D. Casanova, J.-D. Chai, C.-L. Cheng, 
 C. Cramer, D. Crittenden, A. Ghysels, G. Hawkins, E. G. Hohenstein, 
 C. Kelley, W. Kurlancheek, D. Liotard, E. Livshits, P. Manohar, 
 A. Marenich, D. Neuhauser, R. Olson, M. A. Rohrdanz, K. S. Thanthiriwatte, 
 A. J. W. Thom, V. Vanovschi, C. F. Williams, Q. Wu and Z.-Q. You. 


 Intel X86 Linux Version

 Q-chem begins on Wed May 22 10:52:22 2013  

 Parallel job on  1  processors
Processing $rem in /usr/local/qchem/config/preferences.

theFileMan(): MAXOPENFILES=974 MAX_SUB_FILE_NUM=16
Maximum size of a physical file is 2.0 GB, maximum size of a tmp-file is 32.0 GB


--------------------------------------------------------------
User input:
--------------------------------------------------------------

$molecule
-1,2
C         -0.00002        0.00000        0.00003
H          0.00001        0.00000        1.08545
H          1.02332        0.00000       -0.36182
H         -0.51166        0.88626       -0.36183
H         -0.51166       -0.88626       -0.36183
$end

$comment
negative
$end

$xc_functional
C PBE   1.00
X wPBE  1.00
$end

$rem
SYMMETRY_DECOMPOSITION	0
exchange 		general
LRC_DFT                 true
BASIS                   g3large
omega			900
mem_static              760
max_scf_cycles          200
scf_final_print         1
sym_ignore              true
$end

--------------------------------------------------------------
 Writing REM_CC_EA            5
 ----------------------------------------------------
       Standard Nuclear Orientation (Angstroms)
    I     Atom         X            Y            Z
 ----------------------------------------------------
    1      C      -0.000020     0.000000     0.000030
    2      H       0.000010     0.000000     1.085450
    3      H       1.023320     0.000000    -0.361820
    4      H      -0.511660     0.886260    -0.361830
    5      H      -0.511660    -0.886260    -0.361830
 ----------------------------------------------------
 Nuclear Repulsion Energy =    13.4919371385 hartrees
 There are        6 alpha and        5 beta electrons
 Requested basis set is G3large
 There are 34 shells and 82 basis functions

Total QAlloc Memory Limit   2000 MB
Mega-Array Size       743 MB
MEM_STATIC part       760 MB

                       Distance Matrix (Angstroms)
             C (  1)   H (  2)   H (  3)   H (  4)
   H (  2)  1.085420
   H (  3)  1.085431  1.772499
   H (  4)  1.085438  1.772536  1.772462
   H (  5)  1.085438  1.772536  1.772462  1.772520
 
 A cutoff of  1.0D-08 yielded    595 shell pairs
 There are   3505 function pairs (  4057 Cartesian)
Evaluating contribution to one-electron hamiltonian from nuclear
 Smallest overlap matrix eigenvalue = 1.15E-03
 Multipole matrices computed through 2nd order

  Scale SEOQF with 1.000000e-01/1.000000e-01/1.000000e-01

 Standard Electronic Orientation quadrupole field applied
 Guess from superposition of atomic densities
 Warning:  Energy on first SCF cycle will be non-variational
 Long-range K will be added via erf
 Coulomb attenuation parameter = 0.9 bohr**(-1)
 An unrestricted Kohn-Sham SCF calculation will be
 performed using Pulay DIIS extrapolation
 Exchange:  wPBE + LR-HF      Correlation:  PBE
 Using SG-1 standard quadrature grid
 SCF converges when DIIS error is below 1.0E-05
 Requested basis set is G3large
 There are 34 shells and 82 basis functions
 A cutoff of  1.0D-08 yielded    595 shell pairs
 There are   3505 function pairs (  4057 Cartesian)
 Warning!  Inaccurate integrated density:
   Number of electrons =    11
   Numerical integral  =     9.999984183184
   Relative error      =    -9.0910528801 %
 ---------------------------------------
  Cycle       Energy         DIIS Error
 ---------------------------------------
    1     -40.5684472028      4.37E-02
    2     -40.4408729461      4.65E-03
    3     -40.4711024784      2.10E-03
    4     -40.4764414187      4.89E-04
    5     -40.4776076424      1.07E-04
    6     -40.4777036895      2.41E-05
    7     -40.4777115342      7.31E-06 Convergence criterion met
 ---------------------------------------
 One-Electron    Energy =   -81.4926674498
 Total Coulomb   Energy =    34.5034583452
 Alpha Exchange  Energy =    -1.7225848356
 Beta  Exchange  Energy =    -1.6542606295
 DFT   Exchange  Energy =    -3.2937702440
 DFT Correlation Energy =    -0.3098238589
 Nuclear Repu.   Energy =    13.4919371385
 Nuclear Attr.   Energy =  -121.8003728609
 Kinetic         Energy =    40.3077054110
 <S^2> = 0.7501
 SCF time:  CPU 10.81 s  wall 11.17 s
 Final Alpha MO Eigenvalues
            1           2           3           4           5           6
    1 -10.1870478  -0.7994422  -0.4149419  -0.4149011  -0.4148575   0.0317629
            7           8           9          10          11
    1   0.1629801   0.1629808   0.1629893   0.2637745   0.2638006
 Final Beta MO Eigenvalues
            1           2           3           4           5           6
    1 -10.1864514  -0.7963784  -0.4143560  -0.4143088  -0.4142568   0.1436732
            7           8           9          10
    1   0.1763324   0.1765449   0.1766992   0.2583707
 Analysis of SCF Wavefunction
 
 --------------------------------------------------------------
                    Orbital Energies (a.u.)
 --------------------------------------------------------------
 
 Alpha MOs
 -- Occupied --
-10.187  -0.799  -0.415  -0.415  -0.415   0.032
 -- Virtual --
  0.163   0.163   0.163   0.264   0.264   0.264   0.299   0.422
  0.422   0.422   0.486   0.668   0.668   0.668   0.785   0.785
  0.863   0.863   0.863   0.950   0.984   1.178   1.178   1.178
  1.356   1.356   1.356   1.468   1.468   1.468   1.700   1.700
  1.779   1.779   1.779   1.925   2.715   2.715   2.715   2.800
  3.331   3.331   3.331   3.528   3.528   3.528   3.637   3.637
  3.699   3.699   3.699   4.225   4.225   4.225   4.380   4.496
  4.496   4.613   4.613   4.613   4.845   4.845   4.845   5.291
  6.067   6.067   6.067  24.714  28.466  28.466  28.466  41.415
 41.457  41.597  41.639  41.694
 
 Beta MOs
 -- Occupied --
-10.186  -0.796  -0.414  -0.414  -0.414
 -- Virtual --
  0.144   0.176   0.177   0.177   0.258   0.258   0.258   0.303
  0.423   0.423   0.424   0.479   0.666   0.666   0.666   0.786
  0.786   0.859   0.859   0.859   0.947   0.983   1.178   1.178
  1.178   1.356   1.356   1.356   1.468   1.468   1.468   1.701
  1.701   1.778   1.778   1.778   1.924   2.714   2.714   2.714
  2.799   3.331   3.331   3.331   3.528   3.528   3.528   3.637
  3.637   3.699   3.700   3.700   4.225   4.225   4.225   4.380
  4.496   4.496   4.613   4.613   4.613   4.845   4.845   4.845
  5.291   6.067   6.067   6.067  24.715  28.467  28.467  28.467
 41.416  41.457  41.597  41.639  41.694
 --------------------------------------------------------------
 
          Ground-State Mulliken Net Atomic Charges

     Atom                 Charge (a.u.)    Spin (a.u.)
  --------------------------------------------------------
      1 C                     3.115857      -3.328786
      2 H                    -1.029858       1.083151
      3 H                    -1.029230       1.082478
      4 H                    -1.018325       1.071173
      5 H                    -1.038445       1.091984
  --------------------------------------------------------
  Sum of atomic charges =    -1.000000
  Sum of spin   charges =     1.000000

 -----------------------------------------------------------------
                    Cartesian Multipole Moments
 -----------------------------------------------------------------
    Charge (ESU x 10^10)
                -4.8032
    Dipole Moment (Debye)
         X      -0.0033      Y       0.0800      Z      -0.0065
       Tot       0.0803
    Quadrupole Moments (Debye-Ang)
        XX     -31.9995     XY      -0.0512     YY     -31.9948
        XZ       0.0019     YZ      -0.0362     ZZ     -32.0052
    Octapole Moments (Debye-Ang^2)
       XXX      -3.7196    XXY       0.2833    XYY       3.6736
       YYY       0.8500    XXZ       2.5850    XYZ       0.0157
       YYZ       2.5836    XZZ      -0.0110    YZZ       0.2722
       ZZZ      -5.2830
    Hexadecapole Moments (Debye-Ang^3)
      XXXX    -284.0951   XXXY      -0.4101   XXYY     -94.6846
      XYYY      -0.4758   YYYY    -284.0236   XXXZ       0.9792
      XXYZ      -0.1121   XYYZ      -0.9577   YYYZ      -0.3362
      XXZZ     -94.0318   XYZZ      -0.1422   YYZZ     -94.0204
      XZZZ       0.0136   YZZZ      -0.2781   ZZZZ    -284.8897
 -----------------------------------------------------------------
 Total job time:  11.26s(wall), 10.89s(cpu) 
 Wed May 22 10:52:34 2013

        *************************************************************
        *                                                           *
        *  Thank you very much for using Q-Chem.  Have a nice day.  *
        *                                                           *
        *************************************************************


0 sent ACK to 0 
now end server 0 ... 
 
**********************************************************************
Job 2 of 3 
**********************************************************************
 
Process 0 of 1 is on cl118.stfx.acenet.ca - thread support 1
initial socket setup ...start
initial socket setup ...done 
now start server 0 ... 

cmd = /usr/bin/ssh clhead /usr/local/qchem/bin/get_hostid 1891004157 > /scratch/tmp/5997317.1.short.q/qchem21099/lic.dat
                  Welcome to Q-Chem
     A Quantum Leap Into The Future Of Chemistry

 Y. Shao, L. Fusti-Molnar, Y. Jung, J. Kussmann, C. Ochsenfeld,
 S. T. Brown, A. T. B. Gilbert, L. V. Slipchenko,S. V. Levchenko,
 D. P. O'Neill, R. A. DiStasio Jr., R. C. Lochan, T. Wang,
 G. J. O. Beran, N. A. Besley, J. M. Herbert, C. Y. Lin,
 T. Van Voorhis, S. H. Chien, A. Sodt, R. P. Steele, 
 V. A. Rassolov, P. E. Maslen, P. P. Korambath, R. D. Adamson,
 B. Austin, J. Baker, E. F. C. Byrd, H. Dachsel, R. J. Doerksen,
 A. Dreuw, B. D. Dunietz, A. D. Dutoi, T. R. Furlani,
 S. R. Gwaltney, A. Heyden, S. Hirata, C.-P. Hsu, G. Kedziora,
 R. Z. Khaliullin, P. Klunzinger, A. M. Lee, M. S. Lee, W. Liang,
 I. Lotan, N. Nair, B. Peters, E. I. Proynov, P. A. Pieniazek, 
 Y. M. Rhee, J. Ritchie, E. Rosta, C. D. Sherrill, 
 A. C. Simmonett, J. E. Subotnik, H. L. Woodcock III,
 W. Zhang, A. T. Bell, A. K. Chakraborty, D. M. Chipman,
 F. J. Keil, A. Warshel, W. J. Hehre, H. F. Schaefer III,
 J. Kong, A. I. Krylov, P. M. W. Gill, M. Head-Gordon,
 Q-Chem, Version 3.1, Q-Chem, Inc., Pittsburgh, PA (2007).

 Additional authors for Version 3.1: 
 Z. Gan, Y. Zhao, N. E. Schultz, D. Truhlar, E. Epifanovsky and M. Oana.

 Additional authors for Version 3.2: 
 R. Baer, B. R. Brooks, D. Casanova, J.-D. Chai, C.-L. Cheng, 
 C. Cramer, D. Crittenden, A. Ghysels, G. Hawkins, E. G. Hohenstein, 
 C. Kelley, W. Kurlancheek, D. Liotard, E. Livshits, P. Manohar, 
 A. Marenich, D. Neuhauser, R. Olson, M. A. Rohrdanz, K. S. Thanthiriwatte, 
 A. J. W. Thom, V. Vanovschi, C. F. Williams, Q. Wu and Z.-Q. You. 


 Intel X86 Linux Version

 Q-chem begins on Wed May 22 10:52:37 2013  

 Parallel job on  1  processors
Processing $rem in /usr/local/qchem/config/preferences.

theFileMan(): MAXOPENFILES=974 MAX_SUB_FILE_NUM=16
Maximum size of a physical file is 2.0 GB, maximum size of a tmp-file is 32.0 GB


--------------------------------------------------------------
User input:
--------------------------------------------------------------

$molecule
0,1
C         -0.00002        0.00000        0.00003
H          0.00001        0.00000        1.08545
H          1.02332        0.00000       -0.36182
H         -0.51166        0.88626       -0.36183
H         -0.51166       -0.88626       -0.36183
$end

$comment
neutral
$end

$xc_functional
C PBE   1.00
X wPBE  1.00
$end


$rem
SYMMETRY_DECOMPOSITION	0
LRC_DFT                 true
exchange 		general
BASIS                   g3large
omega			900
mem_static              760
max_scf_cycles          200
scf_final_print         1
sym_ignore              true
$end

--------------------------------------------------------------
 Writing REM_CC_EA            5
 ----------------------------------------------------
       Standard Nuclear Orientation (Angstroms)
    I     Atom         X            Y            Z
 ----------------------------------------------------
    1      C      -0.000020     0.000000     0.000030
    2      H       0.000010     0.000000     1.085450
    3      H       1.023320     0.000000    -0.361820
    4      H      -0.511660     0.886260    -0.361830
    5      H      -0.511660    -0.886260    -0.361830
 ----------------------------------------------------
 Nuclear Repulsion Energy =    13.4919371385 hartrees
 There are        5 alpha and        5 beta electrons
 Requested basis set is G3large
 There are 34 shells and 82 basis functions

Total QAlloc Memory Limit   2000 MB
Mega-Array Size       743 MB
MEM_STATIC part       760 MB

                       Distance Matrix (Angstroms)
             C (  1)   H (  2)   H (  3)   H (  4)
   H (  2)  1.085420
   H (  3)  1.085431  1.772499
   H (  4)  1.085438  1.772536  1.772462
   H (  5)  1.085438  1.772536  1.772462  1.772520
 
 A cutoff of  1.0D-08 yielded    595 shell pairs
 There are   3505 function pairs (  4057 Cartesian)
Evaluating contribution to one-electron hamiltonian from nuclear
 Smallest overlap matrix eigenvalue = 1.15E-03
 Multipole matrices computed through 2nd order

  Scale SEOQF with 1.000000e-01/1.000000e-01/1.000000e-01

 Standard Electronic Orientation quadrupole field applied
 Guess from superposition of atomic densities
 Warning:  Energy on first SCF cycle will be non-variational
 Long-range K will be added via erf
 Coulomb attenuation parameter = 0.9 bohr**(-1)
 A restricted Kohn-Sham SCF calculation will be
 performed using Pulay DIIS extrapolation
 Exchange:  wPBE + LR-HF      Correlation:  PBE
 Using SG-1 standard quadrature grid
 SCF converges when DIIS error is below 1.0E-05
 Requested basis set is G3large
 There are 34 shells and 82 basis functions
 A cutoff of  1.0D-08 yielded    595 shell pairs
 There are   3505 function pairs (  4057 Cartesian)
 ---------------------------------------
  Cycle       Energy         DIIS Error
 ---------------------------------------
    1     -40.5684472028      4.37E-02
    2     -40.4942707317      4.13E-03
    3     -40.5107824082      1.34E-03
    4     -40.5125093898      4.11E-04
    5     -40.5127401338      7.02E-05
    6     -40.5127499071      1.40E-05
    7     -40.5127503296      2.14E-06 Convergence criterion met
 ---------------------------------------
 One-Electron    Energy =   -80.0015600887
 Total Coulomb   Energy =    32.9046693026
 Alpha Exchange  Energy =    -1.6563028103
 Beta  Exchange  Energy =    -1.6563028103
 DFT   Exchange  Energy =    -3.2920556730
 DFT Correlation Energy =    -0.3031353883
 Nuclear Repu.   Energy =    13.4919371385
 Nuclear Attr.   Energy =  -120.2480566938
 Kinetic         Energy =    40.2464966051
 SCF time:  CPU 8.95 s  wall 9.28 s
 Final Alpha MO Eigenvalues
            1           2           3           4           5           6
    1 -10.3415081  -0.9500826  -0.5677662  -0.5677533  -0.5677423   0.0408401
            7           8           9          10
    1   0.0762979   0.0762992   0.0763007   0.1498668
 Analysis of SCF Wavefunction
 
 --------------------------------------------------------------
                    Orbital Energies (a.u.)
 --------------------------------------------------------------
 
 Alpha MOs
 -- Occupied --
-10.342  -0.950  -0.568  -0.568  -0.568
 -- Virtual --
  0.041   0.076   0.076   0.076   0.150   0.150   0.150   0.185
  0.285   0.285   0.285   0.356   0.525   0.525   0.525   0.633
  0.633   0.718   0.718   0.718   0.806   0.838   1.026   1.026
  1.026   1.205   1.205   1.205   1.317   1.317   1.317   1.548
  1.548   1.629   1.629   1.629   1.776   2.563   2.563   2.563
  2.649   3.178   3.178   3.178   3.375   3.375   3.375   3.484
  3.484   3.547   3.547   3.547   4.072   4.072   4.072   4.227
  4.343   4.343   4.460   4.461   4.461   4.692   4.692   4.692
  5.138   5.914   5.914   5.914  24.560  28.312  28.312  28.312
 41.261  41.303  41.443  41.485  41.540
 --------------------------------------------------------------
 
          Ground-State Mulliken Net Atomic Charges

     Atom                 Charge (a.u.)
  ----------------------------------------
      1 C                    -0.237346
      2 H                     0.059362
      3 H                     0.059342
      4 H                     0.059308
      5 H                     0.059335
  ----------------------------------------
  Sum of atomic charges =     0.000000

 -----------------------------------------------------------------
                    Cartesian Multipole Moments
 -----------------------------------------------------------------
    Charge (ESU x 10^10)
                 0.0000
    Dipole Moment (Debye)
         X       0.0000      Y      -0.0001      Z       0.0000
       Tot       0.0001
    Quadrupole Moments (Debye-Ang)
        XX      -8.1610     XY       0.0001     YY      -8.1607
        XZ       0.0000     YZ       0.0000     ZZ      -8.1606
    Octapole Moments (Debye-Ang^2)
       XXX       0.6854    XXY      -0.0001    XYY      -0.6851
       YYY      -0.0002    XXZ      -0.4846    XYZ       0.0000
       YYZ      -0.4847    XZZ       0.0001    YZZ      -0.0001
       ZZZ       0.9687
    Hexadecapole Moments (Debye-Ang^3)
      XXXX     -14.9436   XXXY       0.0002   XXYY      -4.9812
      XYYY       0.0002   YYYY     -14.9436   XXXZ      -0.4229
      XXYZ       0.0000   XYYZ       0.4229   YYYZ       0.0001
      XXZZ      -5.2801   XYZZ       0.0001   YYZZ      -5.2801
      XZZZ       0.0000   YZZZ       0.0001   ZZZZ     -14.6443
 -----------------------------------------------------------------
 Total job time:  9.36s(wall), 9.02s(cpu) 
 Wed May 22 10:52:47 2013

        *************************************************************
        *                                                           *
        *  Thank you very much for using Q-Chem.  Have a nice day.  *
        *                                                           *
        *************************************************************


0 sent ACK to 0 
now end server 0 ... 
 
**********************************************************************
Job 3 of 3 
**********************************************************************
 
Process 0 of 1 is on cl118.stfx.acenet.ca - thread support 1
initial socket setup ...start
initial socket setup ...done 
now start server 0 ... 

cmd = /usr/bin/ssh clhead /usr/local/qchem/bin/get_hostid 86040048 > /scratch/tmp/5997317.1.short.q/qchem21099/lic.dat
                  Welcome to Q-Chem
     A Quantum Leap Into The Future Of Chemistry

 Y. Shao, L. Fusti-Molnar, Y. Jung, J. Kussmann, C. Ochsenfeld,
 S. T. Brown, A. T. B. Gilbert, L. V. Slipchenko,S. V. Levchenko,
 D. P. O'Neill, R. A. DiStasio Jr., R. C. Lochan, T. Wang,
 G. J. O. Beran, N. A. Besley, J. M. Herbert, C. Y. Lin,
 T. Van Voorhis, S. H. Chien, A. Sodt, R. P. Steele, 
 V. A. Rassolov, P. E. Maslen, P. P. Korambath, R. D. Adamson,
 B. Austin, J. Baker, E. F. C. Byrd, H. Dachsel, R. J. Doerksen,
 A. Dreuw, B. D. Dunietz, A. D. Dutoi, T. R. Furlani,
 S. R. Gwaltney, A. Heyden, S. Hirata, C.-P. Hsu, G. Kedziora,
 R. Z. Khaliullin, P. Klunzinger, A. M. Lee, M. S. Lee, W. Liang,
 I. Lotan, N. Nair, B. Peters, E. I. Proynov, P. A. Pieniazek, 
 Y. M. Rhee, J. Ritchie, E. Rosta, C. D. Sherrill, 
 A. C. Simmonett, J. E. Subotnik, H. L. Woodcock III,
 W. Zhang, A. T. Bell, A. K. Chakraborty, D. M. Chipman,
 F. J. Keil, A. Warshel, W. J. Hehre, H. F. Schaefer III,
 J. Kong, A. I. Krylov, P. M. W. Gill, M. Head-Gordon,
 Q-Chem, Version 3.1, Q-Chem, Inc., Pittsburgh, PA (2007).

 Additional authors for Version 3.1: 
 Z. Gan, Y. Zhao, N. E. Schultz, D. Truhlar, E. Epifanovsky and M. Oana.

 Additional authors for Version 3.2: 
 R. Baer, B. R. Brooks, D. Casanova, J.-D. Chai, C.-L. Cheng, 
 C. Cramer, D. Crittenden, A. Ghysels, G. Hawkins, E. G. Hohenstein, 
 C. Kelley, W. Kurlancheek, D. Liotard, E. Livshits, P. Manohar, 
 A. Marenich, D. Neuhauser, R. Olson, M. A. Rohrdanz, K. S. Thanthiriwatte, 
 A. J. W. Thom, V. Vanovschi, C. F. Williams, Q. Wu and Z.-Q. You. 


 Intel X86 Linux Version

 Q-chem begins on Wed May 22 10:52:49 2013  

 Parallel job on  1  processors
Processing $rem in /usr/local/qchem/config/preferences.

theFileMan(): MAXOPENFILES=974 MAX_SUB_FILE_NUM=16
Maximum size of a physical file is 2.0 GB, maximum size of a tmp-file is 32.0 GB


--------------------------------------------------------------
User input:
--------------------------------------------------------------

$molecule
1,2
C         -0.00002        0.00000        0.00003
H          0.00001        0.00000        1.08545
H          1.02332        0.00000       -0.36182
H         -0.51166        0.88626       -0.36183
H         -0.51166       -0.88626       -0.36183
$end

$comment
positive
$end

$xc_functional
C PBE   1.00
X wPBE  1.00
$end

$rem
SYMMETRY_DECOMPOSITION	0
LRC_DFT                 true
exchange 		general
BASIS                   g3large
omega			900
mem_static              760
max_scf_cycles          200
scf_final_print         1
sym_ignore              true
$end

--------------------------------------------------------------
 Writing REM_CC_EA            5
 ----------------------------------------------------
       Standard Nuclear Orientation (Angstroms)
    I     Atom         X            Y            Z
 ----------------------------------------------------
    1      C      -0.000020     0.000000     0.000030
    2      H       0.000010     0.000000     1.085450
    3      H       1.023320     0.000000    -0.361820
    4      H      -0.511660     0.886260    -0.361830
    5      H      -0.511660    -0.886260    -0.361830
 ----------------------------------------------------
 Nuclear Repulsion Energy =    13.4919371385 hartrees
 There are        5 alpha and        4 beta electrons
 Requested basis set is G3large
 There are 34 shells and 82 basis functions

Total QAlloc Memory Limit   2000 MB
Mega-Array Size       743 MB
MEM_STATIC part       760 MB

                       Distance Matrix (Angstroms)
             C (  1)   H (  2)   H (  3)   H (  4)
   H (  2)  1.085420
   H (  3)  1.085431  1.772499
   H (  4)  1.085438  1.772536  1.772462
   H (  5)  1.085438  1.772536  1.772462  1.772520
 
 A cutoff of  1.0D-08 yielded    595 shell pairs
 There are   3505 function pairs (  4057 Cartesian)
Evaluating contribution to one-electron hamiltonian from nuclear
 Smallest overlap matrix eigenvalue = 1.15E-03
 Multipole matrices computed through 2nd order

  Scale SEOQF with 1.000000e-01/1.000000e-01/1.000000e-01

 Standard Electronic Orientation quadrupole field applied
 Guess from superposition of atomic densities
 Warning:  Energy on first SCF cycle will be non-variational
 Long-range K will be added via erf
 Coulomb attenuation parameter = 0.9 bohr**(-1)
 An unrestricted Kohn-Sham SCF calculation will be
 performed using Pulay DIIS extrapolation
 Exchange:  wPBE + LR-HF      Correlation:  PBE
 Using SG-1 standard quadrature grid
 SCF converges when DIIS error is below 1.0E-05
 Requested basis set is G3large
 There are 34 shells and 82 basis functions
 A cutoff of  1.0D-08 yielded    595 shell pairs
 There are   3505 function pairs (  4057 Cartesian)
 Warning!  Inaccurate integrated density:
   Number of electrons =     9
   Numerical integral  =     9.999984183184
   Relative error      =    11.1109353687 %
 ---------------------------------------
  Cycle       Energy         DIIS Error
 ---------------------------------------
    1     -40.5684472028      4.37E-02
    2     -39.9383198626      4.95E-03
    3     -39.9790150059      1.78E-03
    4     -39.9823433567      3.79E-04
    5     -39.9827716077      7.31E-05
    6     -39.9828249528      3.68E-05
    7     -39.9828487038      3.26E-05
    8     -39.9828796939      3.12E-05
    9     -39.9829677537      2.88E-05
   10     -39.9830876953      2.69E-05
   11     -39.9831934857      2.49E-05
   12     -39.9833515432      2.46E-05
   13     -39.9833436155      2.59E-05
   14     -39.9834039045      3.68E-05
   15     -39.9834210773      9.22E-05
   16     -39.9834079891      8.10E-05
   17     -39.9834274079      8.51E-05
   18     -39.9833927449      8.46E-05
   19     -39.9832368256      8.00E-05
   20     -39.9832480530      7.69E-05
   21     -39.9831321787      3.16E-05
   22     -39.9830222029      3.81E-05
   23     -39.9829310154      1.32E-04
   24     -39.9829692716      1.02E-04
   25     -39.9830094568      3.12E-05
   26     -39.9830136409      1.01E-05
   27     -39.9830133902      2.02E-05
   28     -39.9830141192      5.47E-06 Convergence criterion met
 ---------------------------------------
 One-Electron    Energy =   -76.1437204370
 Total Coulomb   Energy =    29.2390818485
 Alpha Exchange  Energy =    -1.7004248724
 Beta  Exchange  Energy =    -1.3570395926
 DFT   Exchange  Energy =    -3.2473952960
 DFT Correlation Energy =    -0.2654529083
 Nuclear Repu.   Energy =    13.4919371385
 Nuclear Attr.   Energy =  -116.1679808487
 Kinetic         Energy =    40.0242604117
 <S^2> = 0.7614
 SCF time:  CPU 42.89 s  wall 44.33 s
 Final Alpha MO Eigenvalues
            1           2           3           4           5           6
    1 -10.7410579  -1.3615065  -1.0252193  -0.9471939  -0.9207865  -0.1361153
            7           8           9          10
    1  -0.0905234  -0.0796765  -0.0773777  -0.0557550
 Final Beta MO Eigenvalues
            1           2           3           4           5           6
    1 -10.7335207  -1.2649395  -0.9134887  -0.9111563  -0.4938560  -0.1319083
            7           8           9
    1  -0.0792463  -0.0792107  -0.0768428
 Analysis of SCF Wavefunction
 
 --------------------------------------------------------------
                    Orbital Energies (a.u.)
 --------------------------------------------------------------
 
 Alpha MOs
 -- Occupied --
-10.741  -1.362  -1.025  -0.947  -0.921
 -- Virtual --
 -0.136  -0.091  -0.080  -0.077  -0.056  -0.054  -0.047  -0.002
  0.031   0.048   0.056   0.139   0.232   0.240   0.258   0.295
  0.312   0.412   0.434   0.443   0.518   0.550   0.695   0.714
  0.731   0.876   0.880   0.892   1.013   1.019   1.023   1.221
  1.231   1.278   1.306   1.328   1.449   2.149   2.177   2.223
  2.305   2.761   2.789   2.818   2.959   2.977   3.025   3.089
  3.103   3.156   3.170   3.181   3.659   3.679   3.706   3.845
  3.940   3.942   4.055   4.083   4.099   4.286   4.310   4.342
  4.750   5.476   5.517   5.567  24.161  27.900  27.919  27.919
 40.854  40.906  41.043  41.082  41.138
 
 Beta MOs
 -- Occupied --
-10.734  -1.265  -0.913  -0.911
 -- Virtual --
 -0.494  -0.132  -0.079  -0.079  -0.077  -0.046  -0.041  -0.040
  0.003   0.057   0.058   0.065   0.146   0.262   0.266   0.270
  0.323   0.332   0.442   0.446   0.456   0.537   0.558   0.718
  0.727   0.737   0.894   0.897   0.897   1.024   1.027   1.030
  1.238   1.239   1.315   1.317   1.331   1.466   2.204   2.217
  2.234   2.317   2.806   2.816   2.829   3.008   3.019   3.026
  3.121   3.123   3.188   3.188   3.192   3.700   3.704   3.715
  3.868   3.974   3.977   4.092   4.108   4.111   4.319   4.332
  4.347   4.779   5.526   5.549   5.571  24.169  27.921  27.921
 27.923  40.869  40.912  41.051  41.093  41.148
 --------------------------------------------------------------
 
          Ground-State Mulliken Net Atomic Charges

     Atom                 Charge (a.u.)    Spin (a.u.)
  --------------------------------------------------------
      1 C                     0.043450       0.431635
      2 H                     0.159027      -0.014763
      3 H                     0.319029       0.298504
      4 H                     0.319503       0.299414
      5 H                     0.158992      -0.014791
  --------------------------------------------------------
  Sum of atomic charges =     1.000000
  Sum of spin   charges =     1.000000

 -----------------------------------------------------------------
                    Cartesian Multipole Moments
 -----------------------------------------------------------------
    Charge (ESU x 10^10)
                 4.8032
    Dipole Moment (Debye)
         X       0.3132      Y       0.5460      Z      -0.4450
       Tot       0.7708
    Quadrupole Moments (Debye-Ang)
        XX      -3.6505     XY      -0.8696     YY      -4.6502
        XZ      -0.1098     YZ      -0.1939     ZZ      -5.3107
    Octapole Moments (Debye-Ang^2)
       XXX       2.1466    XXY       0.2302    XYY      -1.6180
       YYY       0.6906    XXZ      -1.3380    XYZ       0.1509
       YYZ      -1.1650    XZZ       0.0710    YZZ       0.1235
       ZZZ       1.6510
    Hexadecapole Moments (Debye-Ang^3)
      XXXX      -6.0593   XXXY      -0.7399   XXYY      -2.3421
      XYYY      -0.8074   YYYY      -7.8384   XXXZ      -0.8833
      XXYZ      -0.0745   XYYZ       0.7137   YYYZ      -0.2236
      XXZZ      -3.0207   XYZZ      -0.2450   YYZZ      -3.3024
      XZZZ      -0.0840   YZZZ      -0.1485   ZZZZ      -8.5595
 -----------------------------------------------------------------
 Total job time:  44.41s(wall), 42.97s(cpu) 
 Wed May 22 10:53:34 2013

        *************************************************************
        *                                                           *
        *  Thank you very much for using Q-Chem.  Have a nice day.  *
        *                                                           *
        *************************************************************


0 sent ACK to 0 
now end server 0 ... 
