Process 0 of 1 is on cl114.stfx.acenet.ca - thread support 1
initial socket setup ...start
initial socket setup ...done 
now start server 0 ... 

cmd = /usr/bin/ssh clhead /usr/local/qchem/bin/get_hostid 1406925929 > /scratch/tmp/6065302.1.short.q/qchem1456/lic.dat
                  Welcome to Q-Chem
     A Quantum Leap Into The Future Of Chemistry

 Y. Shao, L. Fusti-Molnar, Y. Jung, J. Kussmann, C. Ochsenfeld,
 S. T. Brown, A. T. B. Gilbert, L. V. Slipchenko,S. V. Levchenko,
 D. P. O'Neill, R. A. DiStasio Jr., R. C. Lochan, T. Wang,
 G. J. O. Beran, N. A. Besley, J. M. Herbert, C. Y. Lin,
 T. Van Voorhis, S. H. Chien, A. Sodt, R. P. Steele, 
 V. A. Rassolov, P. E. Maslen, P. P. Korambath, R. D. Adamson,
 B. Austin, J. Baker, E. F. C. Byrd, H. Dachsel, R. J. Doerksen,
 A. Dreuw, B. D. Dunietz, A. D. Dutoi, T. R. Furlani,
 S. R. Gwaltney, A. Heyden, S. Hirata, C.-P. Hsu, G. Kedziora,
 R. Z. Khaliullin, P. Klunzinger, A. M. Lee, M. S. Lee, W. Liang,
 I. Lotan, N. Nair, B. Peters, E. I. Proynov, P. A. Pieniazek, 
 Y. M. Rhee, J. Ritchie, E. Rosta, C. D. Sherrill, 
 A. C. Simmonett, J. E. Subotnik, H. L. Woodcock III,
 W. Zhang, A. T. Bell, A. K. Chakraborty, D. M. Chipman,
 F. J. Keil, A. Warshel, W. J. Hehre, H. F. Schaefer III,
 J. Kong, A. I. Krylov, P. M. W. Gill, M. Head-Gordon,
 Q-Chem, Version 3.1, Q-Chem, Inc., Pittsburgh, PA (2007).

 Additional authors for Version 3.1: 
 Z. Gan, Y. Zhao, N. E. Schultz, D. Truhlar, E. Epifanovsky and M. Oana.

 Additional authors for Version 3.2: 
 R. Baer, B. R. Brooks, D. Casanova, J.-D. Chai, C.-L. Cheng, 
 C. Cramer, D. Crittenden, A. Ghysels, G. Hawkins, E. G. Hohenstein, 
 C. Kelley, W. Kurlancheek, D. Liotard, E. Livshits, P. Manohar, 
 A. Marenich, D. Neuhauser, R. Olson, M. A. Rohrdanz, K. S. Thanthiriwatte, 
 A. J. W. Thom, V. Vanovschi, C. F. Williams, Q. Wu and Z.-Q. You. 


 Intel X86 Linux Version

 Q-chem begins on Mon Jul  8 16:58:34 2013  

 Parallel job on  1  processors
Processing $rem in /usr/local/qchem/config/preferences.

theFileMan(): MAXOPENFILES=974 MAX_SUB_FILE_NUM=16
Maximum size of a physical file is 2.0 GB, maximum size of a tmp-file is 32.0 GB


--------------------------------------------------------------
User input:
--------------------------------------------------------------

$molecule
-1,2
C          0.00060        0.00000        0.00599
C         -0.00144        0.00000        1.51271
O          1.34262        0.00000        1.95481
H          1.36080        0.00000        2.91219
H         -0.52814        0.88506        1.88809
H         -0.52814       -0.88506        1.88809
H         -1.01948        0.00000       -0.37883
H          0.51474        0.88308       -0.37260
H          0.51474       -0.88308       -0.37260
$end

$comment
negative
$end

$xc_functional
C PBE   1.00
X wPBE  1.00
$end

$rem
SYMMETRY_DECOMPOSITION	0
exchange 		general
LRC_DFT                 true
BASIS                   g3large
omega			450
mem_static              760
max_scf_cycles          200
scf_final_print         1
sym_ignore              true
$end

--------------------------------------------------------------
 Writing REM_CC_EA            9
 ----------------------------------------------------
       Standard Nuclear Orientation (Angstroms)
    I     Atom         X            Y            Z
 ----------------------------------------------------
    1      C       0.000600     0.000000     0.005990
    2      C      -0.001440     0.000000     1.512710
    3      O       1.342620     0.000000     1.954810
    4      H       1.360800     0.000000     2.912190
    5      H      -0.528140     0.885060     1.888090
    6      H      -0.528140    -0.885060     1.888090
    7      H      -1.019480     0.000000    -0.378830
    8      H       0.514740     0.883080    -0.372600
    9      H       0.514740    -0.883080    -0.372600
 ----------------------------------------------------
 Nuclear Repulsion Energy =    82.1703385088 hartrees
 There are       14 alpha and       13 beta electrons
 Requested basis set is G3large
 There are 66 shells and 186 basis functions

Total QAlloc Memory Limit   2000 MB
Mega-Array Size       743 MB
MEM_STATIC part       760 MB

                       Distance Matrix (Angstroms)
             C (  1)   C (  2)   O (  3)   H (  4)   H (  5)   H (  6)
   C (  2)  1.506721
   O (  3)  2.366203  1.414903
   H (  4)  3.208760  1.953008  0.957553
   H (  5)  2.145972  1.096200  2.070634  2.323834
   H (  6)  2.145972  1.096200  2.070634  2.323834  1.770120
   H (  7)  1.090252  2.148099  3.320451  4.061594  2.482674  2.482674
   H (  8)  1.089725  2.144916  2.623367  3.505067  2.489643  3.053627
   H (  9)  1.089725  2.144916  2.623367  3.505067  3.053627  2.489643
             H (  7)   H (  8)
   H (  8)  1.770226
   H (  9)  1.770226  1.766160
 
 A cutoff of  1.0D-08 yielded   2117 shell pairs
 There are  16833 function pairs ( 20304 Cartesian)
Evaluating contribution to one-electron hamiltonian from nuclear
 Smallest overlap matrix eigenvalue = 9.78E-05

 Q-Chem warning in module mkSTV.C, line 194:

 Overlap eigenvalue is smaller than square root of threshold

 Multipole matrices computed through 2nd order

  Scale SEOQF with 1.000000e-01/1.000000e-01/1.000000e-01

 Standard Electronic Orientation quadrupole field applied
 Nucleus-field energy     =    -0.0000000056 hartrees
 Guess from superposition of atomic densities
 Warning:  Energy on first SCF cycle will be non-variational
 Long-range K will be added via erf
 Coulomb attenuation parameter = 0.45 bohr**(-1)
 An unrestricted Kohn-Sham SCF calculation will be
 performed using Pulay DIIS extrapolation
 Exchange:  wPBE + LR-HF      Correlation:  PBE
 Using SG-1 standard quadrature grid
 SCF converges when DIIS error is below 1.0E-05
 Requested basis set is G3large
 There are 66 shells and 186 basis functions
 A cutoff of  1.0D-08 yielded   2117 shell pairs
 There are  16833 function pairs ( 20304 Cartesian)
 Warning!  Inaccurate integrated density:
   Number of electrons =    27
   Numerical integral  =    25.999923725395
   Relative error      =    -3.7039862022 %
 ---------------------------------------
  Cycle       Energy         DIIS Error
 ---------------------------------------
    1    -155.5979493022      3.22E-02
    2    -154.8724953185      4.38E-03
    3    -154.9185261306      4.09E-03
    4    -154.9694924066      4.93E-04
    5    -154.9724749437      2.43E-04
    6    -154.9734886136      7.36E-05
    7    -154.9738918156      3.42E-05
    8    -154.9740755431      2.09E-05
    9    -154.9741761918      1.44E-05
   10    -154.9742260851      7.84E-06 Convergence criterion met
 ---------------------------------------
 One-Electron    Energy =  -376.1979644663
 Total Coulomb   Energy =   160.7686684633
 Alpha Exchange  Energy =    -2.9228062712
 Beta  Exchange  Energy =    -2.8514932457
 DFT   Exchange  Energy =   -15.0881218568
 DFT Correlation Energy =    -0.8528472117
 Nuclear Repu.   Energy =    82.1703385033
 Nuclear Attr.   Energy =  -530.6211391280
 Kinetic         Energy =   154.4231746617
 <S^2> = 0.7501
 SCF time:  CPU 115.50 s  wall 116.28 s
 Final Alpha MO Eigenvalues
            1           2           3           4           5           6
    1 -18.8355441 -10.0286320  -9.9885966  -1.0355624  -0.7863250  -0.6311244
            7           8           9          10          11          12
    1  -0.5217556  -0.4743473  -0.4050619  -0.3860844  -0.3668573  -0.3225303
           13          14          15          16          17          18
    1  -0.2600516   0.0271533   0.1355624   0.1479270   0.1495684   0.1802237
           19
    1   0.1878394
 Final Beta MO Eigenvalues
            1           2           3           4           5           6
    1 -18.8352682 -10.0281729  -9.9885321  -1.0348195  -0.7855822  -0.6298325
            7           8           9          10          11          12
    1  -0.5195301  -0.4740016  -0.4045018  -0.3857144  -0.3666747  -0.3216203
           13          14          15          16          17          18
    1  -0.2596996   0.1358757   0.1559229   0.1595290   0.1618288   0.1880728
 Analysis of SCF Wavefunction
 
 --------------------------------------------------------------
                    Orbital Energies (a.u.)
 --------------------------------------------------------------
 
 Alpha MOs
 -- Occupied --
-18.836 -10.029  -9.989  -1.036  -0.786  -0.631  -0.522  -0.474
 -0.405  -0.386  -0.367  -0.323  -0.260   0.027
 -- Virtual --
  0.136   0.148   0.150   0.180   0.188   0.235   0.250   0.251
  0.266   0.282   0.289   0.303   0.307   0.380   0.383   0.401
  0.426   0.427   0.445   0.466   0.477   0.482   0.499   0.547
  0.589   0.647   0.652   0.682   0.696   0.752   0.785   0.791
  0.794   0.807   0.837   0.846   0.860   0.877   0.897   0.981
  0.992   1.060   1.067   1.121   1.122   1.173   1.274   1.285
  1.304   1.315   1.374   1.388   1.410   1.411   1.444   1.455
  1.506   1.551   1.556   1.575   1.622   1.663   1.668   1.694
  1.706   1.725   1.742   1.787   1.809   1.850   1.982   2.119
  2.272   2.321   2.499   2.598   2.657   2.730   2.801   2.849
  2.863   3.014   3.087   3.094   3.106   3.182   3.287   3.316
  3.333   3.334   3.455   3.463   3.475   3.536   3.575   3.636
  3.673   3.784   3.787   3.791   3.805   3.852   3.920   3.985
  4.016   4.090   4.138   4.188   4.249   4.288   4.307   4.313
  4.429   4.474   4.486   4.514   4.521   4.587   4.618   4.709
  4.718   4.765   4.839   4.842   4.916   5.271   5.415   5.445
  5.462   5.599   5.727   5.746   5.813   5.856   5.924   5.924
  6.124   6.210   6.697   7.233   7.423   7.459   7.490   7.803
  7.912  24.362  24.545  27.847  28.220  28.251  28.304  28.329
 28.538  41.097  41.126  41.148  41.248  41.323  41.362  41.371
 41.404  41.408  41.448  44.002  44.013  44.065  44.125  44.167
 45.849  46.166  46.588  50.051
 
 Beta MOs
 -- Occupied --
-18.835 -10.028  -9.989  -1.035  -0.786  -0.630  -0.520  -0.474
 -0.405  -0.386  -0.367  -0.322  -0.260
 -- Virtual --
  0.136   0.156   0.160   0.162   0.188   0.193   0.237   0.249
  0.250   0.266   0.283   0.290   0.306   0.306   0.380   0.383
  0.402   0.425   0.426   0.445   0.465   0.475   0.480   0.495
  0.545   0.588   0.646   0.651   0.682   0.695   0.750   0.784
  0.790   0.793   0.805   0.837   0.845   0.858   0.877   0.896
  0.983   0.992   1.061   1.067   1.121   1.122   1.173   1.273
  1.285   1.304   1.315   1.374   1.388   1.410   1.411   1.444
  1.455   1.507   1.552   1.556   1.574   1.622   1.663   1.667
  1.693   1.706   1.725   1.742   1.786   1.809   1.850   1.982
  2.120   2.272   2.322   2.500   2.599   2.657   2.730   2.801
  2.849   2.863   3.013   3.087   3.094   3.107   3.182   3.288
  3.317   3.333   3.335   3.455   3.463   3.475   3.536   3.576
  3.636   3.673   3.784   3.787   3.792   3.805   3.853   3.921
  3.985   4.016   4.091   4.138   4.188   4.249   4.288   4.307
  4.314   4.429   4.475   4.486   4.515   4.521   4.588   4.618
  4.709   4.718   4.765   4.839   4.842   4.916   5.271   5.415
  5.446   5.462   5.599   5.727   5.747   5.813   5.857   5.924
  5.924   6.124   6.211   6.698   7.233   7.423   7.460   7.491
  7.804   7.913  24.363  24.545  27.847  28.221  28.251  28.304
 28.330  28.539  41.098  41.127  41.148  41.249  41.323  41.362
 41.372  41.404  41.408  41.448  44.002  44.013  44.065  44.125
 44.167  45.849  46.166  46.589  50.051
 --------------------------------------------------------------
 
          Ground-State Mulliken Net Atomic Charges

     Atom                 Charge (a.u.)    Spin (a.u.)
  --------------------------------------------------------
      1 C                    -0.611930       0.383371
      2 C                     3.170130      -3.283220
      3 O                    -0.495790       0.169131
      4 H                    -0.588174       0.862733
      5 H                    -1.177945       1.263367
      6 H                    -1.187858       1.273527
      7 H                    -0.116539       0.178305
      8 H                     0.004624       0.075787
      9 H                     0.003482       0.076999
  --------------------------------------------------------
  Sum of atomic charges =    -1.000000
  Sum of spin   charges =     1.000000

 -----------------------------------------------------------------
                    Cartesian Multipole Moments
 -----------------------------------------------------------------
    Charge (ESU x 10^10)
                -4.8032
    Dipole Moment (Debye)
         X      -0.2205      Y       0.0296      Z     -13.2159
       Tot      13.2178
    Quadrupole Moments (Debye-Ang)
        XX     -47.0297     XY      -0.0267     YY     -43.9670
        XZ      -2.7286     YZ       0.0677     ZZ     -76.2243
    Octapole Moments (Debye-Ang^2)
       XXX     -15.7334    XXY       0.1191    XYY       1.2014
       YYY       0.3340    XXZ     -88.9439    XYZ      -0.0540
       YYZ     -83.6563    XZZ     -17.4340    YZZ       0.2601
       ZZZ    -321.2419
    Hexadecapole Moments (Debye-Ang^3)
      XXXX    -395.2103   XXXY      -0.2183   XXYY    -119.4969
      XYYY      -0.2473   YYYY    -308.3970   XXXZ     -73.6942
      XXYZ       0.2422   XYYZ     -12.6541   YYYZ       0.6828
      XXZZ    -319.7783   XYZZ      -0.1705   YYZZ    -291.2877
      XZZZ    -120.4456   YZZZ       0.9949   ZZZZ   -1585.4109
 -----------------------------------------------------------------
 Total job time:  116.50s(wall), 115.70s(cpu) 
 Mon Jul  8 17:00:30 2013

        *************************************************************
        *                                                           *
        *  Thank you very much for using Q-Chem.  Have a nice day.  *
        *                                                           *
        *************************************************************


0 sent ACK to 0 
now end server 0 ... 
 
**********************************************************************
Job 2 of 3 
**********************************************************************
 
Process 0 of 1 is on cl114.stfx.acenet.ca - thread support 1
initial socket setup ...start
initial socket setup ...done 
now start server 0 ... 

cmd = /usr/bin/ssh clhead /usr/local/qchem/bin/get_hostid 1409831713 > /scratch/tmp/6065302.1.short.q/qchem1456/lic.dat
                  Welcome to Q-Chem
     A Quantum Leap Into The Future Of Chemistry

 Y. Shao, L. Fusti-Molnar, Y. Jung, J. Kussmann, C. Ochsenfeld,
 S. T. Brown, A. T. B. Gilbert, L. V. Slipchenko,S. V. Levchenko,
 D. P. O'Neill, R. A. DiStasio Jr., R. C. Lochan, T. Wang,
 G. J. O. Beran, N. A. Besley, J. M. Herbert, C. Y. Lin,
 T. Van Voorhis, S. H. Chien, A. Sodt, R. P. Steele, 
 V. A. Rassolov, P. E. Maslen, P. P. Korambath, R. D. Adamson,
 B. Austin, J. Baker, E. F. C. Byrd, H. Dachsel, R. J. Doerksen,
 A. Dreuw, B. D. Dunietz, A. D. Dutoi, T. R. Furlani,
 S. R. Gwaltney, A. Heyden, S. Hirata, C.-P. Hsu, G. Kedziora,
 R. Z. Khaliullin, P. Klunzinger, A. M. Lee, M. S. Lee, W. Liang,
 I. Lotan, N. Nair, B. Peters, E. I. Proynov, P. A. Pieniazek, 
 Y. M. Rhee, J. Ritchie, E. Rosta, C. D. Sherrill, 
 A. C. Simmonett, J. E. Subotnik, H. L. Woodcock III,
 W. Zhang, A. T. Bell, A. K. Chakraborty, D. M. Chipman,
 F. J. Keil, A. Warshel, W. J. Hehre, H. F. Schaefer III,
 J. Kong, A. I. Krylov, P. M. W. Gill, M. Head-Gordon,
 Q-Chem, Version 3.1, Q-Chem, Inc., Pittsburgh, PA (2007).

 Additional authors for Version 3.1: 
 Z. Gan, Y. Zhao, N. E. Schultz, D. Truhlar, E. Epifanovsky and M. Oana.

 Additional authors for Version 3.2: 
 R. Baer, B. R. Brooks, D. Casanova, J.-D. Chai, C.-L. Cheng, 
 C. Cramer, D. Crittenden, A. Ghysels, G. Hawkins, E. G. Hohenstein, 
 C. Kelley, W. Kurlancheek, D. Liotard, E. Livshits, P. Manohar, 
 A. Marenich, D. Neuhauser, R. Olson, M. A. Rohrdanz, K. S. Thanthiriwatte, 
 A. J. W. Thom, V. Vanovschi, C. F. Williams, Q. Wu and Z.-Q. You. 


 Intel X86 Linux Version

 Q-chem begins on Mon Jul  8 17:00:33 2013  

 Parallel job on  1  processors
Processing $rem in /usr/local/qchem/config/preferences.

theFileMan(): MAXOPENFILES=974 MAX_SUB_FILE_NUM=16
Maximum size of a physical file is 2.0 GB, maximum size of a tmp-file is 32.0 GB


--------------------------------------------------------------
User input:
--------------------------------------------------------------

$molecule
0,1
C          0.00060        0.00000        0.00599
C         -0.00144        0.00000        1.51271
O          1.34262        0.00000        1.95481
H          1.36080        0.00000        2.91219
H         -0.52814        0.88506        1.88809
H         -0.52814       -0.88506        1.88809
H         -1.01948        0.00000       -0.37883
H          0.51474        0.88308       -0.37260
H          0.51474       -0.88308       -0.37260
$end

$comment
neutral
$end

$xc_functional
C PBE   1.00
X wPBE  1.00
$end


$rem
SYMMETRY_DECOMPOSITION	0
LRC_DFT                 true
exchange 		general
BASIS                   g3large
omega			450
mem_static              760
max_scf_cycles          200
scf_final_print         1
sym_ignore              true
$end

--------------------------------------------------------------
 Writing REM_CC_EA            9
 ----------------------------------------------------
       Standard Nuclear Orientation (Angstroms)
    I     Atom         X            Y            Z
 ----------------------------------------------------
    1      C       0.000600     0.000000     0.005990
    2      C      -0.001440     0.000000     1.512710
    3      O       1.342620     0.000000     1.954810
    4      H       1.360800     0.000000     2.912190
    5      H      -0.528140     0.885060     1.888090
    6      H      -0.528140    -0.885060     1.888090
    7      H      -1.019480     0.000000    -0.378830
    8      H       0.514740     0.883080    -0.372600
    9      H       0.514740    -0.883080    -0.372600
 ----------------------------------------------------
 Nuclear Repulsion Energy =    82.1703385088 hartrees
 There are       13 alpha and       13 beta electrons
 Requested basis set is G3large
 There are 66 shells and 186 basis functions

Total QAlloc Memory Limit   2000 MB
Mega-Array Size       743 MB
MEM_STATIC part       760 MB

                       Distance Matrix (Angstroms)
             C (  1)   C (  2)   O (  3)   H (  4)   H (  5)   H (  6)
   C (  2)  1.506721
   O (  3)  2.366203  1.414903
   H (  4)  3.208760  1.953008  0.957553
   H (  5)  2.145972  1.096200  2.070634  2.323834
   H (  6)  2.145972  1.096200  2.070634  2.323834  1.770120
   H (  7)  1.090252  2.148099  3.320451  4.061594  2.482674  2.482674
   H (  8)  1.089725  2.144916  2.623367  3.505067  2.489643  3.053627
   H (  9)  1.089725  2.144916  2.623367  3.505067  3.053627  2.489643
             H (  7)   H (  8)
   H (  8)  1.770226
   H (  9)  1.770226  1.766160
 
 A cutoff of  1.0D-08 yielded   2117 shell pairs
 There are  16833 function pairs ( 20304 Cartesian)
Evaluating contribution to one-electron hamiltonian from nuclear
 Smallest overlap matrix eigenvalue = 9.78E-05

 Q-Chem warning in module mkSTV.C, line 194:

 Overlap eigenvalue is smaller than square root of threshold

 Multipole matrices computed through 2nd order

  Scale SEOQF with 1.000000e-01/1.000000e-01/1.000000e-01

 Standard Electronic Orientation quadrupole field applied
 Nucleus-field energy     =    -0.0000000056 hartrees
 Guess from superposition of atomic densities
 Warning:  Energy on first SCF cycle will be non-variational
 Long-range K will be added via erf
 Coulomb attenuation parameter = 0.45 bohr**(-1)
 A restricted Kohn-Sham SCF calculation will be
 performed using Pulay DIIS extrapolation
 Exchange:  wPBE + LR-HF      Correlation:  PBE
 Using SG-1 standard quadrature grid
 SCF converges when DIIS error is below 1.0E-05
 Requested basis set is G3large
 There are 66 shells and 186 basis functions
 A cutoff of  1.0D-08 yielded   2117 shell pairs
 There are  16833 function pairs ( 20304 Cartesian)
 ---------------------------------------
  Cycle       Energy         DIIS Error
 ---------------------------------------
    1    -155.5979493022      3.22E-02
    2    -154.9409942123      4.08E-03
    3    -154.9731829265      3.38E-03
    4    -155.0048490872      4.91E-04
    5    -155.0056982804      1.69E-04
    6    -155.0058328438      3.95E-05
    7    -155.0058408619      7.49E-06 Convergence criterion met
 ---------------------------------------
 One-Electron    Energy =  -372.6445533465
 Total Coulomb   Energy =   157.1027433670
 Alpha Exchange  Energy =    -2.8531146896
 Beta  Exchange  Energy =    -2.8531146896
 DFT   Exchange  Energy =   -15.0828525153
 DFT Correlation Energy =    -0.8452874911
 Nuclear Repu.   Energy =    82.1703385033
 Nuclear Attr.   Energy =  -527.0092851263
 Kinetic         Energy =   154.3647317798
 SCF time:  CPU 63.99 s  wall 64.49 s
 Final Alpha MO Eigenvalues
            1           2           3           4           5           6
    1 -18.9817504 -10.1739700 -10.1137254  -1.1814403  -0.9193979  -0.7674519
            7           8           9          10          11          12
    1  -0.6643586  -0.6128912  -0.5412490  -0.5140567  -0.4975521  -0.4626492
           13          14          15          16          17          18
    1  -0.4048241   0.0380303   0.0541467   0.0631098   0.0650740   0.0877567
 Analysis of SCF Wavefunction
 
 --------------------------------------------------------------
                    Orbital Energies (a.u.)
 --------------------------------------------------------------
 
 Alpha MOs
 -- Occupied --
-18.982 -10.174 -10.114  -1.181  -0.919  -0.767  -0.664  -0.613
 -0.541  -0.514  -0.498  -0.463  -0.405
 -- Virtual --
  0.038   0.054   0.063   0.065   0.088   0.097   0.133   0.144
  0.149   0.155   0.179   0.182   0.197   0.198   0.260   0.264
  0.271   0.298   0.303   0.315   0.341   0.350   0.361   0.378
  0.420   0.460   0.526   0.527   0.554   0.566   0.623   0.652
  0.661   0.665   0.680   0.697   0.711   0.722   0.745   0.778
  0.833   0.864   0.926   0.933   0.979   1.001   1.044   1.138
  1.147   1.167   1.188   1.233   1.250   1.283   1.283   1.310
  1.321   1.377   1.415   1.423   1.439   1.483   1.526   1.532
  1.569   1.569   1.591   1.606   1.655   1.675   1.721   1.845
  1.975   2.129   2.179   2.357   2.453   2.523   2.598   2.663
  2.721   2.727   2.874   2.952   2.957   2.970   3.057   3.152
  3.178   3.200   3.202   3.323   3.328   3.342   3.401   3.441
  3.500   3.535   3.647   3.652   3.659   3.671   3.711   3.782
  3.840   3.876   3.951   4.006   4.058   4.116   4.150   4.171
  4.177   4.290   4.333   4.359   4.382   4.383   4.443   4.479
  4.577   4.584   4.632   4.708   4.710   4.780   5.127   5.277
  5.302   5.317   5.460   5.587   5.603   5.666   5.713   5.797
  5.797   5.980   6.067   6.553   7.088   7.278   7.311   7.346
  7.659   7.768  24.229  24.407  27.711  28.075  28.113  28.179
 28.197  28.404  40.959  40.983  41.022  41.116  41.178  41.226
 41.235  41.263  41.278  41.323  43.856  43.867  43.919  43.978
 44.021  45.703  46.020  46.442  49.905
 --------------------------------------------------------------
 
          Ground-State Mulliken Net Atomic Charges

     Atom                 Charge (a.u.)
  ----------------------------------------
      1 C                    -0.217951
      2 C                    -0.129024
      3 O                    -0.304105
      4 H                     0.247598
      5 H                     0.074288
      6 H                     0.074430
      7 H                     0.066488
      8 H                     0.094231
      9 H                     0.094045
  ----------------------------------------
  Sum of atomic charges =     0.000000

 -----------------------------------------------------------------
                    Cartesian Multipole Moments
 -----------------------------------------------------------------
    Charge (ESU x 10^10)
                 0.0000
    Dipole Moment (Debye)
         X      -1.3860      Y       0.0000      Z       0.9459
       Tot       1.6781
    Quadrupole Moments (Debye-Ang)
        XX     -22.6991     XY       0.0011     YY     -20.0823
        XZ      -0.6089     YZ      -0.0010     ZZ     -13.9012
    Octapole Moments (Debye-Ang^2)
       XXX     -27.7200    XXY       0.0006    XYY      -8.0458
       YYY      -0.0004    XXZ     -24.2853    XYZ       0.0013
       YYZ     -22.6052    XZZ      -1.4910    YZZ      -0.0023
       ZZZ     -39.3354
    Hexadecapole Moments (Debye-Ang^3)
      XXXX    -105.5967   XXXY       0.0031   XXYY     -23.3279
      XYYY       0.0036   YYYY     -33.7561   XXXZ     -48.8711
      XXYZ       0.0002   XYYZ     -18.2254   YYYZ      -0.0041
      XXZZ     -55.7898   XYZZ       0.0036   YYZZ     -52.5902
      XZZZ     -12.3227   YZZZ      -0.0074   ZZZZ    -182.0523
 -----------------------------------------------------------------
 Total job time:  64.68s(wall), 64.18s(cpu) 
 Mon Jul  8 17:01:38 2013

        *************************************************************
        *                                                           *
        *  Thank you very much for using Q-Chem.  Have a nice day.  *
        *                                                           *
        *************************************************************


0 sent ACK to 0 
now end server 0 ... 
 
**********************************************************************
Job 3 of 3 
**********************************************************************
 
Process 0 of 1 is on cl114.stfx.acenet.ca - thread support 1
initial socket setup ...start
initial socket setup ...done 
now start server 0 ... 

cmd = /usr/bin/ssh clhead /usr/local/qchem/bin/get_hostid 364991715 > /scratch/tmp/6065302.1.short.q/qchem1456/lic.dat
                  Welcome to Q-Chem
     A Quantum Leap Into The Future Of Chemistry

 Y. Shao, L. Fusti-Molnar, Y. Jung, J. Kussmann, C. Ochsenfeld,
 S. T. Brown, A. T. B. Gilbert, L. V. Slipchenko,S. V. Levchenko,
 D. P. O'Neill, R. A. DiStasio Jr., R. C. Lochan, T. Wang,
 G. J. O. Beran, N. A. Besley, J. M. Herbert, C. Y. Lin,
 T. Van Voorhis, S. H. Chien, A. Sodt, R. P. Steele, 
 V. A. Rassolov, P. E. Maslen, P. P. Korambath, R. D. Adamson,
 B. Austin, J. Baker, E. F. C. Byrd, H. Dachsel, R. J. Doerksen,
 A. Dreuw, B. D. Dunietz, A. D. Dutoi, T. R. Furlani,
 S. R. Gwaltney, A. Heyden, S. Hirata, C.-P. Hsu, G. Kedziora,
 R. Z. Khaliullin, P. Klunzinger, A. M. Lee, M. S. Lee, W. Liang,
 I. Lotan, N. Nair, B. Peters, E. I. Proynov, P. A. Pieniazek, 
 Y. M. Rhee, J. Ritchie, E. Rosta, C. D. Sherrill, 
 A. C. Simmonett, J. E. Subotnik, H. L. Woodcock III,
 W. Zhang, A. T. Bell, A. K. Chakraborty, D. M. Chipman,
 F. J. Keil, A. Warshel, W. J. Hehre, H. F. Schaefer III,
 J. Kong, A. I. Krylov, P. M. W. Gill, M. Head-Gordon,
 Q-Chem, Version 3.1, Q-Chem, Inc., Pittsburgh, PA (2007).

 Additional authors for Version 3.1: 
 Z. Gan, Y. Zhao, N. E. Schultz, D. Truhlar, E. Epifanovsky and M. Oana.

 Additional authors for Version 3.2: 
 R. Baer, B. R. Brooks, D. Casanova, J.-D. Chai, C.-L. Cheng, 
 C. Cramer, D. Crittenden, A. Ghysels, G. Hawkins, E. G. Hohenstein, 
 C. Kelley, W. Kurlancheek, D. Liotard, E. Livshits, P. Manohar, 
 A. Marenich, D. Neuhauser, R. Olson, M. A. Rohrdanz, K. S. Thanthiriwatte, 
 A. J. W. Thom, V. Vanovschi, C. F. Williams, Q. Wu and Z.-Q. You. 


 Intel X86 Linux Version

 Q-chem begins on Mon Jul  8 17:01:41 2013  

 Parallel job on  1  processors
Processing $rem in /usr/local/qchem/config/preferences.

theFileMan(): MAXOPENFILES=974 MAX_SUB_FILE_NUM=16
Maximum size of a physical file is 2.0 GB, maximum size of a tmp-file is 32.0 GB


--------------------------------------------------------------
User input:
--------------------------------------------------------------

$molecule
1,2
C          0.00060        0.00000        0.00599
C         -0.00144        0.00000        1.51271
O          1.34262        0.00000        1.95481
H          1.36080        0.00000        2.91219
H         -0.52814        0.88506        1.88809
H         -0.52814       -0.88506        1.88809
H         -1.01948        0.00000       -0.37883
H          0.51474        0.88308       -0.37260
H          0.51474       -0.88308       -0.37260
$end

$comment
positive
$end

$xc_functional
C PBE   1.00
X wPBE  1.00
$end

$rem
SYMMETRY_DECOMPOSITION	0
LRC_DFT                 true
exchange 		general
BASIS                   g3large
omega			450
mem_static              760
max_scf_cycles          200
scf_final_print         1
sym_ignore              true
$end

--------------------------------------------------------------
 Writing REM_CC_EA            9
 ----------------------------------------------------
       Standard Nuclear Orientation (Angstroms)
    I     Atom         X            Y            Z
 ----------------------------------------------------
    1      C       0.000600     0.000000     0.005990
    2      C      -0.001440     0.000000     1.512710
    3      O       1.342620     0.000000     1.954810
    4      H       1.360800     0.000000     2.912190
    5      H      -0.528140     0.885060     1.888090
    6      H      -0.528140    -0.885060     1.888090
    7      H      -1.019480     0.000000    -0.378830
    8      H       0.514740     0.883080    -0.372600
    9      H       0.514740    -0.883080    -0.372600
 ----------------------------------------------------
 Nuclear Repulsion Energy =    82.1703385088 hartrees
 There are       13 alpha and       12 beta electrons
 Requested basis set is G3large
 There are 66 shells and 186 basis functions

Total QAlloc Memory Limit   2000 MB
Mega-Array Size       743 MB
MEM_STATIC part       760 MB

                       Distance Matrix (Angstroms)
             C (  1)   C (  2)   O (  3)   H (  4)   H (  5)   H (  6)
   C (  2)  1.506721
   O (  3)  2.366203  1.414903
   H (  4)  3.208760  1.953008  0.957553
   H (  5)  2.145972  1.096200  2.070634  2.323834
   H (  6)  2.145972  1.096200  2.070634  2.323834  1.770120
   H (  7)  1.090252  2.148099  3.320451  4.061594  2.482674  2.482674
   H (  8)  1.089725  2.144916  2.623367  3.505067  2.489643  3.053627
   H (  9)  1.089725  2.144916  2.623367  3.505067  3.053627  2.489643
             H (  7)   H (  8)
   H (  8)  1.770226
   H (  9)  1.770226  1.766160
 
 A cutoff of  1.0D-08 yielded   2117 shell pairs
 There are  16833 function pairs ( 20304 Cartesian)
Evaluating contribution to one-electron hamiltonian from nuclear
 Smallest overlap matrix eigenvalue = 9.78E-05

 Q-Chem warning in module mkSTV.C, line 194:

 Overlap eigenvalue is smaller than square root of threshold

 Multipole matrices computed through 2nd order

  Scale SEOQF with 1.000000e-01/1.000000e-01/1.000000e-01

 Standard Electronic Orientation quadrupole field applied
 Nucleus-field energy     =    -0.0000000056 hartrees
 Guess from superposition of atomic densities
 Warning:  Energy on first SCF cycle will be non-variational
 Long-range K will be added via erf
 Coulomb attenuation parameter = 0.45 bohr**(-1)
 An unrestricted Kohn-Sham SCF calculation will be
 performed using Pulay DIIS extrapolation
 Exchange:  wPBE + LR-HF      Correlation:  PBE
 Using SG-1 standard quadrature grid
 SCF converges when DIIS error is below 1.0E-05
 Requested basis set is G3large
 There are 66 shells and 186 basis functions
 A cutoff of  1.0D-08 yielded   2117 shell pairs
 There are  16833 function pairs ( 20304 Cartesian)
 Warning!  Inaccurate integrated density:
   Number of electrons =    25
   Numerical integral  =    25.999923725395
   Relative error      =     3.9996949016 %
 ---------------------------------------
  Cycle       Energy         DIIS Error
 ---------------------------------------
    1    -155.5979493022      3.22E-02
    2    -154.5396238862      3.25E-03
    3    -154.5907858939      1.67E-03
    4    -154.6024809005      4.44E-04
    5    -154.6050213711      3.10E-04
    6    -154.6059759251      1.34E-04
    7    -154.6070303625      1.42E-04
    8    -154.6081250193      4.72E-05
    9    -154.6083909211      2.05E-05
   10    -154.6084463286      1.39E-05
   11    -154.6084673692      9.97E-06 Convergence criterion met
 ---------------------------------------
 One-Electron    Energy =  -364.9893453514
 Total Coulomb   Energy =   149.4710049114
 Alpha Exchange  Energy =    -2.8773257563
 Beta  Exchange  Energy =    -2.6277772054
 DFT   Exchange  Energy =   -14.9467900149
 DFT Correlation Energy =    -0.8085724559
 Nuclear Repu.   Energy =    82.1703385033
 Nuclear Attr.   Energy =  -519.0355068023
 Kinetic         Energy =   154.0461614509
 <S^2> = 0.7559
 SCF time:  CPU 126.90 s  wall 127.77 s
 Final Alpha MO Eigenvalues
            1           2           3           4           5           6
    1 -19.4100724 -10.4652841 -10.3293708  -1.5675383  -1.1949382  -1.0353320
            7           8           9          10          11          12
    1  -0.9999413  -0.9452818  -0.8691749  -0.8078494  -0.7480270  -0.7302081
           13          14          15          16          17          18
    1  -0.7106872  -0.1345160  -0.0922355  -0.0799844  -0.0741153  -0.0457524
 Final Beta MO Eigenvalues
            1           2           3           4           5           6
    1 -19.3916609 -10.4645023 -10.3293536  -1.5243278  -1.1818830  -1.0275849
            7           8           9          10          11          12
    1  -0.9796645  -0.8626801  -0.8512107  -0.7440408  -0.7267187  -0.7124133
           13          14          15          16          17
    1  -0.3893534  -0.1320742  -0.0901899  -0.0784417  -0.0734819
 Analysis of SCF Wavefunction
 
 --------------------------------------------------------------
                    Orbital Energies (a.u.)
 --------------------------------------------------------------
 
 Alpha MOs
 -- Occupied --
-19.410 -10.465 -10.329  -1.568  -1.195  -1.035  -1.000  -0.945
 -0.869  -0.808  -0.748  -0.730  -0.711
 -- Virtual --
 -0.135  -0.092  -0.080  -0.074  -0.046  -0.032  -0.032  -0.026
 -0.006  -0.001   0.011   0.032   0.040   0.052   0.054   0.057
  0.062   0.105   0.112   0.113   0.127   0.141   0.160   0.207
  0.210   0.238   0.312   0.316   0.346   0.354   0.398   0.420
  0.420   0.449   0.455   0.484   0.491   0.493   0.526   0.560
  0.596   0.639   0.697   0.698   0.725   0.805   0.807   0.869
  0.888   0.916   0.946   0.957   0.982   1.061   1.070   1.080
  1.084   1.136   1.152   1.172   1.210   1.216   1.291   1.292
  1.301   1.365   1.370   1.383   1.424   1.435   1.501   1.564
  1.634   1.820   1.846   2.022   2.147   2.266   2.336   2.419
  2.471   2.486   2.603   2.691   2.701   2.706   2.831   2.893
  2.908   2.938   2.958   3.056   3.079   3.094   3.150   3.191
  3.240   3.266   3.371   3.376   3.405   3.434   3.446   3.514
  3.521   3.620   3.668   3.757   3.821   3.866   3.866   3.921
  3.929   4.010   4.041   4.090   4.145   4.146   4.160   4.207
  4.324   4.329   4.383   4.463   4.479   4.527   4.693   4.895
  4.927   4.969   5.126   5.243   5.305   5.322   5.353   5.550
  5.565   5.653   5.731   6.192   6.651   6.864   6.915   6.932
  7.271   7.388  23.974  24.155  27.453  27.784  27.834  27.964
 27.967  28.156  40.682  40.695  40.806  40.881  40.885  40.936
 40.966  41.024  41.062  41.107  43.410  43.414  43.473  43.562
 43.609  45.252  45.602  46.023  49.480
 
 Beta MOs
 -- Occupied --
-19.392 -10.465 -10.329  -1.524  -1.182  -1.028  -0.980  -0.863
 -0.851  -0.744  -0.727  -0.712
 -- Virtual --
 -0.389  -0.132  -0.090  -0.078  -0.073  -0.045  -0.030  -0.029
 -0.025  -0.003   0.000   0.014   0.034   0.042   0.053   0.056
  0.066   0.068   0.108   0.113   0.117   0.131   0.149   0.162
  0.209   0.212   0.243   0.318   0.323   0.351   0.355   0.401
  0.422   0.432   0.455   0.459   0.487   0.493   0.503   0.529
  0.572   0.597   0.641   0.699   0.704   0.727   0.807   0.811
  0.878   0.906   0.927   0.960   0.976   0.989   1.065   1.074
  1.082   1.086   1.140   1.165   1.178   1.212   1.224   1.299
  1.300   1.309   1.366   1.374   1.387   1.430   1.438   1.510
  1.580   1.667   1.829   1.876   2.051   2.152   2.279   2.344
  2.420   2.478   2.492   2.608   2.694   2.707   2.710   2.836
  2.897   2.916   2.948   2.960   3.067   3.082   3.096   3.158
  3.193   3.241   3.274   3.377   3.380   3.409   3.437   3.448
  3.517   3.530   3.626   3.678   3.762   3.823   3.873   3.877
  3.928   3.932   4.018   4.051   4.110   4.149   4.156   4.164
  4.219   4.334   4.336   4.392   4.472   4.481   4.538   4.782
  4.944   4.970   5.001   5.157   5.258   5.332   5.342   5.390
  5.564   5.567   5.676   5.737   6.210   6.730   6.920   6.962
  6.991   7.305   7.403  23.974  24.156  27.453  27.784  27.838
 27.964  27.968  28.156  40.685  40.695  40.806  40.881  40.888
 40.935  40.969  41.024  41.062  41.107  43.457  43.470  43.520
 43.573  43.614  45.307  45.614  46.036  49.498
 --------------------------------------------------------------
 
          Ground-State Mulliken Net Atomic Charges

     Atom                 Charge (a.u.)    Spin (a.u.)
  --------------------------------------------------------
      1 C                    -0.186133      -0.004438
      2 C                    -0.198885       0.004378
      3 O                     0.213360       0.745719
      4 H                     0.329158      -0.014916
      5 H                     0.220270       0.121966
      6 H                     0.219261       0.119159
      7 H                     0.121986      -0.000319
      8 H                     0.140469       0.013976
      9 H                     0.140514       0.014473
  --------------------------------------------------------
  Sum of atomic charges =     1.000000
  Sum of spin   charges =     1.000000

 -----------------------------------------------------------------
                    Cartesian Multipole Moments
 -----------------------------------------------------------------
    Charge (ESU x 10^10)
                 4.8032
    Dipole Moment (Debye)
         X       1.4699      Y       0.0006      Z       8.7525
       Tot       8.8751
    Quadrupole Moments (Debye-Ang)
        XX     -13.8666     XY      -0.0118     YY     -15.5935
        XZ       5.8932     YZ       0.0074     ZZ       5.6344
    Octapole Moments (Debye-Ang^2)
       XXX     -16.9822    XXY      -0.0114    XYY      -6.4983
       YYY       0.0025    XXZ      -8.5498    XYZ      -0.0184
       YYZ     -15.9483    XZZ      14.0983    YZZ       0.0181
       ZZZ       5.4838
    Hexadecapole Moments (Debye-Ang^3)
      XXXX     -75.4824   XXXY      -0.0333   XXYY     -16.4039
      XYYY      -0.0107   YYYY     -24.3162   XXXZ     -25.7918
      XXYZ      -0.0150   XYYZ     -15.4563   YYYZ       0.0096
      XXZZ     -18.3544   XYZZ      -0.0314   YYZZ     -36.4704
      XZZZ      28.2659   YZZZ       0.0522   ZZZZ     -61.1353
 -----------------------------------------------------------------
 Total job time:  127.98s(wall), 127.10s(cpu) 
 Mon Jul  8 17:03:49 2013

        *************************************************************
        *                                                           *
        *  Thank you very much for using Q-Chem.  Have a nice day.  *
        *                                                           *
        *************************************************************


0 sent ACK to 0 
now end server 0 ... 
