Process 0 of 1 is on cl008.stfx.acenet.ca - thread support 1
initial socket setup ...start
initial socket setup ...done 
now start server 0 ... 

cmd = /usr/bin/ssh clhead /usr/local/qchem/bin/get_hostid 686870924 > /scratch/tmp/5956222.1.short.q/qchem9407/lic.dat
                  Welcome to Q-Chem
     A Quantum Leap Into The Future Of Chemistry

 Y. Shao, L. Fusti-Molnar, Y. Jung, J. Kussmann, C. Ochsenfeld,
 S. T. Brown, A. T. B. Gilbert, L. V. Slipchenko,S. V. Levchenko,
 D. P. O'Neill, R. A. DiStasio Jr., R. C. Lochan, T. Wang,
 G. J. O. Beran, N. A. Besley, J. M. Herbert, C. Y. Lin,
 T. Van Voorhis, S. H. Chien, A. Sodt, R. P. Steele, 
 V. A. Rassolov, P. E. Maslen, P. P. Korambath, R. D. Adamson,
 B. Austin, J. Baker, E. F. C. Byrd, H. Dachsel, R. J. Doerksen,
 A. Dreuw, B. D. Dunietz, A. D. Dutoi, T. R. Furlani,
 S. R. Gwaltney, A. Heyden, S. Hirata, C.-P. Hsu, G. Kedziora,
 R. Z. Khaliullin, P. Klunzinger, A. M. Lee, M. S. Lee, W. Liang,
 I. Lotan, N. Nair, B. Peters, E. I. Proynov, P. A. Pieniazek, 
 Y. M. Rhee, J. Ritchie, E. Rosta, C. D. Sherrill, 
 A. C. Simmonett, J. E. Subotnik, H. L. Woodcock III,
 W. Zhang, A. T. Bell, A. K. Chakraborty, D. M. Chipman,
 F. J. Keil, A. Warshel, W. J. Hehre, H. F. Schaefer III,
 J. Kong, A. I. Krylov, P. M. W. Gill, M. Head-Gordon,
 Q-Chem, Version 3.1, Q-Chem, Inc., Pittsburgh, PA (2007).

 Additional authors for Version 3.1: 
 Z. Gan, Y. Zhao, N. E. Schultz, D. Truhlar, E. Epifanovsky and M. Oana.

 Additional authors for Version 3.2: 
 R. Baer, B. R. Brooks, D. Casanova, J.-D. Chai, C.-L. Cheng, 
 C. Cramer, D. Crittenden, A. Ghysels, G. Hawkins, E. G. Hohenstein, 
 C. Kelley, W. Kurlancheek, D. Liotard, E. Livshits, P. Manohar, 
 A. Marenich, D. Neuhauser, R. Olson, M. A. Rohrdanz, K. S. Thanthiriwatte, 
 A. J. W. Thom, V. Vanovschi, C. F. Williams, Q. Wu and Z.-Q. You. 


 Intel X86 Linux Version

 Q-chem begins on Tue Apr 30 22:30:49 2013  

 Parallel job on  1  processors
Processing $rem in /usr/local/qchem/config/preferences.

theFileMan(): MAXOPENFILES=974 MAX_SUB_FILE_NUM=16
Maximum size of a physical file is 2.0 GB, maximum size of a tmp-file is 32.0 GB


--------------------------------------------------------------
User input:
--------------------------------------------------------------

$molecule
-1,2
X
C 1 1.
X 2 r 1 90.
X 2 r 1 90. 3 180.
C 3 ra 2 90. 1 90.
C 3 ra 2 90. 1 -90.
C 4 ra 2 90. 1 0.
C 4 ra 2 90. 1 180.
H 5 rh 3 ah 2 t1
H 5 rh 3 ah 2 -t1
H 6 rh 3 ah 2 -t1
H 6 rh 3 ah 2 t1
H 7 rh 4 ah 2 t1
H 7 rh 4 ah 2 -t1
H 8 rh 4 ah 2 -t1
H 8 rh 4 ah 2 t1

r=1.27305905
ra=0.76471759
rh=1.08816375
ah=117.7243034
t1=108.45079893

$end

$comment
negative
$end

$xc_functional
C PBE   1.00
X wPBE  1.00
$end

$rem
SYMMETRY_DECOMPOSITION	0
exchange 		general
LRC_DFT                 true
BASIS                   g3large
omega			270
mem_static              760
max_scf_cycles          200
scf_final_print         1
sym_ignore              true
$end

--------------------------------------------------------------
 Writing REM_CC_EA           13
 ----------------------------------------------------
       Standard Nuclear Orientation (Angstroms)
    I     Atom         X            Y            Z
 ----------------------------------------------------
    1      C       0.000000     0.000000     1.000000
    2      C       1.273059     0.764718     1.000000
    3      C       1.273059    -0.764718     1.000000
    4      C      -1.273059     0.000000     0.235282
    5      C      -1.273059     0.000000     1.764718
    6      H       1.577915     1.270950     1.913724
    7      H       1.577915     1.270950     0.086276
    8      H       1.577915    -1.270950     1.913724
    9      H       1.577915    -1.270950     0.086276
   10      H      -1.577915    -0.913724    -0.270950
   11      H      -1.577915     0.913724    -0.270950
   12      H      -1.577915    -0.913724     2.270950
   13      H      -1.577915     0.913724     2.270950
 ----------------------------------------------------
 Nuclear Repulsion Energy =   170.0211664558 hartrees
 There are       20 alpha and       19 beta electrons
 Requested basis set is G3large
 There are 98 shells and 290 basis functions

Total QAlloc Memory Limit   2000 MB
Mega-Array Size       743 MB
MEM_STATIC part       760 MB

                       Distance Matrix (Angstroms)
             C (  1)   C (  2)   C (  3)   C (  4)   C (  5)   H (  6)
   C (  2)  1.485083
   C (  3)  1.485083  1.529435
   C (  4)  1.485083  2.766280  2.766280
   C (  5)  1.485083  2.766280  2.766280  1.529435
   H (  6)  2.222616  1.088164  2.252060  3.544084  3.124991
   H (  7)  2.222616  1.088164  2.252060  3.124991  3.544084  1.827448
   H (  8)  2.222616  2.252060  1.088164  3.544084  3.124991  2.541901
   H (  9)  2.222616  2.252060  1.088164  3.124991  3.544084  3.130627
   H ( 10)  2.222616  3.544084  3.124991  1.088164  2.252060  4.416431
   H ( 11)  2.222616  3.124991  3.544084  1.088164  2.252060  3.854824
   H ( 12)  2.222616  3.544084  3.124991  2.252060  1.088164  3.854824
   H ( 13)  2.222616  3.124991  3.544084  2.252060  1.088164  3.196010
             H (  7)   H (  8)   H (  9)   H ( 10)   H ( 11)   H ( 12)
   H (  8)  3.130627
   H (  9)  2.541901  1.827448
   H ( 10)  3.854824  3.854824  3.196010
   H ( 11)  3.196010  4.416431  3.854824  1.827448
   H ( 12)  4.416431  3.196010  3.854824  2.541901  3.130627
   H ( 13)  3.854824  3.854824  4.416431  3.130627  2.541901  1.827448

 
 A cutoff of  1.0D-08 yielded   4427 shell pairs
 There are  39125 function pairs ( 47907 Cartesian)
Evaluating contribution to one-electron hamiltonian from nuclear
 Smallest overlap matrix eigenvalue = 2.70E-05

 Q-Chem warning in module mkSTV.C, line 194:

 Overlap eigenvalue is smaller than square root of threshold

 Multipole matrices computed through 2nd order

  Scale SEOQF with 1.000000e-01/1.000000e-01/1.000000e-01

 Standard Electronic Orientation quadrupole field applied
 Nucleus-field energy     =    -0.0000000026 hartrees
 Guess from superposition of atomic densities
 Warning:  Energy on first SCF cycle will be non-variational
 Long-range K will be added via erf
 Coulomb attenuation parameter = 0.27 bohr**(-1)
 An unrestricted Kohn-Sham SCF calculation will be
 performed using Pulay DIIS extrapolation
 Exchange:  wPBE + LR-HF      Correlation:  PBE
 Using SG-1 standard quadrature grid
 SCF converges when DIIS error is below 1.0E-05
 Requested basis set is G3large
 There are 98 shells and 290 basis functions
 A cutoff of  1.0D-08 yielded   4427 shell pairs
 There are  39125 function pairs ( 47907 Cartesian)
 Warning!  Inaccurate integrated density:
   Number of electrons =    39
   Numerical integral  =    37.999718310951
   Relative error      =    -2.5648248437 %
 ---------------------------------------
  Cycle       Energy         DIIS Error
 ---------------------------------------
    1    -196.8247550391      2.84E-02
    2    -194.9043204786      3.42E-03
    3    -194.9724133416      3.55E-03
    4    -195.1090439727      3.95E-04
    5    -195.1151008077      2.38E-04
    6    -195.1173799554      7.12E-05
    7    -195.1182821700      3.28E-05
    8    -195.1186728906      2.21E-05
    9    -195.1189300623      1.81E-05
   10    -195.1191704088      1.31E-05
   11    -195.1193447487      9.50E-06 Convergence criterion met
 ---------------------------------------
 One-Electron    Energy =  -602.4767280736
 Total Coulomb   Energy =   267.3829375401
 Alpha Exchange  Energy =    -2.7521899573
 Beta  Exchange  Energy =    -2.6939460277
 DFT   Exchange  Energy =   -23.3500654720
 DFT Correlation Energy =    -1.2505192116
 Nuclear Repu.   Energy =   170.0211664533
 Nuclear Attr.   Energy =  -796.6637471388
 Kinetic         Energy =   194.1870190652
 <S^2> = 0.7501
 SCF time:  CPU 582.30 s  wall 584.87 s
 Final Alpha MO Eigenvalues
            1           2           3           4           5           6
    1  -9.9251409  -9.9154447  -9.9082699  -9.9081538  -9.9075087  -0.8390614
            7           8           9          10          11          12
    1  -0.7579531  -0.5688539  -0.5649561  -0.5063404  -0.4494203  -0.4374920
           13          14          15          16          17          18
    1  -0.4333784  -0.3308927  -0.3162092  -0.3158486  -0.2497739  -0.2485016
           19          20          21          22          23          24
    1  -0.2374054   0.0324210   0.1277496   0.1280994   0.1292214   0.1574337
           25
    1   0.1575402
 Final Beta MO Eigenvalues
            1           2           3           4           5           6
    1  -9.9251485  -9.9153548  -9.9079953  -9.9079208  -9.9072535  -0.8389593
            7           8           9          10          11          12
    1  -0.7577683  -0.5682326  -0.5641634  -0.5055942  -0.4488174  -0.4371971
           13          14          15          16          17          18
    1  -0.4328187  -0.3305201  -0.3156554  -0.3154614  -0.2494841  -0.2482437
           19          20          21          22          23          24
    1  -0.2368743   0.1253513   0.1387570   0.1405194   0.1440267   0.1591871
 Analysis of SCF Wavefunction
 
 --------------------------------------------------------------
                    Orbital Energies (a.u.)
 --------------------------------------------------------------
 
 Alpha MOs
 -- Occupied --
 -9.925  -9.915  -9.908  -9.908  -9.908  -0.839  -0.758  -0.569
 -0.565  -0.506  -0.449  -0.437  -0.433  -0.331  -0.316  -0.316
 -0.250  -0.249  -0.237   0.032
 -- Virtual --
  0.128   0.128   0.129   0.157   0.158   0.162   0.180   0.189
  0.218   0.243   0.245   0.253   0.261   0.263   0.264   0.278
  0.282   0.286   0.297   0.307   0.307   0.320   0.332   0.334
  0.336   0.337   0.348   0.348   0.365   0.405   0.406   0.411
  0.439   0.457   0.463   0.475   0.488   0.521   0.522   0.535
  0.540   0.600   0.648   0.662   0.664   0.670   0.692   0.696
  0.726   0.746   0.748   0.768   0.775   0.781   0.792   0.794
  0.809   0.810   0.828   0.834   0.849   0.851   0.858   0.869
  0.901   0.951   0.995   0.996   1.001   1.018   1.048   1.079
  1.104   1.113   1.114   1.179   1.232   1.233   1.255   1.285
  1.302   1.303   1.310   1.326   1.330   1.374   1.379   1.380
  1.434   1.436   1.489   1.498   1.502   1.521   1.545   1.548
  1.565   1.573   1.598   1.606   1.609   1.646   1.648   1.662
  1.667   1.692   1.744   1.758   1.761   1.773   1.782   1.786
  1.788   1.842   1.950   1.981   1.982   2.009   2.651   2.655
  2.730   2.772   2.799   2.801   2.824   2.832   2.867   2.867
  2.868   2.922   2.965   2.966   3.000   3.058   3.072   3.074
  3.088   3.112   3.162   3.163   3.181   3.189   3.236   3.237
  3.262   3.266   3.267   3.305   3.323   3.348   3.375   3.408
  3.409   3.426   3.464   3.521   3.521   3.527   3.561   3.563
  3.617   3.619   3.630   3.639   3.667   3.674   3.728   3.728
  3.743   3.771   3.771   3.785   3.865   3.949   3.978   4.038
  4.054   4.056   4.107   4.109   4.138   4.228   4.267   4.269
  4.280   4.289   4.312   4.315   4.404   4.423   4.436   4.444
  4.517   4.518   4.526   4.536   4.539   4.574   4.575   4.657
  4.658   4.696   4.696   4.701   4.731   4.770   4.864   4.897
  5.065   5.067   5.128   5.129   5.253   5.424   5.545   5.599
  5.602   5.668   5.770   5.777   5.782   5.815   5.905   5.908
  5.927  24.202  24.212  24.449  24.453  24.520  27.570  27.622
 27.676  27.677  28.045  28.147  28.193  28.195  28.208  28.236
 28.236  28.247  28.644  28.648  29.080  40.959  40.979  40.998
 41.057  41.064  41.067  41.069  41.102  41.106  41.109  41.233
 41.239  41.240  41.247  41.247  41.257  41.279  41.292  41.339
 41.345  41.350  41.353  41.366  41.432  41.434
 
 Beta MOs
 -- Occupied --
 -9.925  -9.915  -9.908  -9.908  -9.907  -0.839  -0.758  -0.568
 -0.564  -0.506  -0.449  -0.437  -0.433  -0.331  -0.316  -0.315
 -0.249  -0.248  -0.237
 -- Virtual --
  0.125   0.139   0.141   0.144   0.159   0.164   0.168   0.182
  0.188   0.217   0.239   0.241   0.248   0.257   0.259   0.259
  0.278   0.279   0.286   0.295   0.306   0.306   0.317   0.328
  0.329   0.331   0.332   0.344   0.345   0.364   0.403   0.406
  0.409   0.438   0.456   0.462   0.470   0.486   0.518   0.519
  0.533   0.539   0.599   0.647   0.660   0.662   0.668   0.691
  0.694   0.724   0.745   0.747   0.767   0.773   0.780   0.792
  0.793   0.808   0.808   0.826   0.833   0.847   0.849   0.856
  0.868   0.900   0.951   0.995   0.996   1.002   1.019   1.048
  1.079   1.104   1.113   1.114   1.179   1.232   1.234   1.255
  1.285   1.302   1.303   1.310   1.326   1.330   1.374   1.379
  1.380   1.434   1.436   1.489   1.498   1.501   1.520   1.545
  1.548   1.565   1.572   1.598   1.606   1.609   1.646   1.648
  1.662   1.668   1.692   1.745   1.758   1.762   1.774   1.782
  1.787   1.788   1.843   1.950   1.981   1.982   2.009   2.651
  2.654   2.731   2.772   2.799   2.801   2.825   2.832   2.867
  2.867   2.868   2.923   2.965   2.966   3.000   3.058   3.073
  3.074   3.088   3.112   3.162   3.163   3.181   3.189   3.236
  3.237   3.262   3.266   3.267   3.306   3.323   3.348   3.375
  3.409   3.410   3.427   3.464   3.522   3.522   3.527   3.561
  3.563   3.618   3.620   3.631   3.640   3.667   3.674   3.728
  3.729   3.743   3.771   3.771   3.785   3.865   3.949   3.978
  4.038   4.054   4.056   4.107   4.109   4.138   4.228   4.267
  4.269   4.280   4.289   4.312   4.315   4.404   4.423   4.436
  4.444   4.518   4.518   4.527   4.537   4.539   4.574   4.575
  4.657   4.658   4.696   4.697   4.701   4.731   4.771   4.864
  4.897   5.065   5.068   5.128   5.130   5.254   5.425   5.545
  5.600   5.602   5.668   5.771   5.777   5.782   5.816   5.905
  5.908   5.927  24.202  24.213  24.449  24.453  24.521  27.570
 27.622  27.676  27.677  28.045  28.147  28.193  28.195  28.208
 28.236  28.236  28.247  28.645  28.649  29.080  40.959  40.979
 40.998  41.057  41.064  41.068  41.069  41.103  41.107  41.109
 41.233  41.239  41.240  41.247  41.247  41.257  41.279  41.292
 41.339  41.345  41.350  41.353  41.367  41.432  41.434
 --------------------------------------------------------------
 
          Ground-State Mulliken Net Atomic Charges

     Atom                 Charge (a.u.)    Spin (a.u.)
  --------------------------------------------------------
      1 C                    -3.456171       4.044328
      2 C                     3.042135      -3.400398
      3 C                    -0.301962      -0.003511
      4 C                     1.589687      -1.917720
      5 C                     1.296441      -1.623269
      6 H                    -0.569889       0.673187
      7 H                    -0.620767       0.726429
      8 H                    -0.030787       0.103836
      9 H                    -0.048156       0.123269
     10 H                    -0.135633       0.210291
     11 H                    -0.872786       0.987210
     12 H                    -0.108114       0.180439
     13 H                    -0.783997       0.895908
  --------------------------------------------------------
  Sum of atomic charges =    -1.000000
  Sum of spin   charges =     1.000000

 -----------------------------------------------------------------
                    Cartesian Multipole Moments
 -----------------------------------------------------------------
    Charge (ESU x 10^10)
                -4.8032
    Dipole Moment (Debye)
         X       2.0030      Y      -7.0608      Z      -4.2955
       Tot       8.5040
    Quadrupole Moments (Debye-Ang)
        XX     -73.0962     XY       1.8305     YY     -65.9503
        XZ       1.6947     YZ      -6.4783     ZZ     -64.5607
    Octapole Moments (Debye-Ang^2)
       XXX      30.5994    XXY     -43.6707    XYY      12.9945
       YYY     -96.2893    XXZ     -69.8868    XYZ       1.6033
       YYZ     -63.0160    XZZ      11.0554    YZZ     -44.5573
       ZZZ    -178.6705
    Hexadecapole Moments (Debye-Ang^3)
      XXXX   -1052.4353   XXXY       9.1767   XXYY    -291.3836
      XYYY      15.6678   YYYY    -609.0705   XXXZ      25.8593
      XXYZ     -40.7921   XYYZ      11.5107   YYYZ     -90.1121
      XXZZ    -334.9909   XYZZ       9.7341   YYZZ    -261.9096
      XZZZ      26.1634   YZZZ    -114.9997   ZZZZ    -854.9304
 -----------------------------------------------------------------
 Total job time:  585.39s(wall), 582.80s(cpu) 
 Tue Apr 30 22:40:34 2013

        *************************************************************
        *                                                           *
        *  Thank you very much for using Q-Chem.  Have a nice day.  *
        *                                                           *
        *************************************************************


0 sent ACK to 0 
now end server 0 ... 
 
**********************************************************************
Job 2 of 3 
**********************************************************************
 
Process 0 of 1 is on cl008.stfx.acenet.ca - thread support 1
initial socket setup ...start
initial socket setup ...done 
now start server 0 ... 

cmd = /usr/bin/ssh clhead /usr/local/qchem/bin/get_hostid 1176270295 > /scratch/tmp/5956222.1.short.q/qchem9407/lic.dat
                  Welcome to Q-Chem
     A Quantum Leap Into The Future Of Chemistry

 Y. Shao, L. Fusti-Molnar, Y. Jung, J. Kussmann, C. Ochsenfeld,
 S. T. Brown, A. T. B. Gilbert, L. V. Slipchenko,S. V. Levchenko,
 D. P. O'Neill, R. A. DiStasio Jr., R. C. Lochan, T. Wang,
 G. J. O. Beran, N. A. Besley, J. M. Herbert, C. Y. Lin,
 T. Van Voorhis, S. H. Chien, A. Sodt, R. P. Steele, 
 V. A. Rassolov, P. E. Maslen, P. P. Korambath, R. D. Adamson,
 B. Austin, J. Baker, E. F. C. Byrd, H. Dachsel, R. J. Doerksen,
 A. Dreuw, B. D. Dunietz, A. D. Dutoi, T. R. Furlani,
 S. R. Gwaltney, A. Heyden, S. Hirata, C.-P. Hsu, G. Kedziora,
 R. Z. Khaliullin, P. Klunzinger, A. M. Lee, M. S. Lee, W. Liang,
 I. Lotan, N. Nair, B. Peters, E. I. Proynov, P. A. Pieniazek, 
 Y. M. Rhee, J. Ritchie, E. Rosta, C. D. Sherrill, 
 A. C. Simmonett, J. E. Subotnik, H. L. Woodcock III,
 W. Zhang, A. T. Bell, A. K. Chakraborty, D. M. Chipman,
 F. J. Keil, A. Warshel, W. J. Hehre, H. F. Schaefer III,
 J. Kong, A. I. Krylov, P. M. W. Gill, M. Head-Gordon,
 Q-Chem, Version 3.1, Q-Chem, Inc., Pittsburgh, PA (2007).

 Additional authors for Version 3.1: 
 Z. Gan, Y. Zhao, N. E. Schultz, D. Truhlar, E. Epifanovsky and M. Oana.

 Additional authors for Version 3.2: 
 R. Baer, B. R. Brooks, D. Casanova, J.-D. Chai, C.-L. Cheng, 
 C. Cramer, D. Crittenden, A. Ghysels, G. Hawkins, E. G. Hohenstein, 
 C. Kelley, W. Kurlancheek, D. Liotard, E. Livshits, P. Manohar, 
 A. Marenich, D. Neuhauser, R. Olson, M. A. Rohrdanz, K. S. Thanthiriwatte, 
 A. J. W. Thom, V. Vanovschi, C. F. Williams, Q. Wu and Z.-Q. You. 


 Intel X86 Linux Version

 Q-chem begins on Tue Apr 30 22:40:37 2013  

 Parallel job on  1  processors
Processing $rem in /usr/local/qchem/config/preferences.

theFileMan(): MAXOPENFILES=974 MAX_SUB_FILE_NUM=16
Maximum size of a physical file is 2.0 GB, maximum size of a tmp-file is 32.0 GB


--------------------------------------------------------------
User input:
--------------------------------------------------------------

$molecule
0,1
X
C 1 1.
X 2 r 1 90.
X 2 r 1 90. 3 180.
C 3 ra 2 90. 1 90.
C 3 ra 2 90. 1 -90.
C 4 ra 2 90. 1 0.
C 4 ra 2 90. 1 180.
H 5 rh 3 ah 2 t1
H 5 rh 3 ah 2 -t1
H 6 rh 3 ah 2 -t1
H 6 rh 3 ah 2 t1
H 7 rh 4 ah 2 t1
H 7 rh 4 ah 2 -t1
H 8 rh 4 ah 2 -t1
H 8 rh 4 ah 2 t1

r=1.27305905
ra=0.76471759
rh=1.08816375
ah=117.7243034
t1=108.45079893

$end

$comment
neutral
$end

$xc_functional
C PBE   1.00
X wPBE  1.00
$end


$rem
SYMMETRY_DECOMPOSITION	0
LRC_DFT                 true
exchange 		general
BASIS                   g3large
omega			270
mem_static              760
max_scf_cycles          200
scf_final_print         1
sym_ignore              true
$end

--------------------------------------------------------------
 Writing REM_CC_EA           13
 ----------------------------------------------------
       Standard Nuclear Orientation (Angstroms)
    I     Atom         X            Y            Z
 ----------------------------------------------------
    1      C       0.000000     0.000000     1.000000
    2      C       1.273059     0.764718     1.000000
    3      C       1.273059    -0.764718     1.000000
    4      C      -1.273059     0.000000     0.235282
    5      C      -1.273059     0.000000     1.764718
    6      H       1.577915     1.270950     1.913724
    7      H       1.577915     1.270950     0.086276
    8      H       1.577915    -1.270950     1.913724
    9      H       1.577915    -1.270950     0.086276
   10      H      -1.577915    -0.913724    -0.270950
   11      H      -1.577915     0.913724    -0.270950
   12      H      -1.577915    -0.913724     2.270950
   13      H      -1.577915     0.913724     2.270950
 ----------------------------------------------------
 Nuclear Repulsion Energy =   170.0211664558 hartrees
 There are       19 alpha and       19 beta electrons
 Requested basis set is G3large
 There are 98 shells and 290 basis functions

Total QAlloc Memory Limit   2000 MB
Mega-Array Size       743 MB
MEM_STATIC part       760 MB

                       Distance Matrix (Angstroms)
             C (  1)   C (  2)   C (  3)   C (  4)   C (  5)   H (  6)
   C (  2)  1.485083
   C (  3)  1.485083  1.529435
   C (  4)  1.485083  2.766280  2.766280
   C (  5)  1.485083  2.766280  2.766280  1.529435
   H (  6)  2.222616  1.088164  2.252060  3.544084  3.124991
   H (  7)  2.222616  1.088164  2.252060  3.124991  3.544084  1.827448
   H (  8)  2.222616  2.252060  1.088164  3.544084  3.124991  2.541901
   H (  9)  2.222616  2.252060  1.088164  3.124991  3.544084  3.130627
   H ( 10)  2.222616  3.544084  3.124991  1.088164  2.252060  4.416431
   H ( 11)  2.222616  3.124991  3.544084  1.088164  2.252060  3.854824
   H ( 12)  2.222616  3.544084  3.124991  2.252060  1.088164  3.854824
   H ( 13)  2.222616  3.124991  3.544084  2.252060  1.088164  3.196010
             H (  7)   H (  8)   H (  9)   H ( 10)   H ( 11)   H ( 12)
   H (  8)  3.130627
   H (  9)  2.541901  1.827448
   H ( 10)  3.854824  3.854824  3.196010
   H ( 11)  3.196010  4.416431  3.854824  1.827448
   H ( 12)  4.416431  3.196010  3.854824  2.541901  3.130627
   H ( 13)  3.854824  3.854824  4.416431  3.130627  2.541901  1.827448

 
 A cutoff of  1.0D-08 yielded   4427 shell pairs
 There are  39125 function pairs ( 47907 Cartesian)
Evaluating contribution to one-electron hamiltonian from nuclear
 Smallest overlap matrix eigenvalue = 2.70E-05

 Q-Chem warning in module mkSTV.C, line 194:

 Overlap eigenvalue is smaller than square root of threshold

 Multipole matrices computed through 2nd order

  Scale SEOQF with 1.000000e-01/1.000000e-01/1.000000e-01

 Standard Electronic Orientation quadrupole field applied
 Nucleus-field energy     =    -0.0000000026 hartrees
 Guess from superposition of atomic densities
 Warning:  Energy on first SCF cycle will be non-variational
 Long-range K will be added via erf
 Coulomb attenuation parameter = 0.27 bohr**(-1)
 A restricted Kohn-Sham SCF calculation will be
 performed using Pulay DIIS extrapolation
 Exchange:  wPBE + LR-HF      Correlation:  PBE
 Using SG-1 standard quadrature grid
 SCF converges when DIIS error is below 1.0E-05
 Requested basis set is G3large
 There are 98 shells and 290 basis functions
 A cutoff of  1.0D-08 yielded   4427 shell pairs
 There are  39125 function pairs ( 47907 Cartesian)
 ---------------------------------------
  Cycle       Energy         DIIS Error
 ---------------------------------------
    1    -196.8247550391      2.84E-02
    2    -195.0668068041      2.72E-03
    3    -195.1075325456      2.19E-03
    4    -195.1549766966      2.51E-04
    5    -195.1556738137      1.30E-04
    6    -195.1558429757      2.86E-05
    7    -195.1558555752      7.30E-06 Convergence criterion met
 ---------------------------------------
 One-Electron    Energy =  -597.8780510583
 Total Coulomb   Energy =   262.6741755998
 Alpha Exchange  Energy =    -2.6947528884
 Beta  Exchange  Energy =    -2.6947528884
 DFT   Exchange  Energy =   -23.3402012146
 DFT Correlation Energy =    -1.2434395785
 Nuclear Repu.   Energy =   170.0211664533
 Nuclear Attr.   Energy =  -791.9966145373
 Kinetic         Energy =   194.1185634791
 SCF time:  CPU 276.10 s  wall 277.19 s
 Final Alpha MO Eigenvalues
            1           2           3           4           5           6
    1 -10.0469959 -10.0326240 -10.0324385 -10.0323434 -10.0321212  -0.9609863
            7           8           9          10          11          12
    1  -0.8797880  -0.6884953  -0.6884906  -0.6276816  -0.5705896  -0.5573719
           13          14          15          16          17          18
    1  -0.5573688  -0.4523532  -0.4381993  -0.4377627  -0.3709386  -0.3709343
           19          20          21          22          23          24
    1  -0.3590826   0.0403010   0.0520570   0.0520817   0.0564733   0.0752375
 Analysis of SCF Wavefunction
 
 --------------------------------------------------------------
                    Orbital Energies (a.u.)
 --------------------------------------------------------------
 
 Alpha MOs
 -- Occupied --
-10.047 -10.033 -10.032 -10.032 -10.032  -0.961  -0.880  -0.688
 -0.688  -0.628  -0.571  -0.557  -0.557  -0.452  -0.438  -0.438
 -0.371  -0.371  -0.359
 -- Virtual --
  0.040   0.052   0.052   0.056   0.075   0.075   0.081   0.097
  0.099   0.121   0.146   0.146   0.158   0.162   0.164   0.165
  0.180   0.181   0.181   0.193   0.202   0.202   0.216   0.231
  0.233   0.233   0.233   0.240   0.240   0.253   0.292   0.292
  0.297   0.324   0.345   0.346   0.366   0.373   0.409   0.409
  0.424   0.427   0.485   0.534   0.550   0.550   0.552   0.578
  0.578   0.610   0.631   0.631   0.653   0.659   0.664   0.676
  0.676   0.692   0.692   0.712   0.716   0.733   0.734   0.741
  0.748   0.784   0.831   0.875   0.875   0.881   0.896   0.927
  0.959   0.983   0.993   0.993   1.059   1.112   1.112   1.134
  1.164   1.182   1.182   1.189   1.209   1.209   1.254   1.260
  1.260   1.315   1.315   1.369   1.380   1.380   1.400   1.427
  1.427   1.446   1.454   1.477   1.487   1.489   1.528   1.528
  1.541   1.548   1.573   1.624   1.640   1.640   1.652   1.665
  1.665   1.666   1.721   1.829   1.860   1.860   1.888   2.531
  2.531   2.609   2.652   2.679   2.679   2.703   2.710   2.746
  2.746   2.746   2.801   2.844   2.844   2.878   2.936   2.952
  2.952   2.966   2.990   3.041   3.041   3.059   3.067   3.115
  3.115   3.140   3.144   3.144   3.183   3.201   3.226   3.253
  3.287   3.287   3.305   3.342   3.400   3.400   3.405   3.440
  3.440   3.497   3.497   3.509   3.517   3.545   3.552   3.607
  3.607   3.622   3.650   3.650   3.664   3.743   3.827   3.856
  3.916   3.933   3.933   3.986   3.986   4.016   4.106   4.146
  4.146   4.158   4.167   4.192   4.192   4.282   4.301   4.315
  4.322   4.396   4.396   4.404   4.416   4.416   4.453   4.453
  4.536   4.536   4.576   4.576   4.576   4.609   4.649   4.742
  4.775   4.944   4.944   5.007   5.007   5.131   5.303   5.424
  5.479   5.479   5.546   5.653   5.653   5.658   5.693   5.785
  5.785   5.805  24.080  24.090  24.328  24.328  24.398  27.448
 27.500  27.554  27.554  27.923  28.025  28.072  28.072  28.085
 28.113  28.113  28.124  28.524  28.524  28.958  40.837  40.857
 40.875  40.937  40.943  40.943  40.945  40.982  40.982  40.987
 41.111  41.118  41.118  41.124  41.124  41.134  41.156  41.170
 41.220  41.220  41.227  41.229  41.244  41.311  41.311
 --------------------------------------------------------------
 
          Ground-State Mulliken Net Atomic Charges

     Atom                 Charge (a.u.)
  ----------------------------------------
      1 C                     0.527083
      2 C                    -0.313205
      3 C                    -0.314189
      4 C                    -0.313436
      5 C                    -0.313582
      6 H                     0.090941
      7 H                     0.090951
      8 H                     0.090908
      9 H                     0.090924
     10 H                     0.090911
     11 H                     0.090912
     12 H                     0.090884
     13 H                     0.090899
  ----------------------------------------
  Sum of atomic charges =     0.000000

 -----------------------------------------------------------------
                    Cartesian Multipole Moments
 -----------------------------------------------------------------
    Charge (ESU x 10^10)
                 0.0000
    Dipole Moment (Debye)
         X       0.0001      Y      -0.0013      Z       0.0001
       Tot       0.0013
    Quadrupole Moments (Debye-Ang)
        XX     -32.8888     XY       0.0015     YY     -30.8391
        XZ       0.0002     YZ      -0.0014     ZZ     -30.8389
    Octapole Moments (Debye-Ang^2)
       XXX      -0.0004    XXY       0.0013    XYY      -0.5037
       YYY       0.0033    XXZ     -32.8888    XYZ       0.0015
       YYZ     -30.8392    XZZ       0.5039    YZZ       0.0007
       ZZZ     -92.5170
    Hexadecapole Moments (Debye-Ang^3)
      XXXX    -354.5669   XXXY       0.0131   XXYY     -68.3606
      XYYY       0.0097   YYYY    -116.7198   XXXZ       0.0002
      XXYZ       0.0012   XYYZ      -0.5032   YYYZ       0.0032
      XXZZ    -101.2493   XYZZ       0.0116   YYZZ     -64.2300
      XZZZ       1.5117   YZZZ       0.0048   ZZZZ    -301.7532
 -----------------------------------------------------------------
 Total job time:  277.67s(wall), 276.57s(cpu) 
 Tue Apr 30 22:45:15 2013

        *************************************************************
        *                                                           *
        *  Thank you very much for using Q-Chem.  Have a nice day.  *
        *                                                           *
        *************************************************************


0 sent ACK to 0 
now end server 0 ... 
 
**********************************************************************
Job 3 of 3 
**********************************************************************
 
Process 0 of 1 is on cl008.stfx.acenet.ca - thread support 1
initial socket setup ...start
initial socket setup ...done 
now start server 0 ... 

cmd = /usr/bin/ssh clhead /usr/local/qchem/bin/get_hostid 1924826117 > /scratch/tmp/5956222.1.short.q/qchem9407/lic.dat
                  Welcome to Q-Chem
     A Quantum Leap Into The Future Of Chemistry

 Y. Shao, L. Fusti-Molnar, Y. Jung, J. Kussmann, C. Ochsenfeld,
 S. T. Brown, A. T. B. Gilbert, L. V. Slipchenko,S. V. Levchenko,
 D. P. O'Neill, R. A. DiStasio Jr., R. C. Lochan, T. Wang,
 G. J. O. Beran, N. A. Besley, J. M. Herbert, C. Y. Lin,
 T. Van Voorhis, S. H. Chien, A. Sodt, R. P. Steele, 
 V. A. Rassolov, P. E. Maslen, P. P. Korambath, R. D. Adamson,
 B. Austin, J. Baker, E. F. C. Byrd, H. Dachsel, R. J. Doerksen,
 A. Dreuw, B. D. Dunietz, A. D. Dutoi, T. R. Furlani,
 S. R. Gwaltney, A. Heyden, S. Hirata, C.-P. Hsu, G. Kedziora,
 R. Z. Khaliullin, P. Klunzinger, A. M. Lee, M. S. Lee, W. Liang,
 I. Lotan, N. Nair, B. Peters, E. I. Proynov, P. A. Pieniazek, 
 Y. M. Rhee, J. Ritchie, E. Rosta, C. D. Sherrill, 
 A. C. Simmonett, J. E. Subotnik, H. L. Woodcock III,
 W. Zhang, A. T. Bell, A. K. Chakraborty, D. M. Chipman,
 F. J. Keil, A. Warshel, W. J. Hehre, H. F. Schaefer III,
 J. Kong, A. I. Krylov, P. M. W. Gill, M. Head-Gordon,
 Q-Chem, Version 3.1, Q-Chem, Inc., Pittsburgh, PA (2007).

 Additional authors for Version 3.1: 
 Z. Gan, Y. Zhao, N. E. Schultz, D. Truhlar, E. Epifanovsky and M. Oana.

 Additional authors for Version 3.2: 
 R. Baer, B. R. Brooks, D. Casanova, J.-D. Chai, C.-L. Cheng, 
 C. Cramer, D. Crittenden, A. Ghysels, G. Hawkins, E. G. Hohenstein, 
 C. Kelley, W. Kurlancheek, D. Liotard, E. Livshits, P. Manohar, 
 A. Marenich, D. Neuhauser, R. Olson, M. A. Rohrdanz, K. S. Thanthiriwatte, 
 A. J. W. Thom, V. Vanovschi, C. F. Williams, Q. Wu and Z.-Q. You. 


 Intel X86 Linux Version

 Q-chem begins on Tue Apr 30 22:45:18 2013  

 Parallel job on  1  processors
Processing $rem in /usr/local/qchem/config/preferences.

theFileMan(): MAXOPENFILES=974 MAX_SUB_FILE_NUM=16
Maximum size of a physical file is 2.0 GB, maximum size of a tmp-file is 32.0 GB


--------------------------------------------------------------
User input:
--------------------------------------------------------------

$molecule
1,2
X
C 1 1.
X 2 r 1 90.
X 2 r 1 90. 3 180.
C 3 ra 2 90. 1 90.
C 3 ra 2 90. 1 -90.
C 4 ra 2 90. 1 0.
C 4 ra 2 90. 1 180.
H 5 rh 3 ah 2 t1
H 5 rh 3 ah 2 -t1
H 6 rh 3 ah 2 -t1
H 6 rh 3 ah 2 t1
H 7 rh 4 ah 2 t1
H 7 rh 4 ah 2 -t1
H 8 rh 4 ah 2 -t1
H 8 rh 4 ah 2 t1

r=1.27305905
ra=0.76471759
rh=1.08816375
ah=117.7243034
t1=108.45079893

$end

$comment
positive
$end

$xc_functional
C PBE   1.00
X wPBE  1.00
$end

$rem
SYMMETRY_DECOMPOSITION	0
LRC_DFT                 true
exchange 		general
BASIS                   g3large
omega			270
mem_static              760
max_scf_cycles          200
scf_final_print         1
sym_ignore              true
$end

--------------------------------------------------------------
 Writing REM_CC_EA           13
 ----------------------------------------------------
       Standard Nuclear Orientation (Angstroms)
    I     Atom         X            Y            Z
 ----------------------------------------------------
    1      C       0.000000     0.000000     1.000000
    2      C       1.273059     0.764718     1.000000
    3      C       1.273059    -0.764718     1.000000
    4      C      -1.273059     0.000000     0.235282
    5      C      -1.273059     0.000000     1.764718
    6      H       1.577915     1.270950     1.913724
    7      H       1.577915     1.270950     0.086276
    8      H       1.577915    -1.270950     1.913724
    9      H       1.577915    -1.270950     0.086276
   10      H      -1.577915    -0.913724    -0.270950
   11      H      -1.577915     0.913724    -0.270950
   12      H      -1.577915    -0.913724     2.270950
   13      H      -1.577915     0.913724     2.270950
 ----------------------------------------------------
 Nuclear Repulsion Energy =   170.0211664558 hartrees
 There are       19 alpha and       18 beta electrons
 Requested basis set is G3large
 There are 98 shells and 290 basis functions

Total QAlloc Memory Limit   2000 MB
Mega-Array Size       743 MB
MEM_STATIC part       760 MB

                       Distance Matrix (Angstroms)
             C (  1)   C (  2)   C (  3)   C (  4)   C (  5)   H (  6)
   C (  2)  1.485083
   C (  3)  1.485083  1.529435
   C (  4)  1.485083  2.766280  2.766280
   C (  5)  1.485083  2.766280  2.766280  1.529435
   H (  6)  2.222616  1.088164  2.252060  3.544084  3.124991
   H (  7)  2.222616  1.088164  2.252060  3.124991  3.544084  1.827448
   H (  8)  2.222616  2.252060  1.088164  3.544084  3.124991  2.541901
   H (  9)  2.222616  2.252060  1.088164  3.124991  3.544084  3.130627
   H ( 10)  2.222616  3.544084  3.124991  1.088164  2.252060  4.416431
   H ( 11)  2.222616  3.124991  3.544084  1.088164  2.252060  3.854824
   H ( 12)  2.222616  3.544084  3.124991  2.252060  1.088164  3.854824
   H ( 13)  2.222616  3.124991  3.544084  2.252060  1.088164  3.196010
             H (  7)   H (  8)   H (  9)   H ( 10)   H ( 11)   H ( 12)
   H (  8)  3.130627
   H (  9)  2.541901  1.827448
   H ( 10)  3.854824  3.854824  3.196010
   H ( 11)  3.196010  4.416431  3.854824  1.827448
   H ( 12)  4.416431  3.196010  3.854824  2.541901  3.130627
   H ( 13)  3.854824  3.854824  4.416431  3.130627  2.541901  1.827448

 
 A cutoff of  1.0D-08 yielded   4427 shell pairs
 There are  39125 function pairs ( 47907 Cartesian)
Evaluating contribution to one-electron hamiltonian from nuclear
 Smallest overlap matrix eigenvalue = 2.70E-05

 Q-Chem warning in module mkSTV.C, line 194:

 Overlap eigenvalue is smaller than square root of threshold

 Multipole matrices computed through 2nd order

  Scale SEOQF with 1.000000e-01/1.000000e-01/1.000000e-01

 Standard Electronic Orientation quadrupole field applied
 Nucleus-field energy     =    -0.0000000026 hartrees
 Guess from superposition of atomic densities
 Warning:  Energy on first SCF cycle will be non-variational
 Long-range K will be added via erf
 Coulomb attenuation parameter = 0.27 bohr**(-1)
 An unrestricted Kohn-Sham SCF calculation will be
 performed using Pulay DIIS extrapolation
 Exchange:  wPBE + LR-HF      Correlation:  PBE
 Using SG-1 standard quadrature grid
 SCF converges when DIIS error is below 1.0E-05
 Requested basis set is G3large
 There are 98 shells and 290 basis functions
 A cutoff of  1.0D-08 yielded   4427 shell pairs
 There are  39125 function pairs ( 47907 Cartesian)
 Warning!  Inaccurate integrated density:
   Number of electrons =    37
   Numerical integral  =    37.999718310951
   Relative error      =     2.7019413809 %
 ---------------------------------------
  Cycle       Energy         DIIS Error
 ---------------------------------------
    1    -196.8247550391      2.84E-02
    2    -194.6987933076      2.41E-03
    3    -194.7286696454      2.28E-03
    4    -194.7802010077      2.91E-04
    5    -194.7823749261      1.73E-04
    6    -194.7830836484      5.76E-05
    7    -194.7837573654      5.95E-05
    8    -194.7843227047      5.00E-05
    9    -194.7849151331      4.71E-05
   10    -194.7854916440      4.18E-05
   11    -194.7859270138      3.80E-05
   12    -194.7872497094      3.34E-05
   13    -194.7879571432      3.07E-05
   14    -194.7892943022      4.53E-05
   15    -194.7891695806      2.49E-05
   16    -194.7890946601      2.85E-04
   17    -194.7891696196      2.74E-04
   18    -194.7892455739      2.64E-04
   19    -194.7895435493      2.19E-04
   20    -194.7898602735      1.59E-04
   21    -194.7901678425      5.79E-05
   22    -194.7902016722      3.27E-05
   23    -194.7902146592      7.21E-06 Convergence criterion met
 ---------------------------------------
 One-Electron    Energy =  -588.8141904176
 Total Coulomb   Energy =   253.6546644150
 Alpha Exchange  Energy =    -2.7030803805
 Beta  Exchange  Energy =    -2.5489347634
 DFT   Exchange  Energy =   -23.1947588370
 DFT Correlation Energy =    -1.2050811290
 Nuclear Repu.   Energy =   170.0211664533
 Nuclear Attr.   Energy =  -782.7971135983
 Kinetic         Energy =   193.9829231806
 <S^2> = 0.7566
 SCF time:  CPU 1172.36 s  wall 1177.05 s
 Final Alpha MO Eigenvalues
            1           2           3           4           5           6
    1 -10.2946616 -10.2854573 -10.2853572 -10.2852841 -10.2852017  -1.2119461
            7           8           9          10          11          12
    1  -1.1334482  -0.9226056  -0.9225296  -0.8635165  -0.8039285  -0.7882798
           13          14          15          16          17          18
    1  -0.7882526  -0.6932858  -0.6763682  -0.6624608  -0.6203073  -0.6100570
           19          20          21          22          23          24
    1  -0.6099419  -0.0926311  -0.0858503  -0.0858398  -0.0761760  -0.0552803
 Final Beta MO Eigenvalues
            1           2           3           4           5           6
    1 -10.2944221 -10.2814941 -10.2814035 -10.2813430 -10.2812640  -1.2025537
            7           8           9          10          11          12
    1  -1.1184970  -0.9103518  -0.9103187  -0.8511192  -0.7978509  -0.7849698
           13          14          15          16          17          18
    1  -0.7849016  -0.6738929  -0.6599185  -0.6405081  -0.6033078  -0.6026748
           19          20          21          22          23
    1  -0.3724964  -0.0912936  -0.0820305  -0.0820128  -0.0745909
 Analysis of SCF Wavefunction
 
 --------------------------------------------------------------
                    Orbital Energies (a.u.)
 --------------------------------------------------------------
 
 Alpha MOs
 -- Occupied --
-10.295 -10.285 -10.285 -10.285 -10.285  -1.212  -1.133  -0.923
 -0.923  -0.864  -0.804  -0.788  -0.788  -0.693  -0.676  -0.662
 -0.620  -0.610  -0.610
 -- Virtual --
 -0.093  -0.086  -0.086  -0.076  -0.055  -0.055  -0.047  -0.035
 -0.030  -0.020  -0.020  -0.006   0.009   0.015   0.015   0.016
  0.033   0.033   0.040   0.045   0.053   0.053   0.068   0.068
  0.070   0.077   0.089   0.089   0.092   0.095   0.108   0.108
  0.116   0.144   0.160   0.161   0.168   0.204   0.216   0.224
  0.225   0.263   0.294   0.350   0.361   0.367   0.367   0.383
  0.383   0.415   0.435   0.435   0.445   0.457   0.474   0.475
  0.475   0.491   0.491   0.510   0.530   0.544   0.546   0.550
  0.550   0.603   0.615   0.669   0.669   0.682   0.700   0.708
  0.751   0.773   0.787   0.787   0.862   0.912   0.912   0.931
  0.951   0.967   0.979   0.979   1.005   1.005   1.052   1.052
  1.059   1.103   1.103   1.160   1.171   1.171   1.177   1.213
  1.213   1.236   1.240   1.261   1.281   1.290   1.324   1.324
  1.332   1.347   1.372   1.415   1.436   1.437   1.445   1.460
  1.460   1.461   1.507   1.596   1.635   1.635   1.670   2.297
  2.297   2.357   2.433   2.446   2.456   2.456   2.487   2.503
  2.503   2.525   2.554   2.613   2.613   2.645   2.686   2.712
  2.712   2.719   2.747   2.808   2.808   2.821   2.824   2.873
  2.873   2.888   2.904   2.904   2.952   2.977   2.986   3.020
  3.055   3.055   3.073   3.105   3.165   3.165   3.177   3.198
  3.198   3.260   3.260   3.268   3.270   3.305   3.317   3.372
  3.372   3.393   3.412   3.412   3.436   3.507   3.597   3.617
  3.671   3.704   3.704   3.746   3.746   3.780   3.874   3.917
  3.917   3.926   3.937   3.964   3.964   4.056   4.069   4.100
  4.103   4.156   4.160   4.164   4.188   4.188   4.220   4.220
  4.302   4.302   4.347   4.347   4.347   4.368   4.412   4.500
  4.539   4.703   4.703   4.772   4.772   4.903   5.065   5.193
  5.233   5.233   5.317   5.428   5.428   5.434   5.469   5.551
  5.552   5.562  23.833  23.838  24.076  24.076  24.147  27.189
 27.241  27.304  27.304  27.672  27.773  27.820  27.820  27.835
 27.861  27.861  27.874  28.274  28.274  28.708  40.587  40.601
 40.622  40.683  40.689  40.689  40.691  40.726  40.726  40.736
 40.862  40.862  40.862  40.869  40.869  40.878  40.903  40.914
 40.970  40.970  40.977  40.979  40.988  41.060  41.060
 
 Beta MOs
 -- Occupied --
-10.294 -10.281 -10.281 -10.281 -10.281  -1.203  -1.118  -0.910
 -0.910  -0.851  -0.798  -0.785  -0.785  -0.674  -0.660  -0.641
 -0.603  -0.603
 -- Virtual --
 -0.372  -0.091  -0.082  -0.082  -0.075  -0.054  -0.054  -0.045
 -0.035  -0.029  -0.010  -0.010  -0.006   0.011   0.017   0.017
  0.018   0.034   0.035   0.042   0.048   0.054   0.055   0.071
  0.075   0.075   0.079   0.090   0.091   0.093   0.096   0.113
  0.113   0.122   0.145   0.162   0.162   0.177   0.208   0.224
  0.228   0.228   0.265   0.298   0.354   0.361   0.370   0.370
  0.388   0.388   0.423   0.441   0.441   0.457   0.467   0.476
  0.480   0.480   0.494   0.494   0.516   0.534   0.549   0.550
  0.553   0.554   0.604   0.621   0.673   0.673   0.684   0.701
  0.720   0.758   0.782   0.791   0.791   0.861   0.915   0.915
  0.935   0.952   0.978   0.982   0.982   1.007   1.007   1.060
  1.060   1.061   1.110   1.110   1.165   1.176   1.176   1.186
  1.224   1.224   1.242   1.248   1.267   1.284   1.292   1.327
  1.327   1.336   1.349   1.376   1.419   1.439   1.439   1.447
  1.462   1.462   1.466   1.513   1.606   1.641   1.641   1.672
  2.307   2.307   2.376   2.436   2.459   2.459   2.473   2.494
  2.511   2.511   2.529   2.571   2.618   2.618   2.650   2.704
  2.722   2.722   2.737   2.758   2.815   2.815   2.834   2.835
  2.883   2.883   2.907   2.919   2.919   2.957   2.980   2.994
  3.024   3.064   3.064   3.076   3.113   3.176   3.176   3.183
  3.213   3.213   3.273   3.273   3.279   3.294   3.311   3.323
  3.380   3.380   3.400   3.421   3.421   3.436   3.516   3.601
  3.628   3.684   3.708   3.708   3.757   3.757   3.788   3.878
  3.920   3.921   3.933   3.942   3.970   3.970   4.063   4.076
  4.101   4.106   4.167   4.169   4.179   4.193   4.193   4.227
  4.227   4.309   4.309   4.354   4.355   4.355   4.375   4.419
  4.508   4.547   4.709   4.709   4.778   4.778   4.906   5.074
  5.194   5.246   5.246   5.323   5.430   5.430   5.436   5.471
  5.555   5.555   5.569  23.834  23.843  24.081  24.081  24.151
 27.201  27.253  27.307  27.307  27.675  27.776  27.825  27.825
 27.837  27.867  27.867  27.876  28.277  28.277  28.712  40.589
 40.609  40.627  40.689  40.695  40.695  40.697  40.733  40.733
 40.740  40.863  40.870  40.870  40.877  40.877  40.886  40.909
 40.921  40.971  40.972  40.978  40.980  40.996  41.063  41.063
 --------------------------------------------------------------
 
          Ground-State Mulliken Net Atomic Charges

     Atom                 Charge (a.u.)    Spin (a.u.)
  --------------------------------------------------------
      1 C                     0.457866      -0.058945
      2 C                    -0.178665       0.277349
      3 C                    -0.178550       0.276208
      4 C                    -0.178849       0.277199
      5 C                    -0.179669       0.276191
      6 H                     0.157157      -0.006097
      7 H                     0.157230      -0.006001
      8 H                     0.157090      -0.005992
      9 H                     0.157303      -0.005931
     10 H                     0.157206      -0.006087
     11 H                     0.157292      -0.005976
     12 H                     0.157258      -0.006020
     13 H                     0.157330      -0.005897
  --------------------------------------------------------
  Sum of atomic charges =     1.000000
  Sum of spin   charges =     1.000000

 -----------------------------------------------------------------
                    Cartesian Multipole Moments
 -----------------------------------------------------------------
    Charge (ESU x 10^10)
                 4.8032
    Dipole Moment (Debye)
         X       0.0041      Y       0.0007      Z       4.8020
       Tot       4.8020
    Quadrupole Moments (Debye-Ang)
        XX     -18.0622     XY       0.0013     YY     -23.8794
        XZ       0.0058     YZ       0.0008     ZZ     -19.0816
    Octapole Moments (Debye-Ang^2)
       XXX       0.0076    XXY       0.0007    XYY       2.5347
       YYY      -0.0002    XXZ     -18.0633    XYZ       0.0013
       YYZ     -23.8808    XZZ      -2.5256    YZZ       0.0020
       ZZZ     -66.8477
    Hexadecapole Moments (Debye-Ang^3)
      XXXX    -277.6064   XXXY       0.0075   XXYY     -48.8755
      XYYY      -0.0004   YYYY     -92.2613   XXXZ       0.0168
      XXYZ       0.0008   XYYZ       2.5347   YYYZ      -0.0002
      XXZZ     -66.9437   XYZZ       0.0015   YYZZ     -46.9827
      XZZZ      -7.5908   YZZZ       0.0043   ZZZZ    -230.7633
 -----------------------------------------------------------------
 Total job time:  1177.54s(wall), 1172.84s(cpu) 
 Tue Apr 30 23:04:55 2013

        *************************************************************
        *                                                           *
        *  Thank you very much for using Q-Chem.  Have a nice day.  *
        *                                                           *
        *************************************************************


0 sent ACK to 0 
now end server 0 ... 
