Process 0 of 1 is on cl196.stfx.acenet.ca - thread support 1
initial socket setup ...start
initial socket setup ...done 
now start server 0 ... 

cmd = /usr/bin/ssh clhead /usr/local/qchem/bin/get_hostid 470602154 > /globalscratch/itamblyn/bnl/g297_b3lyp_neut_g03Large_worked/g2g71099/omega1000/qchem16616/lic.dat
                  Welcome to Q-Chem
     A Quantum Leap Into The Future Of Chemistry

 Y. Shao, L. Fusti-Molnar, Y. Jung, J. Kussmann, C. Ochsenfeld,
 S. T. Brown, A. T. B. Gilbert, L. V. Slipchenko,S. V. Levchenko,
 D. P. O'Neill, R. A. DiStasio Jr., R. C. Lochan, T. Wang,
 G. J. O. Beran, N. A. Besley, J. M. Herbert, C. Y. Lin,
 T. Van Voorhis, S. H. Chien, A. Sodt, R. P. Steele, 
 V. A. Rassolov, P. E. Maslen, P. P. Korambath, R. D. Adamson,
 B. Austin, J. Baker, E. F. C. Byrd, H. Dachsel, R. J. Doerksen,
 A. Dreuw, B. D. Dunietz, A. D. Dutoi, T. R. Furlani,
 S. R. Gwaltney, A. Heyden, S. Hirata, C.-P. Hsu, G. Kedziora,
 R. Z. Khaliullin, P. Klunzinger, A. M. Lee, M. S. Lee, W. Liang,
 I. Lotan, N. Nair, B. Peters, E. I. Proynov, P. A. Pieniazek, 
 Y. M. Rhee, J. Ritchie, E. Rosta, C. D. Sherrill, 
 A. C. Simmonett, J. E. Subotnik, H. L. Woodcock III,
 W. Zhang, A. T. Bell, A. K. Chakraborty, D. M. Chipman,
 F. J. Keil, A. Warshel, W. J. Hehre, H. F. Schaefer III,
 J. Kong, A. I. Krylov, P. M. W. Gill, M. Head-Gordon,
 Q-Chem, Version 3.1, Q-Chem, Inc., Pittsburgh, PA (2007).

 Additional authors for Version 3.1: 
 Z. Gan, Y. Zhao, N. E. Schultz, D. Truhlar, E. Epifanovsky and M. Oana.

 Additional authors for Version 3.2: 
 R. Baer, B. R. Brooks, D. Casanova, J.-D. Chai, C.-L. Cheng, 
 C. Cramer, D. Crittenden, A. Ghysels, G. Hawkins, E. G. Hohenstein, 
 C. Kelley, W. Kurlancheek, D. Liotard, E. Livshits, P. Manohar, 
 A. Marenich, D. Neuhauser, R. Olson, M. A. Rohrdanz, K. S. Thanthiriwatte, 
 A. J. W. Thom, V. Vanovschi, C. F. Williams, Q. Wu and Z.-Q. You. 


 Intel X86 Linux Version

 Q-chem begins on Tue Apr 12 22:26:45 2011  

 Parallel job on  1  processors
Processing $rem in /usr/local/qchem/config/preferences.

theFileMan(): MAXOPENFILES=974 MAX_SUB_FILE_NUM=16
Maximum size of a physical file is 2.0 GB, maximum size of a tmp-file is 32.0 GB


--------------------------------------------------------------
User input:
--------------------------------------------------------------

$molecule
-1,2
C,-0.301099955,-1.1091315526,0.7344114371
O,-0.3127296016,0.329463745,0.7631762888
H,-0.6986887388,-1.4065121175,1.7044826967
H,0.7170681417,-1.4858547654,0.5992218023
H,-0.9316379175,-1.4856727664,-0.0764532137
N,0.1605192623,0.958228041,-0.3914229143
O,0.5122575277,0.2111903398,-1.2498962273

$end

$comment
negative
$end

$xc_functional
   X HF 1.0
   X BNL 1.0
   C LYP 1.0
$end

$rem
SYMMETRY_DECOMPOSITION	0
exchange 		general
BASIS                   g3large
omega			1000
separate_jk		true
mem_static              760
max_scf_cycles          200
scf_final_print         1
sym_ignore              true
$end

--------------------------------------------------------------
 Writing REM_CC_EA            7
 ----------------------------------------------------
       Standard Nuclear Orientation (Angstroms)
    I     Atom         X            Y            Z
 ----------------------------------------------------
    1      C      -0.301100    -1.109132     0.734411
    2      O      -0.312730     0.329464     0.763176
    3      H      -0.698689    -1.406512     1.704483
    4      H       0.717068    -1.485855     0.599222
    5      H      -0.931638    -1.485673    -0.076453
    6      N       0.160519     0.958228    -0.391423
    7      O       0.512258     0.211190    -1.249896
 ----------------------------------------------------
 Nuclear Repulsion Energy =   122.8117481126 hartrees
 There are       17 alpha and       16 beta electrons
 Requested basis set is G3large
 There are 58 shells and 198 basis functions

Total QAlloc Memory Limit   2000 MB
Mega-Array Size       743 MB
MEM_STATIC part       760 MB

                       Distance Matrix (Angstroms)
             C (  1)   O (  2)   H (  3)   H (  4)   H (  5)   N (  6)
   O (  2)  1.438930
   H (  3)  1.089748  2.012122
   H (  4)  1.094012  2.093501  1.797850
   H (  5)  1.094012  2.093501  1.797850  1.781788
   N (  6)  2.398869  1.397286  3.274608  2.695304  2.695304
   O (  7)  2.518388  2.178773  3.579344  2.518163  2.518163  1.191118

 
 A cutoff of  1.0D-08 yielded   1568 shell pairs
 There are  18510 function pairs ( 23394 Cartesian)
Evaluating contribution to one-electron hamiltonian from nuclear
 Smallest overlap matrix eigenvalue = 4.93E-04
 Multipole matrices computed through 2nd order

  Scale SEOQF with 1.000000e-01/1.000000e-01/1.000000e-01

 Standard Electronic Orientation quadrupole field applied
 Nucleus-field energy     =    -0.0000000009 hartrees
 Guess from superposition of atomic densities
 Warning:  Energy on first SCF cycle will be non-variational
 An unrestricted hybrid HF-DFT SCF calculation will be
 performed using Pulay DIIS extrapolation
 Exchange:     1.0000 Hartree-Fock + 1.0000 BNL
 Correlation:  1.0000 LYP
 Using SG-1 standard quadrature grid
 SCF converges when DIIS error is below 1.0E-05
 Warning!  Inaccurate integrated density:
   Number of electrons =    33
   Numerical integral  =    31.999888492574
   Relative error      =    -3.0306409316 %
 ---------------------------------------
  Cycle       Energy         DIIS Error
 ---------------------------------------
    1    -244.0655979455      3.41E-02
    2    -243.1184236264      4.84E-03
    3    -243.1935423123      3.31E-03
    4    -243.2294527592      6.66E-04
    5    -243.2329748843      2.07E-04
    6    -243.2337127092      1.24E-04
    7    -243.2339135631      4.42E-05
    8    -243.2339843853      2.03E-05
    9    -243.2340022079      1.01E-05
   10    -243.2340095390      4.84E-06 Convergence criterion met
 ---------------------------------------
 One-Electron    Energy =  -586.5177289245
 Total Coulomb   Energy =   249.4675699960
 Alpha Exchange  Energy =    -6.6600074572
 Beta  Exchange  Energy =    -6.2156240766
 DFT   Exchange  Energy =   -14.9710048237
 DFT Correlation Energy =    -1.1489623647
 Nuclear Repu.   Energy =   122.8117481116
 Nuclear Attr.   Energy =  -828.8548292830
 Kinetic         Energy =   242.3371003586
 <S^2> = 0.7603
 SCF time:  CPU 120.10 s  wall 146.38 s
 Final Alpha MO Eigenvalues
            1           2           3           4           5           6
    1 -18.8856885 -18.8206264 -14.1949754 -10.1706614  -1.2217367  -1.0659212
            7           8           9          10          11          12
    1  -0.7721351  -0.6096988  -0.4879927  -0.4861486  -0.4475046  -0.4052119
           13          14          15          16          17          18
    1  -0.3636633  -0.3010325  -0.2780510  -0.1654749  -0.0704808   0.1468287
           19          20          21          22
    1   0.1766120   0.1881419   0.2294828   0.2701294
 Final Beta MO Eigenvalues
            1           2           3           4           5           6
    1 -18.8837928 -18.8099452 -14.1758893 -10.1708397  -1.1969922  -1.0534957
            7           8           9          10          11          12
    1  -0.7614597  -0.5766115  -0.4763915  -0.4564900  -0.4365110  -0.3563405
           13          14          15          16          17          18
    1  -0.3212040  -0.2887936  -0.2235130  -0.1440697   0.1469733   0.1767050
           19          20          21
    1   0.1884156   0.2299717   0.2701943
 Analysis of SCF Wavefunction
 
 --------------------------------------------------------------
                    Orbital Energies (a.u.)
 --------------------------------------------------------------
 
 Alpha MOs
 -- Occupied --
-18.886 -18.821 -14.195 -10.171  -1.222  -1.066  -0.772  -0.610
 -0.488  -0.486  -0.448  -0.405  -0.364  -0.301  -0.278  -0.165
 -0.070
 -- Virtual --
  0.147   0.177   0.188   0.229   0.270   0.288   0.311   0.323
  0.342   0.362   0.396   0.406   0.427   0.444   0.471   0.478
  0.494   0.515   0.520   0.565   0.569   0.626   0.653   0.696
  0.701   0.774   0.844   0.852   0.853   0.877   0.931   0.935
  1.032   1.120   1.152   1.159   1.179   1.203   1.283   1.286
  1.349   1.366   1.408   1.435   1.442   1.483   1.496   1.552
  1.559   1.567   1.599   1.636   1.640   1.701   1.708   1.761
  1.784   1.863   1.918   1.993   2.036   2.065   2.141   2.220
  2.330   2.374   2.470   2.478   2.622   2.671   2.773   2.843
  2.900   2.962   3.020   3.163   3.354   3.457   3.504   3.530
  3.567   3.671   3.740   3.794   3.816   3.883   3.911   4.092
  4.097   4.156   4.193   4.245   4.248   4.275   4.340   4.346
  4.473   4.496   4.565   4.576   4.630   4.738   4.778   4.785
  4.787   4.895   5.084   5.253   5.254   5.313   5.391   5.406
  5.517   5.521   5.607   5.626   5.637   5.696   5.712   5.775
  5.846   5.980   5.998   6.039   6.107   6.147   6.211   6.262
  6.490   6.641   6.913   7.143   7.167   7.374   7.417   7.530
  7.626   7.713   7.762   7.804   7.836   7.936   8.234   8.337
  8.422  24.905  28.525  28.562  28.629  36.516  37.971  38.367
 38.846  41.002  41.029  41.101  41.170  41.397  41.411  41.460
 41.653  41.688  41.741  44.272  44.292  44.318  44.365  44.377
 44.395  44.412  44.492  44.536  44.607  46.312  46.405  46.496
 46.599  47.015  47.221  50.706  50.964
 
 Beta MOs
 -- Occupied --
-18.884 -18.810 -14.176 -10.171  -1.197  -1.053  -0.761  -0.577
 -0.476  -0.456  -0.437  -0.356  -0.321  -0.289  -0.224  -0.144
 -- Virtual --
  0.147   0.177   0.188   0.230   0.270   0.288   0.312   0.323
  0.344   0.345   0.396   0.406   0.418   0.430   0.446   0.471
  0.480   0.511   0.522   0.532   0.566   0.573   0.639   0.653
  0.701   0.703   0.774   0.850   0.853   0.854   0.890   0.933
  0.938   1.034   1.125   1.164   1.178   1.209   1.214   1.285
  1.297   1.351   1.369   1.413   1.439   1.444   1.509   1.511
  1.562   1.563   1.581   1.602   1.643   1.664   1.710   1.715
  1.763   1.785   1.865   1.923   2.000   2.054   2.074   2.150
  2.240   2.336   2.379   2.486   2.486   2.643   2.677   2.775
  2.846   2.902   2.972   3.025   3.164   3.354   3.457   3.504
  3.531   3.568   3.672   3.743   3.795   3.817   3.884   3.914
  4.095   4.118   4.182   4.243   4.270   4.273   4.282   4.342
  4.350   4.500   4.507   4.571   4.578   4.634   4.741   4.779
  4.787   4.795   4.896   5.104   5.270   5.298   5.326   5.414
  5.441   5.534   5.541   5.624   5.640   5.670   5.706   5.730
  5.783   5.854   5.988   6.006   6.051   6.114   6.157   6.218
  6.266   6.500   6.645   6.916   7.170   7.174   7.405   7.430
  7.555   7.638   7.720   7.781   7.817   7.844   7.944   8.241
  8.347   8.428  24.905  28.525  28.562  28.629  36.539  38.001
 38.378  38.858  41.039  41.052  41.138  41.202  41.409  41.414
 41.460  41.653  41.688  41.741  44.287  44.310  44.334  44.376
 44.388  44.402  44.429  44.494  44.539  44.619  46.316  46.425
 46.502  46.601  47.017  47.227  50.709  50.975
 --------------------------------------------------------------
 
          Ground-State Mulliken Net Atomic Charges

     Atom                 Charge (a.u.)    Spin (a.u.)
  --------------------------------------------------------
      1 C                    -0.169532      -0.006263
      2 O                    -0.110597       0.012474
      3 H                     0.048430      -0.001368
      4 H                     0.081673       0.001370
      5 H                     0.081706       0.001390
      6 N                    -0.437674       0.716969
      7 O                    -0.494006       0.275428
  --------------------------------------------------------
  Sum of atomic charges =    -1.000000
  Sum of spin   charges =     1.000000

 -----------------------------------------------------------------
                    Cartesian Multipole Moments
 -----------------------------------------------------------------
    Charge (ESU x 10^10)
                -4.8032
    Dipole Moment (Debye)
         X      -1.0248      Y      -3.5629      Z       2.4962
       Tot       4.4694
    Quadrupole Moments (Debye-Ang)
        XX     -27.1674     XY      -0.0850     YY     -30.2866
        XZ       2.8370     YZ       0.1966     ZZ     -32.9258
    Octapole Moments (Debye-Ang^2)
       XXX      -0.1111    XXY      -0.9863    XYY      -0.0637
       YYY      -4.5251    XXZ       0.9180    XYZ       0.5146
       YYZ       0.1397    XZZ      -2.9038    YZZ      -2.0267
       ZZZ       6.4332
    Hexadecapole Moments (Debye-Ang^3)
      XXXX     -54.4377   XXXY     -12.0904   XXYY     -33.5614
      XYYY     -13.1785   YYYY    -157.9611   XXXZ      24.8973
      XXYZ       9.5898   XYYZ       7.6675   YYYZ      32.1020
      XXZZ     -35.2937   XYZZ      -3.2198   YYZZ     -49.1191
      XZZZ      25.8158   YZZZ      27.7293   ZZZZ    -157.3767
 -----------------------------------------------------------------
 Total job time:  149.02s(wall), 120.36s(cpu) 
 Tue Apr 12 22:29:14 2011

        *************************************************************
        *                                                           *
        *  Thank you very much for using Q-Chem.  Have a nice day.  *
        *                                                           *
        *************************************************************


0 sent ACK to 0 
now end server 0 ... 
 
**********************************************************************
Job 2 of 3 
**********************************************************************
 
Process 0 of 1 is on cl196.stfx.acenet.ca - thread support 1
initial socket setup ...start
initial socket setup ...done 
now start server 0 ... 

cmd = /usr/bin/ssh clhead /usr/local/qchem/bin/get_hostid 420248610 > /globalscratch/itamblyn/bnl/g297_b3lyp_neut_g03Large_worked/g2g71099/omega1000/qchem16616/lic.dat
                  Welcome to Q-Chem
     A Quantum Leap Into The Future Of Chemistry

 Y. Shao, L. Fusti-Molnar, Y. Jung, J. Kussmann, C. Ochsenfeld,
 S. T. Brown, A. T. B. Gilbert, L. V. Slipchenko,S. V. Levchenko,
 D. P. O'Neill, R. A. DiStasio Jr., R. C. Lochan, T. Wang,
 G. J. O. Beran, N. A. Besley, J. M. Herbert, C. Y. Lin,
 T. Van Voorhis, S. H. Chien, A. Sodt, R. P. Steele, 
 V. A. Rassolov, P. E. Maslen, P. P. Korambath, R. D. Adamson,
 B. Austin, J. Baker, E. F. C. Byrd, H. Dachsel, R. J. Doerksen,
 A. Dreuw, B. D. Dunietz, A. D. Dutoi, T. R. Furlani,
 S. R. Gwaltney, A. Heyden, S. Hirata, C.-P. Hsu, G. Kedziora,
 R. Z. Khaliullin, P. Klunzinger, A. M. Lee, M. S. Lee, W. Liang,
 I. Lotan, N. Nair, B. Peters, E. I. Proynov, P. A. Pieniazek, 
 Y. M. Rhee, J. Ritchie, E. Rosta, C. D. Sherrill, 
 A. C. Simmonett, J. E. Subotnik, H. L. Woodcock III,
 W. Zhang, A. T. Bell, A. K. Chakraborty, D. M. Chipman,
 F. J. Keil, A. Warshel, W. J. Hehre, H. F. Schaefer III,
 J. Kong, A. I. Krylov, P. M. W. Gill, M. Head-Gordon,
 Q-Chem, Version 3.1, Q-Chem, Inc., Pittsburgh, PA (2007).

 Additional authors for Version 3.1: 
 Z. Gan, Y. Zhao, N. E. Schultz, D. Truhlar, E. Epifanovsky and M. Oana.

 Additional authors for Version 3.2: 
 R. Baer, B. R. Brooks, D. Casanova, J.-D. Chai, C.-L. Cheng, 
 C. Cramer, D. Crittenden, A. Ghysels, G. Hawkins, E. G. Hohenstein, 
 C. Kelley, W. Kurlancheek, D. Liotard, E. Livshits, P. Manohar, 
 A. Marenich, D. Neuhauser, R. Olson, M. A. Rohrdanz, K. S. Thanthiriwatte, 
 A. J. W. Thom, V. Vanovschi, C. F. Williams, Q. Wu and Z.-Q. You. 


 Intel X86 Linux Version

 Q-chem begins on Tue Apr 12 22:29:17 2011  

 Parallel job on  1  processors
Processing $rem in /usr/local/qchem/config/preferences.

theFileMan(): MAXOPENFILES=974 MAX_SUB_FILE_NUM=16
Maximum size of a physical file is 2.0 GB, maximum size of a tmp-file is 32.0 GB


--------------------------------------------------------------
User input:
--------------------------------------------------------------

$molecule
0,1
C,-0.301099955,-1.1091315526,0.7344114371
O,-0.3127296016,0.329463745,0.7631762888
H,-0.6986887388,-1.4065121175,1.7044826967
H,0.7170681417,-1.4858547654,0.5992218023
H,-0.9316379175,-1.4856727664,-0.0764532137
N,0.1605192623,0.958228041,-0.3914229143
O,0.5122575277,0.2111903398,-1.2498962273

$end

$comment
neutral
$end

$xc_functional
   X HF 1.0
   X BNL 1.0
   C LYP 1.0
$end

$rem
SYMMETRY_DECOMPOSITION	0
exchange 		general
BASIS                   g3large
omega			1000
separate_jk		true
mem_static              760
max_scf_cycles          200
scf_final_print         1
sym_ignore              true
$end

--------------------------------------------------------------
 Writing REM_CC_EA            7
 ----------------------------------------------------
       Standard Nuclear Orientation (Angstroms)
    I     Atom         X            Y            Z
 ----------------------------------------------------
    1      C      -0.301100    -1.109132     0.734411
    2      O      -0.312730     0.329464     0.763176
    3      H      -0.698689    -1.406512     1.704483
    4      H       0.717068    -1.485855     0.599222
    5      H      -0.931638    -1.485673    -0.076453
    6      N       0.160519     0.958228    -0.391423
    7      O       0.512258     0.211190    -1.249896
 ----------------------------------------------------
 Nuclear Repulsion Energy =   122.8117481126 hartrees
 There are       16 alpha and       16 beta electrons
 Requested basis set is G3large
 There are 58 shells and 198 basis functions

Total QAlloc Memory Limit   2000 MB
Mega-Array Size       743 MB
MEM_STATIC part       760 MB

                       Distance Matrix (Angstroms)
             C (  1)   O (  2)   H (  3)   H (  4)   H (  5)   N (  6)
   O (  2)  1.438930
   H (  3)  1.089748  2.012122
   H (  4)  1.094012  2.093501  1.797850
   H (  5)  1.094012  2.093501  1.797850  1.781788
   N (  6)  2.398869  1.397286  3.274608  2.695304  2.695304
   O (  7)  2.518388  2.178773  3.579344  2.518163  2.518163  1.191118

 
 A cutoff of  1.0D-08 yielded   1568 shell pairs
 There are  18510 function pairs ( 23394 Cartesian)
Evaluating contribution to one-electron hamiltonian from nuclear
 Smallest overlap matrix eigenvalue = 4.93E-04
 Multipole matrices computed through 2nd order

  Scale SEOQF with 1.000000e-01/1.000000e-01/1.000000e-01

 Standard Electronic Orientation quadrupole field applied
 Nucleus-field energy     =    -0.0000000009 hartrees
 Guess from superposition of atomic densities
 Warning:  Energy on first SCF cycle will be non-variational
 A restricted hybrid HF-DFT SCF calculation will be
 performed using Pulay DIIS extrapolation
 Exchange:     1.0000 Hartree-Fock + 1.0000 BNL
 Correlation:  1.0000 LYP
 Using SG-1 standard quadrature grid
 SCF converges when DIIS error is below 1.0E-05
 ---------------------------------------
  Cycle       Energy         DIIS Error
 ---------------------------------------
    1    -244.0655979455      3.41E-02
    2    -243.0979540518      5.36E-03
    3    -243.1558097468      4.30E-03
    4    -243.2146798137      8.95E-04
    5    -243.2188885227      3.42E-04
    6    -243.2200713525      1.84E-04
    7    -243.2204309992      8.67E-05
    8    -243.2205793973      3.35E-05
    9    -243.2206137331      1.67E-05
   10    -243.2206374135      8.51E-06 Convergence criterion met
 ---------------------------------------
 One-Electron    Energy =  -577.2391503369
 Total Coulomb   Energy =   239.7757421274
 Alpha Exchange  Energy =    -6.2873150365
 Beta  Exchange  Energy =    -6.2873150365
 DFT   Exchange  Energy =   -14.8749211081
 DFT Correlation Energy =    -1.1194261344
 Nuclear Repu.   Energy =   122.8117481116
 Nuclear Attr.   Energy =  -818.9420336923
 Kinetic         Energy =   241.7028833554
 SCF time:  CPU 98.04 s  wall 131.18 s
 Final Alpha MO Eigenvalues
            1           2           3           4           5           6
    1 -19.1861114 -19.1748875 -14.5936340 -10.3827426  -1.5461277  -1.3576752
            7           8           9          10          11          12
    1  -1.0219632  -0.8681794  -0.7782159  -0.7386844  -0.7302482  -0.6288099
           13          14          15          16          17          18
    1  -0.6230330  -0.5705397  -0.5112852  -0.4803982   0.0318503   0.0402287
           19          20          21
    1   0.0620946   0.0641233   0.0845387
 Analysis of SCF Wavefunction
 
 --------------------------------------------------------------
                    Orbital Energies (a.u.)
 --------------------------------------------------------------
 
 Alpha MOs
 -- Occupied --
-19.186 -19.175 -14.594 -10.383  -1.546  -1.358  -1.022  -0.868
 -0.778  -0.739  -0.730  -0.629  -0.623  -0.571  -0.511  -0.480
 -- Virtual --
  0.032   0.040   0.062   0.064   0.085   0.132   0.138   0.155
  0.164   0.171   0.179   0.216   0.238   0.252   0.253   0.273
  0.292   0.304   0.332   0.338   0.347   0.374   0.397   0.446
  0.468   0.517   0.571   0.587   0.666   0.667   0.670   0.716
  0.743   0.809   0.858   0.892   0.924   0.935   0.981   1.036
  1.050   1.132   1.140   1.158   1.192   1.215   1.234   1.242
  1.292   1.311   1.329   1.366   1.373   1.408   1.474   1.486
  1.549   1.585   1.630   1.685   1.718   1.746   1.806   1.868
  1.926   2.080   2.088   2.193   2.196   2.331   2.409   2.513
  2.624   2.639   2.667   2.774   2.946   3.147   3.237   3.289
  3.313   3.349   3.447   3.507   3.576   3.576   3.661   3.681
  3.781   3.825   3.859   3.870   3.926   3.935   4.059   4.079
  4.132   4.145   4.200   4.296   4.370   4.399   4.466   4.542
  4.559   4.567   4.683   4.745   4.917   4.929   5.002   5.059
  5.132   5.236   5.248   5.281   5.308   5.313   5.395   5.411
  5.486   5.551   5.691   5.697   5.774   5.834   5.850   5.942
  6.008   6.192   6.349   6.650   6.799   6.856   7.042   7.094
  7.202   7.332   7.411   7.445   7.518   7.522   7.635   7.922
  8.034   8.123  24.692  28.311  28.350  28.418  36.124  37.570
 37.973  38.452  40.610  40.638  40.709  40.778  41.006  41.199
 41.246  41.441  41.475  41.530  43.919  43.947  44.007  44.014
 44.056  44.086  44.111  44.196  44.226  44.267  46.023  46.039
 46.139  46.308  46.712  46.871  50.417  50.603
 --------------------------------------------------------------
 
          Ground-State Mulliken Net Atomic Charges

     Atom                 Charge (a.u.)
  ----------------------------------------
      1 C                    -0.141115
      2 O                    -0.059117
      3 H                     0.116999
      4 H                     0.117616
      5 H                     0.117681
      6 N                    -0.042679
      7 O                    -0.109385
  ----------------------------------------
  Sum of atomic charges =     0.000000

 -----------------------------------------------------------------
                    Cartesian Multipole Moments
 -----------------------------------------------------------------
    Charge (ESU x 10^10)
                 0.0000
    Dipole Moment (Debye)
         X      -0.3722      Y      -2.0899      Z       0.9044
       Tot       2.3074
    Quadrupole Moments (Debye-Ang)
        XX     -22.4495     XY       0.7130     YY     -22.2967
        XZ       1.0822     YZ      -1.7472     ZZ     -24.6454
    Octapole Moments (Debye-Ang^2)
       XXX       1.5037    XXY      -0.3303    XYY      -0.3124
       YYY      -2.4660    XXZ      -0.4498    XYZ       1.0364
       YYZ       0.7509    XZZ      -2.1739    YZZ      -2.4289
       ZZZ       2.0824
    Hexadecapole Moments (Debye-Ang^3)
      XXXX     -42.1430   XXXY     -10.2447   XXYY     -25.3339
      XYYY     -10.0136   YYYY    -122.2072   XXXZ      20.6831
      XXYZ       7.8493   XYYZ       6.5377   YYYZ      24.4024
      XXZZ     -27.6350   XYZZ      -1.7599   YYZZ     -38.5999
      XZZZ      19.4425   YZZZ      21.4208   ZZZZ    -123.5878
 -----------------------------------------------------------------
 Total job time:  135.28s(wall), 98.27s(cpu) 
 Tue Apr 12 22:31:32 2011

        *************************************************************
        *                                                           *
        *  Thank you very much for using Q-Chem.  Have a nice day.  *
        *                                                           *
        *************************************************************


0 sent ACK to 0 
now end server 0 ... 
 
**********************************************************************
Job 3 of 3 
**********************************************************************
 
Process 0 of 1 is on cl196.stfx.acenet.ca - thread support 1
initial socket setup ...start
initial socket setup ...done 
now start server 0 ... 

cmd = /usr/bin/ssh clhead /usr/local/qchem/bin/get_hostid 1080996220 > /globalscratch/itamblyn/bnl/g297_b3lyp_neut_g03Large_worked/g2g71099/omega1000/qchem16616/lic.dat
                  Welcome to Q-Chem
     A Quantum Leap Into The Future Of Chemistry

 Y. Shao, L. Fusti-Molnar, Y. Jung, J. Kussmann, C. Ochsenfeld,
 S. T. Brown, A. T. B. Gilbert, L. V. Slipchenko,S. V. Levchenko,
 D. P. O'Neill, R. A. DiStasio Jr., R. C. Lochan, T. Wang,
 G. J. O. Beran, N. A. Besley, J. M. Herbert, C. Y. Lin,
 T. Van Voorhis, S. H. Chien, A. Sodt, R. P. Steele, 
 V. A. Rassolov, P. E. Maslen, P. P. Korambath, R. D. Adamson,
 B. Austin, J. Baker, E. F. C. Byrd, H. Dachsel, R. J. Doerksen,
 A. Dreuw, B. D. Dunietz, A. D. Dutoi, T. R. Furlani,
 S. R. Gwaltney, A. Heyden, S. Hirata, C.-P. Hsu, G. Kedziora,
 R. Z. Khaliullin, P. Klunzinger, A. M. Lee, M. S. Lee, W. Liang,
 I. Lotan, N. Nair, B. Peters, E. I. Proynov, P. A. Pieniazek, 
 Y. M. Rhee, J. Ritchie, E. Rosta, C. D. Sherrill, 
 A. C. Simmonett, J. E. Subotnik, H. L. Woodcock III,
 W. Zhang, A. T. Bell, A. K. Chakraborty, D. M. Chipman,
 F. J. Keil, A. Warshel, W. J. Hehre, H. F. Schaefer III,
 J. Kong, A. I. Krylov, P. M. W. Gill, M. Head-Gordon,
 Q-Chem, Version 3.1, Q-Chem, Inc., Pittsburgh, PA (2007).

 Additional authors for Version 3.1: 
 Z. Gan, Y. Zhao, N. E. Schultz, D. Truhlar, E. Epifanovsky and M. Oana.

 Additional authors for Version 3.2: 
 R. Baer, B. R. Brooks, D. Casanova, J.-D. Chai, C.-L. Cheng, 
 C. Cramer, D. Crittenden, A. Ghysels, G. Hawkins, E. G. Hohenstein, 
 C. Kelley, W. Kurlancheek, D. Liotard, E. Livshits, P. Manohar, 
 A. Marenich, D. Neuhauser, R. Olson, M. A. Rohrdanz, K. S. Thanthiriwatte, 
 A. J. W. Thom, V. Vanovschi, C. F. Williams, Q. Wu and Z.-Q. You. 


 Intel X86 Linux Version

 Q-chem begins on Tue Apr 12 22:31:36 2011  

 Parallel job on  1  processors
Processing $rem in /usr/local/qchem/config/preferences.

theFileMan(): MAXOPENFILES=974 MAX_SUB_FILE_NUM=16
Maximum size of a physical file is 2.0 GB, maximum size of a tmp-file is 32.0 GB


--------------------------------------------------------------
User input:
--------------------------------------------------------------

$molecule
1,2
C,-0.301099955,-1.1091315526,0.7344114371
O,-0.3127296016,0.329463745,0.7631762888
H,-0.6986887388,-1.4065121175,1.7044826967
H,0.7170681417,-1.4858547654,0.5992218023
H,-0.9316379175,-1.4856727664,-0.0764532137
N,0.1605192623,0.958228041,-0.3914229143
O,0.5122575277,0.2111903398,-1.2498962273

$end

$comment
positive
$end

$xc_functional
   X HF 1.0
   X BNL 1.0
   C LYP 1.0
$end

$rem
SYMMETRY_DECOMPOSITION	0
exchange 		general
BASIS                   g3large
omega			1000
separate_jk		true
mem_static              760
max_scf_cycles          200
scf_final_print         1
sym_ignore              true
$end

--------------------------------------------------------------
 Writing REM_CC_EA            7
 ----------------------------------------------------
       Standard Nuclear Orientation (Angstroms)
    I     Atom         X            Y            Z
 ----------------------------------------------------
    1      C      -0.301100    -1.109132     0.734411
    2      O      -0.312730     0.329464     0.763176
    3      H      -0.698689    -1.406512     1.704483
    4      H       0.717068    -1.485855     0.599222
    5      H      -0.931638    -1.485673    -0.076453
    6      N       0.160519     0.958228    -0.391423
    7      O       0.512258     0.211190    -1.249896
 ----------------------------------------------------
 Nuclear Repulsion Energy =   122.8117481126 hartrees
 There are       16 alpha and       15 beta electrons
 Requested basis set is G3large
 There are 58 shells and 198 basis functions

Total QAlloc Memory Limit   2000 MB
Mega-Array Size       743 MB
MEM_STATIC part       760 MB

                       Distance Matrix (Angstroms)
             C (  1)   O (  2)   H (  3)   H (  4)   H (  5)   N (  6)
   O (  2)  1.438930
   H (  3)  1.089748  2.012122
   H (  4)  1.094012  2.093501  1.797850
   H (  5)  1.094012  2.093501  1.797850  1.781788
   N (  6)  2.398869  1.397286  3.274608  2.695304  2.695304
   O (  7)  2.518388  2.178773  3.579344  2.518163  2.518163  1.191118

 
 A cutoff of  1.0D-08 yielded   1568 shell pairs
 There are  18510 function pairs ( 23394 Cartesian)
Evaluating contribution to one-electron hamiltonian from nuclear
 Smallest overlap matrix eigenvalue = 4.93E-04
 Multipole matrices computed through 2nd order

  Scale SEOQF with 1.000000e-01/1.000000e-01/1.000000e-01

 Standard Electronic Orientation quadrupole field applied
 Nucleus-field energy     =    -0.0000000009 hartrees
 Guess from superposition of atomic densities
 Warning:  Energy on first SCF cycle will be non-variational
 An unrestricted hybrid HF-DFT SCF calculation will be
 performed using Pulay DIIS extrapolation
 Exchange:     1.0000 Hartree-Fock + 1.0000 BNL
 Correlation:  1.0000 LYP
 Using SG-1 standard quadrature grid
 SCF converges when DIIS error is below 1.0E-05
 Warning!  Inaccurate integrated density:
   Number of electrons =    31
   Numerical integral  =    31.999888492574
   Relative error      =     3.2254467502 %
 ---------------------------------------
  Cycle       Energy         DIIS Error
 ---------------------------------------
    1    -244.0655979455      3.41E-02
    2    -242.5286272289      6.78E-03
    3    -242.6284742623      6.23E-03
    4    -242.7586403831      1.48E-03
    5    -242.7713103324      5.65E-04
    6    -242.7775857261      3.29E-04
    7    -242.7813284691      2.70E-04
    8    -242.7860664624      1.98E-04
    9    -242.7900184708      1.44E-04
   10    -242.7927888387      9.04E-05
   11    -242.7945063533      4.93E-05
   12    -242.7950519082      4.21E-05
   13    -242.7953891140      3.96E-05
   14    -242.7955608473      2.91E-05
   15    -242.7957424302      1.38E-05
   16    -242.7957908069      7.81E-06 Convergence criterion met
 ---------------------------------------
 One-Electron    Energy =  -567.2007617574
 Total Coulomb   Energy =   229.7401488004
 Alpha Exchange  Energy =    -6.3668399146
 Beta  Exchange  Energy =    -5.9066912093
 DFT   Exchange  Energy =   -14.7931353645
 DFT Correlation Energy =    -1.0802594731
 Nuclear Repu.   Energy =   122.8117481116
 Nuclear Attr.   Energy =  -808.4188252664
 Kinetic         Energy =   241.2180635090
 <S^2> = 0.7796
 SCF time:  CPU 204.02 s  wall 258.25 s
 Final Alpha MO Eigenvalues
            1           2           3           4           5           6
    1 -19.6228498 -19.5117147 -14.9527788 -10.6149985  -1.9247465  -1.6909828
            7           8           9          10          11          12
    1  -1.3295554  -1.1887718  -1.1396124  -1.0723595  -1.0689380  -0.9264112
           13          14          15          16          17          18
    1  -0.9190946  -0.8703437  -0.8221140  -0.7869807  -0.2944345  -0.1121811
           19          20          21
    1  -0.0835058  -0.0757273  -0.0679209
 Final Beta MO Eigenvalues
            1           2           3           4           5           6
    1 -19.5961854 -19.5072714 -14.9514024 -10.6147837  -1.8862984  -1.6615232
            7           8           9          10          11          12
    1  -1.2954292  -1.1556128  -1.0520765  -1.0513595  -1.0089794  -0.9099828
           13          14          15          16          17          18
    1  -0.8839678  -0.8236466  -0.7851202  -0.3677711  -0.2822859  -0.1104856
           19          20
    1  -0.0780024  -0.0756074
 Analysis of SCF Wavefunction
 
 --------------------------------------------------------------
                    Orbital Energies (a.u.)
 --------------------------------------------------------------
 
 Alpha MOs
 -- Occupied --
-19.623 -19.512 -14.953 -10.615  -1.925  -1.691  -1.330  -1.189
 -1.140  -1.072  -1.069  -0.926  -0.919  -0.870  -0.822  -0.787
 -- Virtual --
 -0.294  -0.112  -0.084  -0.076  -0.068  -0.058  -0.021  -0.018
 -0.006  -0.003   0.004   0.018   0.042   0.060   0.067   0.073
  0.100   0.104   0.120   0.145   0.166   0.169   0.197   0.225
  0.256   0.274   0.325   0.372   0.465   0.469   0.475   0.485
  0.537   0.568   0.588   0.622   0.657   0.700   0.742   0.786
  0.796   0.867   0.891   0.895   0.917   0.937   0.972   0.992
  1.020   1.065   1.084   1.101   1.124   1.146   1.231   1.234
  1.303   1.365   1.382   1.407   1.421   1.474   1.541   1.575
  1.601   1.766   1.807   1.879   1.891   2.023   2.125   2.231
  2.321   2.357   2.390   2.532   2.712   2.922   2.997   3.052
  3.074   3.114   3.194   3.248   3.319   3.339   3.409   3.429
  3.462   3.516   3.535   3.589   3.613   3.629   3.776   3.796
  3.836   3.892   3.903   4.008   4.127   4.148   4.186   4.301
  4.320   4.333   4.387   4.452   4.567   4.578   4.651   4.722
  4.810   4.875   4.896   4.911   4.975   4.986   5.027   5.090
  5.160   5.222   5.343   5.349   5.465   5.504   5.579   5.661
  5.738   5.868   6.015   6.354   6.427   6.512   6.610   6.693
  6.798   6.984   7.039   7.095   7.149   7.209   7.290   7.543
  7.705   7.790  24.459  28.077  28.119  28.186  35.766  37.213
 37.612  38.096  40.253  40.279  40.348  40.424  40.646  40.968
 41.011  41.208  41.241  41.298  43.469  43.494  43.577  43.613
 43.672  43.751  43.778  43.799  43.854  43.913  45.615  45.686
 45.691  45.970  46.341  46.480  50.077  50.174
 
 Beta MOs
 -- Occupied --
-19.596 -19.507 -14.951 -10.615  -1.886  -1.662  -1.295  -1.156
 -1.052  -1.051  -1.009  -0.910  -0.884  -0.824  -0.785
 -- Virtual --
 -0.368  -0.282  -0.110  -0.078  -0.076  -0.067  -0.044  -0.018
 -0.018  -0.003   0.004   0.009   0.020   0.043   0.067   0.069
  0.074   0.102   0.107   0.128   0.145   0.167   0.177   0.202
  0.231   0.260   0.288   0.325   0.376   0.468   0.469   0.476
  0.486   0.540   0.577   0.595   0.619   0.661   0.704   0.745
  0.787   0.799   0.875   0.895   0.899   0.930   0.954   0.973
  1.008   1.025   1.071   1.085   1.104   1.130   1.165   1.237
  1.245   1.312   1.372   1.391   1.420   1.452   1.476   1.543
  1.582   1.625   1.787   1.810   1.900   1.900   2.031   2.131
  2.238   2.336   2.371   2.391   2.537   2.713   2.922   2.998
  3.053   3.076   3.115   3.198   3.251   3.321   3.340   3.412
  3.431   3.466   3.520   3.534   3.591   3.616   3.632   3.786
  3.800   3.836   3.897   3.905   4.014   4.134   4.149   4.189
  4.304   4.322   4.334   4.398   4.452   4.582   4.597   4.674
  4.724   4.823   4.916   4.930   4.949   4.985   4.996   5.059
  5.103   5.175   5.236   5.365   5.366   5.482   5.513   5.583
  5.670   5.740   5.878   6.036   6.360   6.445   6.528   6.689
  6.749   6.851   7.003   7.075   7.111   7.176   7.215   7.308
  7.574   7.719   7.806  24.459  28.077  28.119  28.186  35.768
 37.213  37.617  38.096  40.252  40.281  40.351  40.420  40.649
 40.968  41.012  41.208  41.242  41.298  43.527  43.554  43.618
 43.654  43.684  43.756  43.782  43.836  43.868  43.928  45.636
 45.692  45.729  45.976  46.353  46.493  50.084  50.202
 --------------------------------------------------------------
 
          Ground-State Mulliken Net Atomic Charges

     Atom                 Charge (a.u.)    Spin (a.u.)
  --------------------------------------------------------
      1 C                    -0.147495       0.023127
      2 O                     0.132974       0.136795
      3 H                     0.177213       0.004460
      4 H                     0.162930      -0.003292
      5 H                     0.162781      -0.003281
      6 N                     0.136161       0.013201
      7 O                     0.375436       0.828990
  --------------------------------------------------------
  Sum of atomic charges =     1.000000
  Sum of spin   charges =     1.000000

 -----------------------------------------------------------------
                    Cartesian Multipole Moments
 -----------------------------------------------------------------
    Charge (ESU x 10^10)
                 4.8032
    Dipole Moment (Debye)
         X       0.2118      Y      -1.1958      Z      -0.5157
       Tot       1.3194
    Quadrupole Moments (Debye-Ang)
        XX     -19.0989     XY       1.6039     YY     -15.2023
        XZ      -1.2635     YZ      -3.9015     ZZ     -16.5388
    Octapole Moments (Debye-Ang^2)
       XXX       1.8239    XXY      -0.6122    XYY      -0.5714
       YYY      -2.5462    XXZ      -1.0825    XYZ       0.8401
       YYZ       1.4020    XZZ      -0.7816    YZZ      -2.3336
       ZZZ      -1.4367
    Hexadecapole Moments (Debye-Ang^3)
      XXXX     -35.4294   XXXY      -8.6971   XXYY     -19.9423
      XYYY      -7.1375   YYYY     -95.7376   XXXZ      17.6258
      XXYZ       6.0982   XYYZ       4.6717   YYYZ      17.4105
      XXZZ     -21.8446   XYZZ       0.4612   YYZZ     -29.4283
      XZZZ      11.8782   YZZZ      14.0182   ZZZZ     -95.3659
 -----------------------------------------------------------------
 Total job time:  264.29s(wall), 204.27s(cpu) 
 Tue Apr 12 22:36:00 2011

        *************************************************************
        *                                                           *
        *  Thank you very much for using Q-Chem.  Have a nice day.  *
        *                                                           *
        *************************************************************


0 sent ACK to 0 
now end server 0 ... 
