Process 0 of 1 is on cl084.stfx.acenet.ca - thread support 1
initial socket setup ...start
initial socket setup ...done 
now start server 0 ... 

cmd = /usr/bin/ssh clhead /usr/local/qchem/bin/get_hostid 1563157573 > /scratch/tmp/6064636.1.short.q/qchem26230/lic.dat
                  Welcome to Q-Chem
     A Quantum Leap Into The Future Of Chemistry

 Y. Shao, L. Fusti-Molnar, Y. Jung, J. Kussmann, C. Ochsenfeld,
 S. T. Brown, A. T. B. Gilbert, L. V. Slipchenko,S. V. Levchenko,
 D. P. O'Neill, R. A. DiStasio Jr., R. C. Lochan, T. Wang,
 G. J. O. Beran, N. A. Besley, J. M. Herbert, C. Y. Lin,
 T. Van Voorhis, S. H. Chien, A. Sodt, R. P. Steele, 
 V. A. Rassolov, P. E. Maslen, P. P. Korambath, R. D. Adamson,
 B. Austin, J. Baker, E. F. C. Byrd, H. Dachsel, R. J. Doerksen,
 A. Dreuw, B. D. Dunietz, A. D. Dutoi, T. R. Furlani,
 S. R. Gwaltney, A. Heyden, S. Hirata, C.-P. Hsu, G. Kedziora,
 R. Z. Khaliullin, P. Klunzinger, A. M. Lee, M. S. Lee, W. Liang,
 I. Lotan, N. Nair, B. Peters, E. I. Proynov, P. A. Pieniazek, 
 Y. M. Rhee, J. Ritchie, E. Rosta, C. D. Sherrill, 
 A. C. Simmonett, J. E. Subotnik, H. L. Woodcock III,
 W. Zhang, A. T. Bell, A. K. Chakraborty, D. M. Chipman,
 F. J. Keil, A. Warshel, W. J. Hehre, H. F. Schaefer III,
 J. Kong, A. I. Krylov, P. M. W. Gill, M. Head-Gordon,
 Q-Chem, Version 3.1, Q-Chem, Inc., Pittsburgh, PA (2007).

 Additional authors for Version 3.1: 
 Z. Gan, Y. Zhao, N. E. Schultz, D. Truhlar, E. Epifanovsky and M. Oana.

 Additional authors for Version 3.2: 
 R. Baer, B. R. Brooks, D. Casanova, J.-D. Chai, C.-L. Cheng, 
 C. Cramer, D. Crittenden, A. Ghysels, G. Hawkins, E. G. Hohenstein, 
 C. Kelley, W. Kurlancheek, D. Liotard, E. Livshits, P. Manohar, 
 A. Marenich, D. Neuhauser, R. Olson, M. A. Rohrdanz, K. S. Thanthiriwatte, 
 A. J. W. Thom, V. Vanovschi, C. F. Williams, Q. Wu and Z.-Q. You. 


 Intel X86 Linux Version

 Q-chem begins on Mon Jul  8 12:24:20 2013  

 Parallel job on  1  processors
Processing $rem in /usr/local/qchem/config/preferences.

theFileMan(): MAXOPENFILES=974 MAX_SUB_FILE_NUM=16
Maximum size of a physical file is 2.0 GB, maximum size of a tmp-file is 32.0 GB


--------------------------------------------------------------
User input:
--------------------------------------------------------------

$molecule
-1,2
Cl         0.00000        0.00000        0.00961
H          0.00000        0.00000        1.28030
$end

$comment
negative
$end

$xc_functional
C PBE   1.00
X wPBE  1.00
$end

$rem
SYMMETRY_DECOMPOSITION	0
exchange 		general
LRC_DFT                 true
BASIS                   g3large
omega			400
mem_static              760
max_scf_cycles          200
scf_final_print         1
sym_ignore              true
$end

--------------------------------------------------------------
 Writing REM_CC_EA            2
 ----------------------------------------------------
       Standard Nuclear Orientation (Angstroms)
    I     Atom         X            Y            Z
 ----------------------------------------------------
    1      Cl      0.000000     0.000000     0.009610
    2      H       0.000000     0.000000     1.280300
 ----------------------------------------------------
 Nuclear Repulsion Energy =     7.0796280632 hartrees
 There are       10 alpha and        9 beta electrons
 Requested basis set is G3large
 There are 25 shells and 76 basis functions

Total QAlloc Memory Limit   2000 MB
Mega-Array Size       743 MB
MEM_STATIC part       760 MB

                       Distance Matrix (Angstroms)
             Cl(  1)
   H (  2)  1.270690
 
 A cutoff of  1.0D-08 yielded    325 shell pairs
 There are   3056 function pairs (  4227 Cartesian)
Evaluating contribution to one-electron hamiltonian from nuclear
 Smallest overlap matrix eigenvalue = 3.54E-03
 Multipole matrices computed through 2nd order

  Scale SEOQF with 1.000000e-01/1.000000e-01/1.000000e-01

 Standard Electronic Orientation quadrupole field applied
 Nucleus-field energy     =    -0.0000000002 hartrees
 Guess from superposition of atomic densities
 Warning:  Energy on first SCF cycle will be non-variational
 Long-range K will be added via erf
 Coulomb attenuation parameter = 0.4 bohr**(-1)
 An unrestricted Kohn-Sham SCF calculation will be
 performed using Pulay DIIS extrapolation
 Exchange:  wPBE + LR-HF      Correlation:  PBE
 Using SG-1 standard quadrature grid
 SCF converges when DIIS error is below 1.0E-05
 Requested basis set is G3large
 There are 25 shells and 76 basis functions
 A cutoff of  1.0D-08 yielded    325 shell pairs
 There are   3056 function pairs (  4227 Cartesian)
 Warning!  Inaccurate integrated density:
   Number of electrons =    19
   Numerical integral  =    17.999993743395
   Relative error      =    -5.2631908242 %
 ---------------------------------------
  Cycle       Energy         DIIS Error
 ---------------------------------------
    1    -460.6354430518      3.05E-02
    2    -460.6142476323      4.26E-03
    3    -460.6380170483      3.42E-03
    4    -460.6449118610      6.51E-04
    5    -460.6470258101      2.98E-04
    6    -460.6482327524      1.27E-04
    7    -460.6485473976      3.45E-05
    8    -460.6485689329      1.49E-05
    9    -460.6485716732      4.15E-06 Convergence criterion met
 ---------------------------------------
 One-Electron    Energy =  -653.2652859679
 Total Coulomb   Energy =   214.1075517966
 Alpha Exchange  Energy =    -1.9542505203
 Beta  Exchange  Energy =    -1.8635281320
 DFT   Exchange  Energy =   -24.0558371483
 DFT Correlation Energy =    -0.6968497642
 Nuclear Repu.   Energy =     7.0796280630
 Nuclear Attr.   Energy = -1113.4345555405
 Kinetic         Energy =   460.1692695726
 <S^2> = 0.7503
 SCF time:  CPU 12.68 s  wall 13.22 s
 Final Alpha MO Eigenvalues
            1           2           3           4           5           6
    1-100.7041170  -9.2288913  -7.0459673  -7.0376559  -7.0376551  -0.8165539
            7           8           9          10          11          12
    1  -0.4202948  -0.2845386  -0.2845370   0.0233464   0.2268428   0.2444867
           13          14          15
    1   0.2444868   0.2930708   0.3268168
 Final Beta MO Eigenvalues
            1           2           3           4           5           6
    1-100.7036666  -9.2284212  -7.0450801  -7.0372796  -7.0372785  -0.8131078
            7           8           9          10          11          12
    1  -0.4151682  -0.2833021  -0.2833005   0.1838451   0.2437523   0.2550364
           13          14
    1   0.2550372   0.3042097
 Analysis of SCF Wavefunction
 
 --------------------------------------------------------------
                    Orbital Energies (a.u.)
 --------------------------------------------------------------
 
 Alpha MOs
 -- Occupied --
*******  -9.229  -7.046  -7.038  -7.038  -0.817  -0.420  -0.285
 -0.285   0.023
 -- Virtual --
  0.227   0.244   0.244   0.293   0.327   0.509   0.509   0.534
  0.541   0.541   0.703   0.739   0.739   0.851   1.128   1.128
  1.203   1.244   1.339   1.339   1.362   1.363   1.388   1.388
  1.408   1.408   1.655   1.700   1.700   1.859   2.422   2.422
  2.773   2.962   3.984   4.016   4.016   4.611   4.611   4.626
  4.626   4.736   4.736   5.049   5.280   5.282   5.300   5.300
  6.078   9.671  20.728  20.728  20.981  27.263  27.343  27.343
 27.344  27.551  36.992  36.993  36.993  36.993  36.999  36.999
 37.014 215.467
 
 Beta MOs
 -- Occupied --
*******  -9.228  -7.045  -7.037  -7.037  -0.813  -0.415  -0.283
 -0.283
 -- Virtual --
  0.184   0.244   0.255   0.255   0.304   0.349   0.512   0.512
  0.537   0.542   0.542   0.706   0.740   0.740   0.856   1.133
  1.133   1.209   1.246   1.342   1.342   1.364   1.364   1.389
  1.389   1.408   1.408   1.659   1.705   1.705   1.863   2.423
  2.423   2.775   2.965   3.989   4.018   4.018   4.614   4.614
  4.627   4.627   4.739   4.739   5.053   5.280   5.283   5.301
  5.301   6.081   9.672  20.729  20.729  20.983  27.264  27.344
 27.344  27.345  27.552  36.993  36.993  36.993  36.993  37.000
 37.000  37.015 215.468
 --------------------------------------------------------------
 
          Ground-State Mulliken Net Atomic Charges

     Atom                 Charge (a.u.)    Spin (a.u.)
  --------------------------------------------------------
      1 Cl                    0.740532      -1.025295
      2 H                    -1.740532       2.025295
  --------------------------------------------------------
  Sum of atomic charges =    -1.000000
  Sum of spin   charges =     1.000000

 -----------------------------------------------------------------
                    Cartesian Multipole Moments
 -----------------------------------------------------------------
    Charge (ESU x 10^10)
                -4.8032
    Dipole Moment (Debye)
         X       0.0001      Y       0.0000      Z      -8.1448
       Tot       8.1448
    Quadrupole Moments (Debye-Ang)
        XX     -26.6758     XY       0.0000     YY     -26.6758
        XZ       0.0001     YZ       0.0000     ZZ     -45.3313
    Octapole Moments (Debye-Ang^2)
       XXX       0.0007    XXY      -0.0001    XYY       0.0002
       YYY      -0.0002    XXZ     -24.5720    XYZ       0.0000
       YYZ     -24.5720    XZZ       0.0004    YZZ      -0.0001
       ZZZ    -110.1874
    Hexadecapole Moments (Debye-Ang^3)
      XXXX    -112.7381   XXXY       0.0000   XXYY     -37.5794
      XYYY       0.0000   YYYY    -112.7381   XXXZ       0.0005
      XXYZ       0.0000   XYYZ       0.0002   YYYZ      -0.0001
      XXZZ     -86.3518   XYZZ       0.0000   YYZZ     -86.3518
      XZZZ       0.0006   YZZZ      -0.0001   ZZZZ    -465.1986
 -----------------------------------------------------------------
 Total job time:  13.33s(wall), 12.78s(cpu) 
 Mon Jul  8 12:24:34 2013

        *************************************************************
        *                                                           *
        *  Thank you very much for using Q-Chem.  Have a nice day.  *
        *                                                           *
        *************************************************************


0 sent ACK to 0 
now end server 0 ... 
 
**********************************************************************
Job 2 of 3 
**********************************************************************
 
Process 0 of 1 is on cl084.stfx.acenet.ca - thread support 1
initial socket setup ...start
initial socket setup ...done 
now start server 0 ... 

cmd = /usr/bin/ssh clhead /usr/local/qchem/bin/get_hostid 2065720460 > /scratch/tmp/6064636.1.short.q/qchem26230/lic.dat
                  Welcome to Q-Chem
     A Quantum Leap Into The Future Of Chemistry

 Y. Shao, L. Fusti-Molnar, Y. Jung, J. Kussmann, C. Ochsenfeld,
 S. T. Brown, A. T. B. Gilbert, L. V. Slipchenko,S. V. Levchenko,
 D. P. O'Neill, R. A. DiStasio Jr., R. C. Lochan, T. Wang,
 G. J. O. Beran, N. A. Besley, J. M. Herbert, C. Y. Lin,
 T. Van Voorhis, S. H. Chien, A. Sodt, R. P. Steele, 
 V. A. Rassolov, P. E. Maslen, P. P. Korambath, R. D. Adamson,
 B. Austin, J. Baker, E. F. C. Byrd, H. Dachsel, R. J. Doerksen,
 A. Dreuw, B. D. Dunietz, A. D. Dutoi, T. R. Furlani,
 S. R. Gwaltney, A. Heyden, S. Hirata, C.-P. Hsu, G. Kedziora,
 R. Z. Khaliullin, P. Klunzinger, A. M. Lee, M. S. Lee, W. Liang,
 I. Lotan, N. Nair, B. Peters, E. I. Proynov, P. A. Pieniazek, 
 Y. M. Rhee, J. Ritchie, E. Rosta, C. D. Sherrill, 
 A. C. Simmonett, J. E. Subotnik, H. L. Woodcock III,
 W. Zhang, A. T. Bell, A. K. Chakraborty, D. M. Chipman,
 F. J. Keil, A. Warshel, W. J. Hehre, H. F. Schaefer III,
 J. Kong, A. I. Krylov, P. M. W. Gill, M. Head-Gordon,
 Q-Chem, Version 3.1, Q-Chem, Inc., Pittsburgh, PA (2007).

 Additional authors for Version 3.1: 
 Z. Gan, Y. Zhao, N. E. Schultz, D. Truhlar, E. Epifanovsky and M. Oana.

 Additional authors for Version 3.2: 
 R. Baer, B. R. Brooks, D. Casanova, J.-D. Chai, C.-L. Cheng, 
 C. Cramer, D. Crittenden, A. Ghysels, G. Hawkins, E. G. Hohenstein, 
 C. Kelley, W. Kurlancheek, D. Liotard, E. Livshits, P. Manohar, 
 A. Marenich, D. Neuhauser, R. Olson, M. A. Rohrdanz, K. S. Thanthiriwatte, 
 A. J. W. Thom, V. Vanovschi, C. F. Williams, Q. Wu and Z.-Q. You. 


 Intel X86 Linux Version

 Q-chem begins on Mon Jul  8 12:24:37 2013  

 Parallel job on  1  processors
Processing $rem in /usr/local/qchem/config/preferences.

theFileMan(): MAXOPENFILES=974 MAX_SUB_FILE_NUM=16
Maximum size of a physical file is 2.0 GB, maximum size of a tmp-file is 32.0 GB


--------------------------------------------------------------
User input:
--------------------------------------------------------------

$molecule
0,1
Cl         0.00000        0.00000        0.00961
H          0.00000        0.00000        1.28030
$end

$comment
neutral
$end

$xc_functional
C PBE   1.00
X wPBE  1.00
$end


$rem
SYMMETRY_DECOMPOSITION	0
LRC_DFT                 true
exchange 		general
BASIS                   g3large
omega			400
mem_static              760
max_scf_cycles          200
scf_final_print         1
sym_ignore              true
$end

--------------------------------------------------------------
 Writing REM_CC_EA            2
 ----------------------------------------------------
       Standard Nuclear Orientation (Angstroms)
    I     Atom         X            Y            Z
 ----------------------------------------------------
    1      Cl      0.000000     0.000000     0.009610
    2      H       0.000000     0.000000     1.280300
 ----------------------------------------------------
 Nuclear Repulsion Energy =     7.0796280632 hartrees
 There are        9 alpha and        9 beta electrons
 Requested basis set is G3large
 There are 25 shells and 76 basis functions

Total QAlloc Memory Limit   2000 MB
Mega-Array Size       743 MB
MEM_STATIC part       760 MB

                       Distance Matrix (Angstroms)
             Cl(  1)
   H (  2)  1.270690
 
 A cutoff of  1.0D-08 yielded    325 shell pairs
 There are   3056 function pairs (  4227 Cartesian)
Evaluating contribution to one-electron hamiltonian from nuclear
 Smallest overlap matrix eigenvalue = 3.54E-03
 Multipole matrices computed through 2nd order

  Scale SEOQF with 1.000000e-01/1.000000e-01/1.000000e-01

 Standard Electronic Orientation quadrupole field applied
 Nucleus-field energy     =    -0.0000000002 hartrees
 Guess from superposition of atomic densities
 Warning:  Energy on first SCF cycle will be non-variational
 Long-range K will be added via erf
 Coulomb attenuation parameter = 0.4 bohr**(-1)
 A restricted Kohn-Sham SCF calculation will be
 performed using Pulay DIIS extrapolation
 Exchange:  wPBE + LR-HF      Correlation:  PBE
 Using SG-1 standard quadrature grid
 SCF converges when DIIS error is below 1.0E-05
 Requested basis set is G3large
 There are 25 shells and 76 basis functions
 A cutoff of  1.0D-08 yielded    325 shell pairs
 There are   3056 function pairs (  4227 Cartesian)
 ---------------------------------------
  Cycle       Energy         DIIS Error
 ---------------------------------------
    1    -460.6354430518      3.05E-02
    2    -460.6621743563      4.07E-03
    3    -460.6736500839      2.62E-03
    4    -460.6769666267      2.52E-04
    5    -460.6770287855      7.28E-05
    6    -460.6770396838      2.06E-05
    7    -460.6770405883      5.19E-06 Convergence criterion met
 ---------------------------------------
 One-Electron    Energy =  -650.0851961261
 Total Coulomb   Energy =   210.7886626152
 Alpha Exchange  Energy =    -1.8654333135
 Beta  Exchange  Energy =    -1.8654333135
 DFT   Exchange  Energy =   -24.0417154614
 DFT Correlation Energy =    -0.6875530521
 Nuclear Repu.   Energy =     7.0796280630
 Nuclear Attr.   Energy = -1110.1526068911
 Kinetic         Energy =   460.0674107650
 SCF time:  CPU 8.65 s  wall 8.91 s
 Final Alpha MO Eigenvalues
            1           2           3           4           5           6
    1-100.8855431  -9.4090832  -7.2271440  -7.2174215  -7.2174207  -0.9939976
            7           8           9          10          11          12
    1  -0.5975454  -0.4578100  -0.4578098   0.0363042   0.1177812   0.1268545
           13          14
    1   0.1268550   0.1363828
 Analysis of SCF Wavefunction
 
 --------------------------------------------------------------
                    Orbital Energies (a.u.)
 --------------------------------------------------------------
 
 Alpha MOs
 -- Occupied --
*******  -9.409  -7.227  -7.217  -7.217  -0.994  -0.598  -0.458
 -0.458
 -- Virtual --
  0.036   0.118   0.127   0.127   0.136   0.189   0.339   0.339
  0.374   0.376   0.376   0.550   0.583   0.583   0.679   0.944
  0.944   1.028   1.077   1.166   1.166   1.192   1.192   1.217
  1.217   1.240   1.240   1.478   1.526   1.526   1.681   2.250
  2.250   2.601   2.772   3.794   3.820   3.820   4.435   4.435
  4.452   4.452   4.558   4.558   4.868   5.103   5.106   5.121
  5.121   5.896   9.493  20.549  20.549  20.801  27.084  27.163
 27.163  27.165  27.370  36.812  36.813  36.813  36.813  36.819
 36.819  36.833 215.286
 --------------------------------------------------------------
 
          Ground-State Mulliken Net Atomic Charges

     Atom                 Charge (a.u.)
  ----------------------------------------
      1 Cl                   -0.223107
      2 H                     0.223107
  ----------------------------------------
  Sum of atomic charges =     0.000000

 -----------------------------------------------------------------
                    Cartesian Multipole Moments
 -----------------------------------------------------------------
    Charge (ESU x 10^10)
                 0.0000
    Dipole Moment (Debye)
         X      -0.0001      Y       0.0001      Z       1.1640
       Tot       1.1640
    Quadrupole Moments (Debye-Ang)
        XX     -13.9469     XY       0.0000     YY     -13.9469
        XZ       0.0000     YZ       0.0000     ZZ     -10.1727
    Octapole Moments (Debye-Ang^2)
       XXX      -0.0001    XXY       0.0001    XYY       0.0000
       YYY       0.0002    XXZ      -1.0566    XYZ       0.0000
       YYZ      -1.0566    XZZ      -0.0002    YZZ       0.0004
       ZZZ       0.2052
    Hexadecapole Moments (Debye-Ang^3)
      XXXX     -16.3837   XXXY       0.0000   XXYY      -5.4613
      XYYY       0.0000   YYYY     -16.3837   XXXZ       0.0000
      XXYZ       0.0000   XYYZ       0.0000   YYYZ       0.0000
      XXZZ      -5.8623   XYZZ       0.0000   YYZZ      -5.8623
      XZZZ      -0.0001   YZZZ       0.0002   ZZZZ     -13.1597
 -----------------------------------------------------------------
 Total job time:  9.00s(wall), 8.74s(cpu) 
 Mon Jul  8 12:24:46 2013

        *************************************************************
        *                                                           *
        *  Thank you very much for using Q-Chem.  Have a nice day.  *
        *                                                           *
        *************************************************************


0 sent ACK to 0 
now end server 0 ... 
 
**********************************************************************
Job 3 of 3 
**********************************************************************
 
Process 0 of 1 is on cl084.stfx.acenet.ca - thread support 1
initial socket setup ...start
initial socket setup ...done 
now start server 0 ... 

cmd = /usr/bin/ssh clhead /usr/local/qchem/bin/get_hostid 1643756657 > /scratch/tmp/6064636.1.short.q/qchem26230/lic.dat
                  Welcome to Q-Chem
     A Quantum Leap Into The Future Of Chemistry

 Y. Shao, L. Fusti-Molnar, Y. Jung, J. Kussmann, C. Ochsenfeld,
 S. T. Brown, A. T. B. Gilbert, L. V. Slipchenko,S. V. Levchenko,
 D. P. O'Neill, R. A. DiStasio Jr., R. C. Lochan, T. Wang,
 G. J. O. Beran, N. A. Besley, J. M. Herbert, C. Y. Lin,
 T. Van Voorhis, S. H. Chien, A. Sodt, R. P. Steele, 
 V. A. Rassolov, P. E. Maslen, P. P. Korambath, R. D. Adamson,
 B. Austin, J. Baker, E. F. C. Byrd, H. Dachsel, R. J. Doerksen,
 A. Dreuw, B. D. Dunietz, A. D. Dutoi, T. R. Furlani,
 S. R. Gwaltney, A. Heyden, S. Hirata, C.-P. Hsu, G. Kedziora,
 R. Z. Khaliullin, P. Klunzinger, A. M. Lee, M. S. Lee, W. Liang,
 I. Lotan, N. Nair, B. Peters, E. I. Proynov, P. A. Pieniazek, 
 Y. M. Rhee, J. Ritchie, E. Rosta, C. D. Sherrill, 
 A. C. Simmonett, J. E. Subotnik, H. L. Woodcock III,
 W. Zhang, A. T. Bell, A. K. Chakraborty, D. M. Chipman,
 F. J. Keil, A. Warshel, W. J. Hehre, H. F. Schaefer III,
 J. Kong, A. I. Krylov, P. M. W. Gill, M. Head-Gordon,
 Q-Chem, Version 3.1, Q-Chem, Inc., Pittsburgh, PA (2007).

 Additional authors for Version 3.1: 
 Z. Gan, Y. Zhao, N. E. Schultz, D. Truhlar, E. Epifanovsky and M. Oana.

 Additional authors for Version 3.2: 
 R. Baer, B. R. Brooks, D. Casanova, J.-D. Chai, C.-L. Cheng, 
 C. Cramer, D. Crittenden, A. Ghysels, G. Hawkins, E. G. Hohenstein, 
 C. Kelley, W. Kurlancheek, D. Liotard, E. Livshits, P. Manohar, 
 A. Marenich, D. Neuhauser, R. Olson, M. A. Rohrdanz, K. S. Thanthiriwatte, 
 A. J. W. Thom, V. Vanovschi, C. F. Williams, Q. Wu and Z.-Q. You. 


 Intel X86 Linux Version

 Q-chem begins on Mon Jul  8 12:24:49 2013  

 Parallel job on  1  processors
Processing $rem in /usr/local/qchem/config/preferences.

theFileMan(): MAXOPENFILES=974 MAX_SUB_FILE_NUM=16
Maximum size of a physical file is 2.0 GB, maximum size of a tmp-file is 32.0 GB


--------------------------------------------------------------
User input:
--------------------------------------------------------------

$molecule
1,2
Cl         0.00000        0.00000        0.00961
H          0.00000        0.00000        1.28030
$end

$comment
positive
$end

$xc_functional
C PBE   1.00
X wPBE  1.00
$end

$rem
SYMMETRY_DECOMPOSITION	0
LRC_DFT                 true
exchange 		general
BASIS                   g3large
omega			400
mem_static              760
max_scf_cycles          200
scf_final_print         1
sym_ignore              true
$end

--------------------------------------------------------------
 Writing REM_CC_EA            2
 ----------------------------------------------------
       Standard Nuclear Orientation (Angstroms)
    I     Atom         X            Y            Z
 ----------------------------------------------------
    1      Cl      0.000000     0.000000     0.009610
    2      H       0.000000     0.000000     1.280300
 ----------------------------------------------------
 Nuclear Repulsion Energy =     7.0796280632 hartrees
 There are        9 alpha and        8 beta electrons
 Requested basis set is G3large
 There are 25 shells and 76 basis functions

Total QAlloc Memory Limit   2000 MB
Mega-Array Size       743 MB
MEM_STATIC part       760 MB

                       Distance Matrix (Angstroms)
             Cl(  1)
   H (  2)  1.270690
 
 A cutoff of  1.0D-08 yielded    325 shell pairs
 There are   3056 function pairs (  4227 Cartesian)
Evaluating contribution to one-electron hamiltonian from nuclear
 Smallest overlap matrix eigenvalue = 3.54E-03
 Multipole matrices computed through 2nd order

  Scale SEOQF with 1.000000e-01/1.000000e-01/1.000000e-01

 Standard Electronic Orientation quadrupole field applied
 Nucleus-field energy     =    -0.0000000002 hartrees
 Guess from superposition of atomic densities
 Warning:  Energy on first SCF cycle will be non-variational
 Long-range K will be added via erf
 Coulomb attenuation parameter = 0.4 bohr**(-1)
 An unrestricted Kohn-Sham SCF calculation will be
 performed using Pulay DIIS extrapolation
 Exchange:  wPBE + LR-HF      Correlation:  PBE
 Using SG-1 standard quadrature grid
 SCF converges when DIIS error is below 1.0E-05
 Requested basis set is G3large
 There are 25 shells and 76 basis functions
 A cutoff of  1.0D-08 yielded    325 shell pairs
 There are   3056 function pairs (  4227 Cartesian)
 Warning!  Inaccurate integrated density:
   Number of electrons =    17
   Numerical integral  =    17.999993743395
   Relative error      =     5.8823161376 %
 ---------------------------------------
  Cycle       Energy         DIIS Error
 ---------------------------------------
    1    -460.6354430518      3.05E-02
    2    -460.1611445023      6.32E-03
    3    -460.2027311032      3.19E-03
    4    -460.2061635912      4.16E-04
    5    -460.2065714178      1.37E-04
    6    -460.2067213575      8.03E-05
    7    -460.2068034972      4.39E-05
    8    -460.2068351942      1.39E-05
    9    -460.2068379165      2.62E-06 Convergence criterion met
 ---------------------------------------
 One-Electron    Energy =  -642.5059661431
 Total Coulomb   Energy =   203.3523786612
 Alpha Exchange  Energy =    -1.8815759735
 Beta  Exchange  Energy =    -1.6846943935
 DFT   Exchange  Energy =   -23.9198983508
 DFT Correlation Energy =    -0.6467097797
 Nuclear Repu.   Energy =     7.0796280630
 Nuclear Attr.   Energy = -1102.2080056985
 Kinetic         Energy =   459.7020395554
 <S^2> = 0.7547
 SCF time:  CPU 12.38 s  wall 12.95 s
 Final Alpha MO Eigenvalues
            1           2           3           4           5           6
    1-101.3385944  -9.8550787  -7.6818239  -7.6672256  -7.6569370  -1.4127646
            7           8           9          10          11          12
    1  -0.9774225  -0.9055077  -0.8430678  -0.2054914  -0.1189757  -0.0724403
           13          14
    1  -0.0696298  -0.0611424
 Final Beta MO Eigenvalues
            1           2           3           4           5           6
    1-101.3321486  -9.8491559  -7.6646258  -7.6637960  -7.6525707  -1.3554400
            7           8           9          10          11          12
    1  -0.9619595  -0.8262150  -0.4799807  -0.1941754  -0.1119392  -0.0708663
           13
    1  -0.0615720
 Analysis of SCF Wavefunction
 
 --------------------------------------------------------------
                    Orbital Energies (a.u.)
 --------------------------------------------------------------
 
 Alpha MOs
 -- Occupied --
*******  -9.855  -7.682  -7.667  -7.657  -1.413  -0.977  -0.906
 -0.843
 -- Virtual --
 -0.205  -0.119  -0.072  -0.070  -0.061  -0.010  -0.008   0.019
  0.030   0.032   0.125   0.286   0.287   0.310   0.388   0.633
  0.648   0.690   0.753   0.763   0.791   0.796   0.799   0.873
  0.874   0.888   0.888   1.157   1.193   1.216   1.339   1.836
  1.881   2.235   2.444   3.431   3.473   3.483   3.997   3.997
  3.999   3.999   4.122   4.164   4.466   4.661   4.664   4.679
  4.710   5.485   9.059  20.086  20.113  20.365  26.630  26.709
 26.711  26.727  26.929  36.362  36.363  36.364  36.368  36.369
 36.386  36.397 214.835
 
 Beta MOs
 -- Occupied --
*******  -9.849  -7.665  -7.664  -7.653  -1.355  -0.962  -0.826
 -- Virtual --
 -0.480  -0.194  -0.112  -0.071  -0.062  -0.060  -0.004   0.023
  0.034   0.073   0.077   0.132   0.291   0.315   0.316   0.395
  0.647   0.649   0.714   0.767   0.804   0.805   0.830   0.836
  0.896   0.899   0.922   0.923   1.168   1.218   1.219   1.353
  1.892   1.896   2.244   2.445   3.439   3.476   3.479   4.041
  4.046   4.062   4.064   4.168   4.172   4.482   4.681   4.686
  4.700   4.712   5.498   9.072  20.113  20.121  20.369  26.645
 26.723  26.725  26.730  26.935  36.368  36.370  36.370  36.372
 36.374  36.387  36.398 214.842
 --------------------------------------------------------------
 
          Ground-State Mulliken Net Atomic Charges

     Atom                 Charge (a.u.)    Spin (a.u.)
  --------------------------------------------------------
      1 Cl                    0.676056       1.018124
      2 H                     0.323944      -0.018124
  --------------------------------------------------------
  Sum of atomic charges =     1.000000
  Sum of spin   charges =     1.000000

 -----------------------------------------------------------------
                    Cartesian Multipole Moments
 -----------------------------------------------------------------
    Charge (ESU x 10^10)
                 4.8032
    Dipole Moment (Debye)
         X       0.0000      Y       0.0000      Z       1.8405
       Tot       1.8405
    Quadrupole Moments (Debye-Ang)
        XX     -10.4235     XY      -0.8788     YY     -10.3459
        XZ       0.0000     YZ       0.0000     ZZ      -7.0129
    Octapole Moments (Debye-Ang^2)
       XXX       0.0000    XXY       0.0000    XYY       0.0000
       YYY       0.0000    XXZ      -0.7928    XYZ      -0.0575
       YYZ      -0.7877    XZZ       0.0000    YZZ       0.0000
       ZZZ       2.1501
    Hexadecapole Moments (Debye-Ang^3)
      XXXX      -9.2969   XXXY      -0.7240   XXYY      -3.0777
      XYYY      -0.7240   YYYY      -9.1690   XXXZ       0.0000
      XXYZ       0.0000   XYYZ       0.0000   YYYZ       0.0000
      XXZZ      -3.7401   XYZZ      -0.2641   YYZZ      -3.7167
      XZZZ       0.0000   YZZZ       0.0000   ZZZZ      -6.0031
 -----------------------------------------------------------------
 Total job time:  13.04s(wall), 12.46s(cpu) 
 Mon Jul  8 12:25:02 2013

        *************************************************************
        *                                                           *
        *  Thank you very much for using Q-Chem.  Have a nice day.  *
        *                                                           *
        *************************************************************


0 sent ACK to 0 
now end server 0 ... 
