Process 0 of 1 is on cl247.stfx.acenet.ca - thread support 1
initial socket setup ...start
initial socket setup ...done 
now start server 0 ... 

cmd = /usr/bin/ssh clhead /usr/local/qchem/bin/get_hostid 710942703 > /scratch/tmp/4506571.1.long.q/qchem11302/lic.dat
                  Welcome to Q-Chem
     A Quantum Leap Into The Future Of Chemistry

 Y. Shao, L. Fusti-Molnar, Y. Jung, J. Kussmann, C. Ochsenfeld,
 S. T. Brown, A. T. B. Gilbert, L. V. Slipchenko,S. V. Levchenko,
 D. P. O'Neill, R. A. DiStasio Jr., R. C. Lochan, T. Wang,
 G. J. O. Beran, N. A. Besley, J. M. Herbert, C. Y. Lin,
 T. Van Voorhis, S. H. Chien, A. Sodt, R. P. Steele, 
 V. A. Rassolov, P. E. Maslen, P. P. Korambath, R. D. Adamson,
 B. Austin, J. Baker, E. F. C. Byrd, H. Dachsel, R. J. Doerksen,
 A. Dreuw, B. D. Dunietz, A. D. Dutoi, T. R. Furlani,
 S. R. Gwaltney, A. Heyden, S. Hirata, C.-P. Hsu, G. Kedziora,
 R. Z. Khaliullin, P. Klunzinger, A. M. Lee, M. S. Lee, W. Liang,
 I. Lotan, N. Nair, B. Peters, E. I. Proynov, P. A. Pieniazek, 
 Y. M. Rhee, J. Ritchie, E. Rosta, C. D. Sherrill, 
 A. C. Simmonett, J. E. Subotnik, H. L. Woodcock III,
 W. Zhang, A. T. Bell, A. K. Chakraborty, D. M. Chipman,
 F. J. Keil, A. Warshel, W. J. Hehre, H. F. Schaefer III,
 J. Kong, A. I. Krylov, P. M. W. Gill, M. Head-Gordon,
 Q-Chem, Version 3.1, Q-Chem, Inc., Pittsburgh, PA (2007).

 Additional authors for Version 3.1: 
 Z. Gan, Y. Zhao, N. E. Schultz, D. Truhlar, E. Epifanovsky and M. Oana.

 Additional authors for Version 3.2: 
 R. Baer, B. R. Brooks, D. Casanova, J.-D. Chai, C.-L. Cheng, 
 C. Cramer, D. Crittenden, A. Ghysels, G. Hawkins, E. G. Hohenstein, 
 C. Kelley, W. Kurlancheek, D. Liotard, E. Livshits, P. Manohar, 
 A. Marenich, D. Neuhauser, R. Olson, M. A. Rohrdanz, K. S. Thanthiriwatte, 
 A. J. W. Thom, V. Vanovschi, C. F. Williams, Q. Wu and Z.-Q. You. 


 Intel X86 Linux Version

 Q-chem begins on Thu Apr 21 17:45:25 2011  

 Parallel job on  1  processors
Processing $rem in /usr/local/qchem/config/preferences.

theFileMan(): MAXOPENFILES=974 MAX_SUB_FILE_NUM=16
Maximum size of a physical file is 2.0 GB, maximum size of a tmp-file is 32.0 GB


--------------------------------------------------------------
User input:
--------------------------------------------------------------

$molecule
0,1
LI
F,1,LiF

LiF=1.55170308

$end

$comment
neutral
$end

$xc_functional
   X HF 1.0
   X BNL 1.0
   C LYP 1.0
$end

$rem
SYMMETRY_DECOMPOSITION	0
exchange 		general
BASIS                   g3large
omega			560 
JOBTYPE                 opt
separate_jk		true
mem_static              760
max_scf_cycles          200
scf_final_print         1
sym_ignore              true
$end


--------------------------------------------------------------
 Writing REM_CC_EA            2
 ----------------------------------------------------
       Standard Nuclear Orientation (Angstroms)
    I     Atom         X            Y            Z
 ----------------------------------------------------
    1      Li      0.000000     0.000000     0.000000
    2      F       0.000000     0.000000     1.551703
 ----------------------------------------------------
 Nuclear Repulsion Energy =     9.2078084240 hartrees
 There are        6 alpha and        6 beta electrons
 Requested basis set is G3large
 There are 20 shells and 84 basis functions

Total QAlloc Memory Limit   2000 MB
Mega-Array Size       743 MB
MEM_STATIC part       760 MB
 A cutoff of  1.0D-11 yielded    208 shell pairs
 There are   3686 function pairs (  4836 Cartesian)
Evaluating contribution to one-electron hamiltonian from nuclear
 Smallest overlap matrix eigenvalue = 2.12E-03
 Multipole matrices computed through 2nd order

  Scale SEOQF with 1.000000e-02/1.000000e-02/1.000000e-02

 Standard Electronic Orientation quadrupole field applied
 Nucleus-field energy     =    -0.0000000002 hartrees
 Guess from superposition of atomic densities
 Warning:  Energy on first SCF cycle will be non-variational
 A restricted hybrid HF-DFT SCF calculation will be
 performed using Pulay DIIS extrapolation
 Exchange:     1.0000 Hartree-Fock + 1.0000 BNL
 Correlation:  1.0000 LYP
 Using SG-1 standard quadrature grid
 SCF converges when DIIS error is below 1.0E-08
 Warning!  Inaccurate integrated density:
   Number of electrons =    12
   Numerical integral  =    12.013127985291
   Relative error      =     0.1093998774 %
 ---------------------------------------
  Cycle       Energy         DIIS Error
 ---------------------------------------
    1    -106.1567735970      1.35E-02
    2    -106.4992898089      1.27E-02
    3    -106.5940896851      3.09E-03
    4    -106.5980510440      9.07E-04
    5    -106.5985548119      1.47E-04
    6    -106.5985872634      3.16E-05
    7    -106.5985895865      4.20E-06
    8    -106.5985896257      6.75E-07
    9    -106.5985896268      2.06E-07
   10    -106.5985896269      2.96E-08
   11    -106.5985896270      3.93E-09 Convergence criterion met
 ---------------------------------------
 One-Electron    Energy =  -169.2470043708
 Total Coulomb   Energy =    64.9571966671
 Alpha Exchange  Energy =    -1.6529082760
 Beta  Exchange  Energy =    -1.6529082760
 DFT   Exchange  Energy =    -7.7932850308
 DFT Correlation Energy =    -0.4174887643
 Nuclear Repu.   Energy =     9.2078084238
 Nuclear Attr.   Energy =  -275.3863830814
 Kinetic         Energy =   106.1393787106
 SCF time:  CPU 10.89 s  wall 11.41 s
 Final Alpha MO Eigenvalues
            1           2           3           4           5           6
    1 -24.1841750  -2.1089150  -1.1710610  -0.4613019  -0.4458277  -0.4458277
            7           8           9          10          11
    1  -0.0154328   0.0148992   0.0148992   0.0176493   0.0266652
 Analysis of SCF Wavefunction
 
 --------------------------------------------------------------
                    Orbital Energies (a.u.)
 --------------------------------------------------------------
 
 Alpha MOs
 -- Occupied --
-24.184  -2.109  -1.171  -0.461  -0.446  -0.446
 -- Virtual --
 -0.015   0.015   0.015   0.018   0.027   0.057   0.057   0.081
  0.129   0.159   0.159   0.203   0.278   0.278   0.332   0.332
  0.342   0.399   0.427   0.427   0.533   0.533   0.556   0.602
  0.602   0.603   0.603   0.690   0.761   0.761   0.840   1.261
  1.262   1.273   1.273   1.423   1.638   1.638   1.668   2.272
  2.378   2.378   2.442   2.621   2.621   4.236   6.460   6.460
  6.488   6.943   6.943   6.946   6.951   6.951   6.954   6.995
  7.087   7.087   7.425   9.386   9.386   9.523   9.523   9.597
 20.157  20.199  21.372  21.390  21.390  50.290  50.352  50.371
 50.408  50.408  55.969  55.969  56.017  67.179
 --------------------------------------------------------------
 
          Ground-State Mulliken Net Atomic Charges

     Atom                 Charge (a.u.)
  ----------------------------------------
      1 Li                    0.615367
      2 F                    -0.615367
  ----------------------------------------
  Sum of atomic charges =     0.000000

 -----------------------------------------------------------------
                    Cartesian Multipole Moments
 -----------------------------------------------------------------
    Charge (ESU x 10^10)
                 0.0000
    Dipole Moment (Debye)
         X       0.0000      Y       0.0000      Z      -6.2758
       Tot       6.2758
    Quadrupole Moments (Debye-Ang)
        XX      -7.4178     XY       0.0000     YY      -7.4178
        XZ       0.0000     YZ       0.0000     ZZ     -15.8280
    Octapole Moments (Debye-Ang^2)
       XXX       0.0000    XXY       0.0000    XYY       0.0000
       YYY       0.0000    XXZ     -10.2373    XYZ       0.0000
       YYZ     -10.2373    XZZ       0.0000    YZZ       0.0000
       ZZZ     -42.3109
    Hexadecapole Moments (Debye-Ang^3)
      XXXX      -7.2035   XXXY       0.0000   XXYY      -2.4011
      XYYY       0.0000   YYYY      -7.2035   XXXZ       0.0000
      XXYZ       0.0000   XYYZ       0.0000   YYYZ       0.0000
      XXZZ     -17.5175   XYZZ       0.0000   YYZZ     -17.5175
      XZZZ       0.0000   YZZZ       0.0000   ZZZZ    -114.9538
 -----------------------------------------------------------------
 Calculating analytic gradient of the SCF energy
 Gradient of AOints
            1           2
    1  -0.0000000   0.0000000
    2  -0.0000000   0.0000000
    3   3.1158693  -3.1158693
 Gradient of XC Energy
            1           2
    1   0.0000000  -0.0000000
    2   0.0000000  -0.0000000
    3  -0.0788457   0.0788457
 Gradient of SCF Energy
            1           2
    1   0.0000000  -0.0000000
    2   0.0000000  -0.0000000
    3   0.0010626  -0.0010626
 Max gradient component =       1.063E-03
 RMS gradient           =       6.135E-04
 Gradient time:  CPU 3.81 s  wall 3.90 s
 Geometry Optimization Parameters
   NAtoms,    NIC,     NZ,  NCons,   NDum,   NFix, NCnnct, MaxDiis
        2       5       2       0       0       0       0       0


** GEOMETRY OPTIMIZATION IN DELOCALIZED INTERNAL COORDINATES **
   Searching for a Minimum

   Optimization Cycle:   1

                       Coordinates (Angstroms)
     ATOM              X           Y           Z
    1  Li          0.000000    0.000000    0.000000
    2  F           0.000000    0.000000    1.551703
   Point Group: c1    Number of degrees of freedom:   0


   Energy is   -106.598589627


 Attempting to Generate Delocalized Internal Coordinates

  ***ERROR*** Wrong Number of Internal Coordinates
              Should be:   0  Found:   1
**WARNING** Problems with Internal Coordinates
  Switching to Cartesian Coordinates

 Translations and Rotations Projected Out of Hessian

  1 Hessian modes will be used to form the next step
  Hessian Eigenvalues:
     1.000000

 Minimum Search - Taking Simple RFO Step
 Searching for Lamda that Minimizes Along All modes
 Value Taken    Lamda =  -0.00000226
 Step Taken.  Stepsize is  0.001503

                             Maximum     Tolerance    Cnvgd?
         Gradient           0.001063      0.000300      NO
         Displacement       0.001063      0.001200     YES
         Energy change     *********      0.000001      NO

 Writing REM_CC_EA            2
 ----------------------------------------------------
       Standard Nuclear Orientation (Angstroms)
    I     Atom         X            Y            Z
 ----------------------------------------------------
    1      Li      0.000000     0.000000    -0.000562
    2      F       0.000000     0.000000     1.552265
 ----------------------------------------------------
 Nuclear Repulsion Energy =     9.2011396770 hartrees
 There are        6 alpha and        6 beta electrons
 Nucleus-field energy     =    -0.0000000002 hartrees
 Requested basis set is G3large
 There are 20 shells and 84 basis functions
 A cutoff of  1.0D-11 yielded    208 shell pairs
 There are   3686 function pairs (  4836 Cartesian)
Evaluating contribution to one-electron hamiltonian from nuclear
 Smallest overlap matrix eigenvalue = 2.12E-03
 Multipole matrices computed through 2nd order
 Guess MOs from SCF MO coefficient file
Reading MOs from coefficient file
Reading MOs from coefficient file
 A restricted hybrid HF-DFT SCF calculation will be
 performed using Pulay DIIS extrapolation
 Exchange:     1.0000 Hartree-Fock + 1.0000 BNL
 Correlation:  1.0000 LYP
 Using SG-1 standard quadrature grid
 SCF converges when DIIS error is below 1.0E-08
 ---------------------------------------
  Cycle       Energy         DIIS Error
 ---------------------------------------
    1    -106.5982489522      2.36E-05
    2    -106.5985914933      2.21E-06
    3    -106.5985914998      1.22E-06
    4    -106.5985915007      6.34E-07
    5    -106.5985915011      1.68E-07
    6    -106.5985915012      3.60E-08
    7    -106.5985915013      4.42E-09 Convergence criterion met
 ---------------------------------------
 One-Electron    Energy =  -169.2345270726
 Total Coulomb   Energy =    64.9511624943
 Alpha Exchange  Energy =    -1.6528882590
 Beta  Exchange  Energy =    -1.6528882590
 DFT   Exchange  Energy =    -7.7931209207
 DFT Correlation Energy =    -0.4174691610
 Nuclear Repu.   Energy =     9.2011396768
 Nuclear Attr.   Energy =  -275.3729040395
 Kinetic         Energy =   106.1383769669
 SCF time:  CPU 6.90 s  wall 7.20 s
 Final Alpha MO Eigenvalues
            1           2           3           4           5           6
    1 -24.1841157  -2.1090615  -1.1709471  -0.4612071  -0.4457018  -0.4457018
            7           8           9          10          11
    1  -0.0154648   0.0148960   0.0148960   0.0176350   0.0266704
 Analysis of SCF Wavefunction
 
 --------------------------------------------------------------
                    Orbital Energies (a.u.)
 --------------------------------------------------------------
 
 Alpha MOs
 -- Occupied --
-24.184  -2.109  -1.171  -0.461  -0.446  -0.446
 -- Virtual --
 -0.015   0.015   0.015   0.018   0.027   0.057   0.057   0.081
  0.129   0.159   0.159   0.203   0.278   0.278   0.331   0.331
  0.342   0.399   0.427   0.427   0.533   0.533   0.556   0.602
  0.602   0.603   0.603   0.690   0.761   0.761   0.840   1.261
  1.262   1.273   1.273   1.423   1.638   1.638   1.667   2.272
  2.378   2.378   2.443   2.620   2.620   4.233   6.460   6.460
  6.488   6.943   6.943   6.946   6.951   6.951   6.954   6.994
  7.087   7.087   7.425   9.386   9.386   9.523   9.523   9.597
 20.157  20.199  21.372  21.390  21.390  50.290  50.352  50.371
 50.408  50.408  55.969  55.969  56.017  67.179
 --------------------------------------------------------------
 
          Ground-State Mulliken Net Atomic Charges

     Atom                 Charge (a.u.)
  ----------------------------------------
      1 Li                    0.615617
      2 F                    -0.615617
  ----------------------------------------
  Sum of atomic charges =     0.000000

 -----------------------------------------------------------------
                    Cartesian Multipole Moments
 -----------------------------------------------------------------
    Charge (ESU x 10^10)
                 0.0000
    Dipole Moment (Debye)
         X       0.0000      Y       0.0000      Z      -6.2809
       Tot       6.2809
    Quadrupole Moments (Debye-Ang)
        XX      -7.4186     XY       0.0000     YY      -7.4186
        XZ       0.0000     YZ       0.0000     ZZ     -15.8350
    Octapole Moments (Debye-Ang^2)
       XXX       0.0000    XXY       0.0000    XYY       0.0000
       YYY       0.0000    XXZ     -10.2417    XYZ       0.0000
       YYZ     -10.2417    XZZ       0.0000    YZZ       0.0000
       ZZZ     -42.3367
    Hexadecapole Moments (Debye-Ang^3)
      XXXX      -7.2059   XXXY       0.0000   XXYY      -2.4020
      XYYY       0.0000   YYYY      -7.2059   XXXZ       0.0000
      XXYZ       0.0000   XYYZ       0.0000   YYYZ       0.0000
      XXZZ     -17.5304   XYZZ       0.0000   YYZZ     -17.5304
      XZZZ       0.0000   YZZZ       0.0000   ZZZZ    -115.0519
 -----------------------------------------------------------------
 Calculating analytic gradient of the SCF energy
 Gradient of AOints
            1           2
    1   0.0000000  -0.0000000
    2   0.0000000  -0.0000000
    3   3.1147693  -3.1147693
 Gradient of XC Energy
            1           2
    1  -0.0000000   0.0000000
    2  -0.0000000   0.0000000
    3  -0.0787873   0.0787873
 Gradient of SCF Energy
            1           2
    1  -0.0000000   0.0000000
    2   0.0000000  -0.0000000
    3   0.0007003  -0.0007003
 Max gradient component =       7.003E-04
 RMS gradient           =       4.043E-04
 Gradient time:  CPU 3.83 s  wall 3.87 s
 Geometry Optimization Parameters
   NAtoms,    NIC,     NZ,  NCons,   NDum,   NFix, NCnnct, MaxDiis
        2       5       2       0       0       0       0       0

 Cartesian Hessian Update
 Hessian Updated using BFGS Update


** GEOMETRY OPTIMIZATION IN CARTESIAN COORDINATES **
   Searching for a Minimum

   Optimization Cycle:   2

                       Coordinates (Angstroms)
     ATOM              X           Y           Z
    1  Li          0.000000    0.000000   -0.000562
    2  F           0.000000    0.000000    1.552265
   Point Group: c1    Number of degrees of freedom:   0


   Energy is   -106.598591501


 Translations and Rotations Projected Out of Hessian

  1 Hessian modes will be used to form the next step
  Hessian Eigenvalues:
     0.340985

 Minimum Search - Taking Simple RFO Step
 Searching for Lamda that Minimizes Along All modes
 Value Taken    Lamda =  -0.00000288
 Step Taken.  Stepsize is  0.002904

                             Maximum     Tolerance    Cnvgd?
         Gradient           0.000700      0.000300      NO
         Displacement       0.002054      0.001200      NO
         Energy change     -0.000002      0.000001      NO

 Writing REM_CC_EA            2
 ----------------------------------------------------
       Standard Nuclear Orientation (Angstroms)
    I     Atom         X            Y            Z
 ----------------------------------------------------
    1      Li      0.000000     0.000000    -0.001649
    2      F       0.000000     0.000000     1.553352
 ----------------------------------------------------
 Nuclear Repulsion Energy =     9.1882785481 hartrees
 There are        6 alpha and        6 beta electrons
 Nucleus-field energy     =    -0.0000000002 hartrees
 Requested basis set is G3large
 There are 20 shells and 84 basis functions
 A cutoff of  1.0D-11 yielded    208 shell pairs
 There are   3686 function pairs (  4836 Cartesian)
Evaluating contribution to one-electron hamiltonian from nuclear
 Smallest overlap matrix eigenvalue = 2.11E-03
 Multipole matrices computed through 2nd order
 Guess MOs from SCF MO coefficient file
Reading MOs from coefficient file
Reading MOs from coefficient file
 A restricted hybrid HF-DFT SCF calculation will be
 performed using Pulay DIIS extrapolation
 Exchange:     1.0000 Hartree-Fock + 1.0000 BNL
 Correlation:  1.0000 LYP
 Using SG-1 standard quadrature grid
 SCF converges when DIIS error is below 1.0E-08
 ---------------------------------------
  Cycle       Energy         DIIS Error
 ---------------------------------------
    1    -106.5979322839      4.56E-05
    2    -106.5985929205      4.29E-06
    3    -106.5985929447      2.44E-06
    4    -106.5985929483      1.23E-06
    5    -106.5985929497      3.21E-07
    6    -106.5985929499      6.96E-08
    7    -106.5985929499      8.53E-09 Convergence criterion met
 ---------------------------------------
 One-Electron    Energy =  -169.2104621981
 Total Coulomb   Energy =    64.9395266025
 Alpha Exchange  Energy =    -1.6528496247
 Beta  Exchange  Energy =    -1.6528496247
 DFT   Exchange  Energy =    -7.7928052828
 DFT Correlation Energy =    -0.4174313699
 Nuclear Repu.   Energy =     9.1882785479
 Nuclear Attr.   Energy =  -275.3469154035
 Kinetic         Energy =   106.1364532054
 SCF time:  CPU 6.86 s  wall 7.36 s
 Final Alpha MO Eigenvalues
            1           2           3           4           5           6
    1 -24.1840008  -2.1093451  -1.1707269  -0.4610233  -0.4454590  -0.4454590
            7           8           9          10          11
    1  -0.0155268   0.0148898   0.0148898   0.0176072   0.0266804
 Analysis of SCF Wavefunction
 
 --------------------------------------------------------------
                    Orbital Energies (a.u.)
 --------------------------------------------------------------
 
 Alpha MOs
 -- Occupied --
-24.184  -2.109  -1.171  -0.461  -0.445  -0.445
 -- Virtual --
 -0.016   0.015   0.015   0.018   0.027   0.057   0.057   0.081
  0.129   0.158   0.158   0.203   0.278   0.278   0.331   0.331
  0.342   0.399   0.427   0.427   0.533   0.533   0.555   0.602
  0.602   0.603   0.603   0.690   0.761   0.761   0.839   1.261
  1.262   1.272   1.272   1.424   1.638   1.638   1.666   2.272
  2.377   2.378   2.446   2.619   2.619   4.228   6.460   6.460
  6.489   6.943   6.943   6.946   6.951   6.951   6.954   6.993
  7.086   7.086   7.425   9.386   9.386   9.522   9.522   9.597
 20.156  20.199  21.372  21.390  21.390  50.290  50.352  50.371
 50.408  50.408  55.969  55.969  56.017  67.179
 --------------------------------------------------------------
 
          Ground-State Mulliken Net Atomic Charges

     Atom                 Charge (a.u.)
  ----------------------------------------
      1 Li                    0.616097
      2 F                    -0.616097
  ----------------------------------------
  Sum of atomic charges =     0.000000

 -----------------------------------------------------------------
                    Cartesian Multipole Moments
 -----------------------------------------------------------------
    Charge (ESU x 10^10)
                 0.0000
    Dipole Moment (Debye)
         X       0.0000      Y       0.0000      Z      -6.2906
       Tot       6.2906
    Quadrupole Moments (Debye-Ang)
        XX      -7.4201     XY       0.0000     YY      -7.4201
        XZ       0.0000     YZ       0.0000     ZZ     -15.8484
    Octapole Moments (Debye-Ang^2)
       XXX       0.0000    XXY       0.0000    XYY       0.0000
       YYY       0.0000    XXZ     -10.2501    XYZ       0.0000
       YYZ     -10.2501    XZZ       0.0000    YZZ       0.0000
       ZZZ     -42.3867
    Hexadecapole Moments (Debye-Ang^3)
      XXXX      -7.2107   XXXY       0.0000   XXYY      -2.4035
      XYYY       0.0000   YYYY      -7.2107   XXXZ       0.0000
      XXYZ       0.0000   XYYZ       0.0000   YYYZ       0.0000
      XXZZ     -17.5554   XYZZ       0.0000   YYZZ     -17.5554
      XZZZ       0.0000   YZZZ       0.0000   ZZZZ    -115.2418
 -----------------------------------------------------------------
 Calculating analytic gradient of the SCF energy
 Gradient of AOints
            1           2
    1  -0.0000000   0.0000000
    2  -0.0000000   0.0000000
    3   3.1126014  -3.1126014
 Gradient of XC Energy
            1           2
    1   0.0000000  -0.0000000
    2   0.0000000  -0.0000000
    3  -0.0786724   0.0786724
 Gradient of SCF Energy
            1           2
    1   0.0000000  -0.0000000
    2   0.0000000  -0.0000000
    3   0.0000066  -0.0000066
 Max gradient component =       6.627E-06
 RMS gradient           =       3.826E-06
 Gradient time:  CPU 4.06 s  wall 4.11 s
 Geometry Optimization Parameters
   NAtoms,    NIC,     NZ,  NCons,   NDum,   NFix, NCnnct, MaxDiis
        2       5       2       0       0       0       0       0

 Cartesian Hessian Update
 Hessian Updated using BFGS Update


** GEOMETRY OPTIMIZATION IN CARTESIAN COORDINATES **
   Searching for a Minimum

   Optimization Cycle:   3

                       Coordinates (Angstroms)
     ATOM              X           Y           Z
    1  Li          0.000000    0.000000   -0.001649
    2  F           0.000000    0.000000    1.553352
   Point Group: c1    Number of degrees of freedom:   0


   Energy is   -106.598592950


 Translations and Rotations Projected Out of Hessian

  1 Hessian modes will be used to form the next step
  Hessian Eigenvalues:
     0.337762

 Minimum Search - Taking Simple RFO Step
 Searching for Lamda that Minimizes Along All modes
 Value Taken    Lamda =   0.00000000
 Step Taken.  Stepsize is  0.000028

                             Maximum     Tolerance    Cnvgd?
         Gradient           0.000007      0.000300     YES
         Displacement       0.000020      0.001200     YES
         Energy change     -0.000001      0.000001      NO


                       Distance Matrix (Angstroms)
             Li(  1)
   F (  2)  1.555001
 


 ******************************
 **  OPTIMIZATION CONVERGED  **
 ******************************
 Analysis of SCF Wavefunction
 
 --------------------------------------------------------------
                    Orbital Energies (a.u.)
 --------------------------------------------------------------
 
 Alpha MOs
 -- Occupied --
-24.184  -2.109  -1.171  -0.461  -0.445  -0.445
 -- Virtual --
 -0.016   0.015   0.015   0.018   0.027   0.057   0.057   0.081
  0.129   0.158   0.158   0.203   0.278   0.278   0.331   0.331
  0.342   0.399   0.427   0.427   0.533   0.533   0.555   0.602
  0.602   0.603   0.603   0.690   0.761   0.761   0.839   1.261
  1.262   1.272   1.272   1.424   1.638   1.638   1.666   2.272
  2.377   2.378   2.446   2.619   2.619   4.228   6.460   6.460
  6.489   6.943   6.943   6.946   6.951   6.951   6.954   6.993
  7.086   7.086   7.425   9.386   9.386   9.522   9.522   9.597
 20.156  20.199  21.372  21.390  21.390  50.290  50.352  50.371
 50.408  50.408  55.969  55.969  56.017  67.179
 --------------------------------------------------------------
 
          Ground-State Mulliken Net Atomic Charges

     Atom                 Charge (a.u.)
  ----------------------------------------
      1 Li                    0.616097
      2 F                    -0.616097
  ----------------------------------------
  Sum of atomic charges =     0.000000

 -----------------------------------------------------------------
                    Cartesian Multipole Moments
 -----------------------------------------------------------------
    Charge (ESU x 10^10)
                 0.0000
    Dipole Moment (Debye)
         X       0.0000      Y       0.0000      Z      -6.2906
       Tot       6.2906
    Quadrupole Moments (Debye-Ang)
        XX      -7.4201     XY       0.0000     YY      -7.4201
        XZ       0.0000     YZ       0.0000     ZZ     -15.8484
    Octapole Moments (Debye-Ang^2)
       XXX       0.0000    XXY       0.0000    XYY       0.0000
       YYY       0.0000    XXZ     -10.2501    XYZ       0.0000
       YYZ     -10.2501    XZZ       0.0000    YZZ       0.0000
       ZZZ     -42.3867
    Hexadecapole Moments (Debye-Ang^3)
      XXXX      -7.2107   XXXY       0.0000   XXYY      -2.4035
      XYYY       0.0000   YYYY      -7.2107   XXXZ       0.0000
      XXYZ       0.0000   XYYZ       0.0000   YYYZ       0.0000
      XXZZ     -17.5554   XYZZ       0.0000   YYZZ     -17.5554
      XZZZ       0.0000   YZZZ       0.0000   ZZZZ    -115.2418
 -----------------------------------------------------------------
 Total job time:  38.08s(wall), 36.55s(cpu) 
 Thu Apr 21 17:46:03 2011

        *************************************************************
        *                                                           *
        *  Thank you very much for using Q-Chem.  Have a nice day.  *
        *                                                           *
        *************************************************************


0 sent ACK to 0 
now end server 0 ... 
 
**********************************************************************
Job 2 of 2 
**********************************************************************
 
Process 0 of 1 is on cl247.stfx.acenet.ca - thread support 1
initial socket setup ...start
initial socket setup ...done 
now start server 0 ... 

cmd = /usr/bin/ssh clhead /usr/local/qchem/bin/get_hostid 57440210 > /scratch/tmp/4506571.1.long.q/qchem11302/lic.dat
                  Welcome to Q-Chem
     A Quantum Leap Into The Future Of Chemistry

 Y. Shao, L. Fusti-Molnar, Y. Jung, J. Kussmann, C. Ochsenfeld,
 S. T. Brown, A. T. B. Gilbert, L. V. Slipchenko,S. V. Levchenko,
 D. P. O'Neill, R. A. DiStasio Jr., R. C. Lochan, T. Wang,
 G. J. O. Beran, N. A. Besley, J. M. Herbert, C. Y. Lin,
 T. Van Voorhis, S. H. Chien, A. Sodt, R. P. Steele, 
 V. A. Rassolov, P. E. Maslen, P. P. Korambath, R. D. Adamson,
 B. Austin, J. Baker, E. F. C. Byrd, H. Dachsel, R. J. Doerksen,
 A. Dreuw, B. D. Dunietz, A. D. Dutoi, T. R. Furlani,
 S. R. Gwaltney, A. Heyden, S. Hirata, C.-P. Hsu, G. Kedziora,
 R. Z. Khaliullin, P. Klunzinger, A. M. Lee, M. S. Lee, W. Liang,
 I. Lotan, N. Nair, B. Peters, E. I. Proynov, P. A. Pieniazek, 
 Y. M. Rhee, J. Ritchie, E. Rosta, C. D. Sherrill, 
 A. C. Simmonett, J. E. Subotnik, H. L. Woodcock III,
 W. Zhang, A. T. Bell, A. K. Chakraborty, D. M. Chipman,
 F. J. Keil, A. Warshel, W. J. Hehre, H. F. Schaefer III,
 J. Kong, A. I. Krylov, P. M. W. Gill, M. Head-Gordon,
 Q-Chem, Version 3.1, Q-Chem, Inc., Pittsburgh, PA (2007).

 Additional authors for Version 3.1: 
 Z. Gan, Y. Zhao, N. E. Schultz, D. Truhlar, E. Epifanovsky and M. Oana.

 Additional authors for Version 3.2: 
 R. Baer, B. R. Brooks, D. Casanova, J.-D. Chai, C.-L. Cheng, 
 C. Cramer, D. Crittenden, A. Ghysels, G. Hawkins, E. G. Hohenstein, 
 C. Kelley, W. Kurlancheek, D. Liotard, E. Livshits, P. Manohar, 
 A. Marenich, D. Neuhauser, R. Olson, M. A. Rohrdanz, K. S. Thanthiriwatte, 
 A. J. W. Thom, V. Vanovschi, C. F. Williams, Q. Wu and Z.-Q. You. 


 Intel X86 Linux Version

 Q-chem begins on Thu Apr 21 17:46:05 2011  

 Parallel job on  1  processors
Processing $rem in /usr/local/qchem/config/preferences.

theFileMan(): MAXOPENFILES=974 MAX_SUB_FILE_NUM=16
Maximum size of a physical file is 2.0 GB, maximum size of a tmp-file is 32.0 GB


--------------------------------------------------------------
User input:
--------------------------------------------------------------

$molecule 
READ 
$end 

$xc_functional
   X HF 1.0
   X BNL 1.0
   C LYP 1.0
$end

$rem
SYMMETRY_DECOMPOSITION	0
exchange 		general
BASIS                   g3large
omega			560 
JOBTYPE                 freq
IDERIV 1
SCF_GUESS READ
separate_jk		true
mem_static              760
max_scf_cycles          200
scf_final_print         1
sym_ignore              true
$end

--------------------------------------------------------------
 Writing REM_CC_EA            2
 ----------------------------------------------------
       Standard Nuclear Orientation (Angstroms)
    I     Atom         X            Y            Z
 ----------------------------------------------------
    1      Li      0.000000     0.000000    -0.001649
    2      F       0.000000     0.000000     1.553352
 ----------------------------------------------------
 Nuclear Repulsion Energy =     9.1882785481 hartrees
 There are        6 alpha and        6 beta electrons
 Requested basis set is G3large
 There are 20 shells and 84 basis functions

Total QAlloc Memory Limit   2000 MB
Mega-Array Size       759 MB
MEM_STATIC part       760 MB

                       Distance Matrix (Angstroms)
             Li(  1)
   F (  2)  1.555001
 
 A cutoff of  1.0D-11 yielded    208 shell pairs
 There are   3686 function pairs (  4836 Cartesian)
Evaluating contribution to one-electron hamiltonian from nuclear
 Smallest overlap matrix eigenvalue = 2.11E-03
 Multipole matrices computed through 2nd order
 Guess MOs from SCF MO coefficient file
Reading MOs from coefficient file
Reading MOs from coefficient file
 A restricted hybrid HF-DFT SCF calculation will be
 performed using Pulay DIIS extrapolation
 Exchange:     1.0000 Hartree-Fock + 1.0000 BNL
 Correlation:  1.0000 LYP
 Using SG-1 standard quadrature grid
 SCF converges when DIIS error is below 1.0E-08
 ---------------------------------------
  Cycle       Energy         DIIS Error
 ---------------------------------------
    1    -106.5985929500      1.06E-09
    2    -106.5985929498      4.64E-10 Convergence criterion met
 ---------------------------------------
 One-Electron    Energy =  -169.2104628483
 Total Coulomb   Energy =    64.9395273377
 Alpha Exchange  Energy =    -1.6528496349
 Beta  Exchange  Energy =    -1.6528496349
 DFT   Exchange  Energy =    -7.7928053442
 DFT Correlation Energy =    -0.4174313733
 Nuclear Repu.   Energy =     9.1882785481
 Nuclear Attr.   Energy =  -275.3469165449
 Kinetic         Energy =   106.1364536965
 SCF time:  CPU 2.00 s  wall 2.23 s
 Final Alpha MO Eigenvalues
            1           2           3           4           5           6
    1 -24.1840008  -2.1093451  -1.1707269  -0.4610233  -0.4454590  -0.4454590
            7           8           9          10          11
    1  -0.0155268   0.0148898   0.0148898   0.0176072   0.0266804
 Analysis of SCF Wavefunction
 
 --------------------------------------------------------------
                    Orbital Energies (a.u.)
 --------------------------------------------------------------
 
 Alpha MOs
 -- Occupied --
-24.184  -2.109  -1.171  -0.461  -0.445  -0.445
 -- Virtual --
 -0.016   0.015   0.015   0.018   0.027   0.057   0.057   0.081
  0.129   0.158   0.158   0.203   0.278   0.278   0.331   0.331
  0.342   0.399   0.427   0.427   0.533   0.533   0.555   0.602
  0.602   0.603   0.603   0.690   0.761   0.761   0.839   1.261
  1.262   1.272   1.272   1.424   1.638   1.638   1.666   2.272
  2.377   2.378   2.446   2.619   2.619   4.228   6.460   6.460
  6.489   6.943   6.943   6.946   6.951   6.951   6.954   6.993
  7.086   7.086   7.425   9.386   9.386   9.522   9.522   9.597
 20.156  20.199  21.372  21.390  21.390  50.290  50.352  50.371
 50.408  50.408  55.969  55.969  56.017  67.179
 --------------------------------------------------------------
 
          Ground-State Mulliken Net Atomic Charges

     Atom                 Charge (a.u.)
  ----------------------------------------
      1 Li                    0.616097
      2 F                    -0.616097
  ----------------------------------------
  Sum of atomic charges =     0.000000

 -----------------------------------------------------------------
                    Cartesian Multipole Moments
 -----------------------------------------------------------------
    Charge (ESU x 10^10)
                 0.0000
    Dipole Moment (Debye)
         X       0.0000      Y       0.0000      Z      -6.2906
       Tot       6.2906
    Quadrupole Moments (Debye-Ang)
        XX      -7.4201     XY       0.0000     YY      -7.4201
        XZ       0.0000     YZ       0.0000     ZZ     -15.8484
    Octapole Moments (Debye-Ang^2)
       XXX       0.0000    XXY       0.0000    XYY       0.0000
       YYY       0.0000    XXZ     -10.2501    XYZ       0.0000
       YYZ     -10.2501    XZZ       0.0000    YZZ       0.0000
       ZZZ     -42.3867
    Hexadecapole Moments (Debye-Ang^3)
      XXXX      -7.2107   XXXY       0.0000   XXYY      -2.4035
      XYYY       0.0000   YYYY      -7.2107   XXXZ       0.0000
      XXYZ       0.0000   XYYZ       0.0000   YYYZ       0.0000
      XXZZ     -17.5554   XYZZ       0.0000   YYZZ     -17.5554
      XZZZ       0.0000   YZZZ       0.0000   ZZZZ    -115.2417
 -----------------------------------------------------------------
 Calculating analytic gradient of the SCF energy
 Gradient of AOints
            1           2
    1   0.0000000  -0.0000000
    2   0.0000000  -0.0000000
    3   3.1126014  -3.1126014
 Gradient of XC Energy
            1           2
    1  -0.0000000   0.0000000
    2  -0.0000000   0.0000000
    3  -0.0786724   0.0786724
 Gradient of SCF Energy
            1           2
    1  -0.0000000   0.0000000
    2  -0.0000000   0.0000000
    3   0.0000066  -0.0000066
 Max gradient component =       6.625E-06
 RMS gradient           =       3.825E-06
 Gradient time:  CPU 3.96 s  wall 4.09 s
 ######################################################
 ######################################################
 # Starting finite difference calculation for IDERIV  #
 Finite diff step size: 1.89e-03 a.u.
 Writing REM_CC_EA            2
 ----------------------------------------------------
       Standard Nuclear Orientation (Angstroms)
    I     Atom         X            Y            Z
 ----------------------------------------------------
    1      Li      0.001000     0.000000    -0.001649
    2      F       0.000000     0.000000     1.553352
 ----------------------------------------------------
 Nuclear Repulsion Energy =     9.1882766482 hartrees
 There are        6 alpha and        6 beta electrons

                       Distance Matrix (Angstroms)
             Li(  1)
   F (  2)  1.555002
 
 Requested basis set is G3large
 There are 20 shells and 84 basis functions
 A cutoff of  1.0D-11 yielded    208 shell pairs
 There are   3686 function pairs (  4836 Cartesian)
Evaluating contribution to one-electron hamiltonian from nuclear
 Smallest overlap matrix eigenvalue = 2.11E-03
 Multipole matrices computed through 2nd order
 Guess MOs from SCF MO coefficient file
Reading MOs from coefficient file
Reading MOs from coefficient file
 A restricted hybrid HF-DFT SCF calculation will be
 performed using Pulay DIIS extrapolation
 Exchange:     1.0000 Hartree-Fock + 1.0000 BNL
 Correlation:  1.0000 LYP
 Using SG-1 standard quadrature grid
 SCF converges when DIIS error is below 1.0E-08
 ---------------------------------------
  Cycle       Energy         DIIS Error
 ---------------------------------------
    1    -106.5985926346      9.26E-06
    2    -106.5985929467      1.65E-06
    3    -106.5985929515      5.83E-07
    4    -106.5985929521      1.57E-07
    5    -106.5985929520      2.58E-08
    6    -106.5985929521      2.03E-08
    7    -106.5985929521      2.31E-09 Convergence criterion met
 ---------------------------------------
 One-Electron    Energy =  -169.2104590727
 Total Coulomb   Energy =    64.9395253675
 Alpha Exchange  Energy =    -1.6528496266
 Beta  Exchange  Energy =    -1.6528496266
 DFT   Exchange  Energy =    -7.7928052750
 DFT Correlation Energy =    -0.4174313670
 Nuclear Repu.   Energy =     9.1882766482
 Nuclear Attr.   Energy =  -275.3469122638
 Kinetic         Energy =   106.1364531911
 SCF time:  CPU 6.78 s  wall 7.75 s
 Final Alpha MO Eigenvalues
            1           2           3           4           5           6
    1 -24.1840007  -2.1093451  -1.1707269  -0.4610233  -0.4454589  -0.4454589
            7           8           9          10          11
    1  -0.0155268   0.0148898   0.0148898   0.0176072   0.0266804
 Analysis of SCF Wavefunction
 
 --------------------------------------------------------------
                    Orbital Energies (a.u.)
 --------------------------------------------------------------
 
 Alpha MOs
 -- Occupied --
-24.184  -2.109  -1.171  -0.461  -0.445  -0.445
 -- Virtual --
 -0.016   0.015   0.015   0.018   0.027   0.057   0.057   0.081
  0.129   0.158   0.158   0.203   0.278   0.278   0.331   0.331
  0.342   0.399   0.427   0.427   0.533   0.533   0.555   0.602
  0.602   0.603   0.603   0.690   0.761   0.761   0.839   1.261
  1.262   1.272   1.272   1.424   1.638   1.638   1.666   2.272
  2.377   2.378   2.446   2.619   2.619   4.228   6.460   6.460
  6.489   6.943   6.943   6.946   6.951   6.951   6.954   6.993
  7.086   7.086   7.425   9.386   9.386   9.522   9.522   9.597
 20.156  20.199  21.372  21.390  21.390  50.290  50.352  50.371
 50.408  50.408  55.969  55.969  56.017  67.179
 --------------------------------------------------------------
 
          Ground-State Mulliken Net Atomic Charges

     Atom                 Charge (a.u.)
  ----------------------------------------
      1 Li                    0.616097
      2 F                    -0.616097
  ----------------------------------------
  Sum of atomic charges =     0.000000

 -----------------------------------------------------------------
                    Cartesian Multipole Moments
 -----------------------------------------------------------------
    Charge (ESU x 10^10)
                 0.0000
    Dipole Moment (Debye)
         X       0.0040      Y       0.0000      Z      -6.2906
       Tot       6.2906
    Quadrupole Moments (Debye-Ang)
        XX      -7.4201     XY       0.0000     YY      -7.4201
        XZ      -0.0009     YZ       0.0000     ZZ     -15.8484
    Octapole Moments (Debye-Ang^2)
       XXX      -0.0025    XXY       0.0000    XYY      -0.0008
       YYY       0.0000    XXZ     -10.2501    XYZ       0.0000
       YYZ     -10.2501    XZZ      -0.0018    YZZ       0.0000
       ZZZ     -42.3867
    Hexadecapole Moments (Debye-Ang^3)
      XXXX      -7.2107   XXXY       0.0000   XXYY      -2.4035
      XYYY       0.0000   YYYY      -7.2107   XXXZ      -0.0015
      XXYZ       0.0000   XYYZ      -0.0005   YYYZ       0.0000
      XXZZ     -17.5554   XYZZ       0.0000   YYZZ     -17.5554
      XZZZ      -0.0021   YZZZ       0.0000   ZZZZ    -115.2418
 -----------------------------------------------------------------
 Calculating analytic gradient of the SCF energy
 Gradient of AOints
            1           2
    1  -0.0020106   0.0020106
    2   0.0000000  -0.0000000
    3   3.1126004  -3.1126004
 Gradient of XC Energy
            1           2
    1   0.0000485  -0.0000485
    2  -0.0000000   0.0000000
    3  -0.0786723   0.0786723
 Gradient of SCF Energy
            1           2
    1  -0.0000024   0.0000024
    2  -0.0000000   0.0000000
    3   0.0000065  -0.0000065
 Max gradient component =       6.543E-06
 RMS gradient           =       4.031E-06
 Gradient time:  CPU 4.02 s  wall 4.16 s
 Writing REM_CC_EA            2
 ----------------------------------------------------
       Standard Nuclear Orientation (Angstroms)
    I     Atom         X            Y            Z
 ----------------------------------------------------
    1      Li     -0.001000     0.000000    -0.001649
    2      F       0.000000     0.000000     1.553352
 ----------------------------------------------------
 Nuclear Repulsion Energy =     9.1882766482 hartrees
 There are        6 alpha and        6 beta electrons

                       Distance Matrix (Angstroms)
             Li(  1)
   F (  2)  1.555002
 
 Requested basis set is G3large
 There are 20 shells and 84 basis functions
 A cutoff of  1.0D-11 yielded    208 shell pairs
 There are   3686 function pairs (  4836 Cartesian)
Evaluating contribution to one-electron hamiltonian from nuclear
 Smallest overlap matrix eigenvalue = 2.11E-03
 Multipole matrices computed through 2nd order
 Guess MOs from SCF MO coefficient file
Reading MOs from coefficient file
Reading MOs from coefficient file
 A restricted hybrid HF-DFT SCF calculation will be
 performed using Pulay DIIS extrapolation
 Exchange:     1.0000 Hartree-Fock + 1.0000 BNL
 Correlation:  1.0000 LYP
 Using SG-1 standard quadrature grid
 SCF converges when DIIS error is below 1.0E-08
 ---------------------------------------
  Cycle       Energy         DIIS Error
 ---------------------------------------
    1    -106.5985920752      1.85E-05
    2    -106.5985929305      3.31E-06
    3    -106.5985929495      1.17E-06
    4    -106.5985929518      3.15E-07
    5    -106.5985929519      7.06E-08
    6    -106.5985929522      5.60E-08
    7    -106.5985929519      3.81E-09 Convergence criterion met
 ---------------------------------------
 One-Electron    Energy =  -169.2104590499
 Total Coulomb   Energy =    64.9395253418
 Alpha Exchange  Energy =    -1.6528496263
 Beta  Exchange  Energy =    -1.6528496263
 DFT   Exchange  Energy =    -7.7928052725
 DFT Correlation Energy =    -0.4174313669
 Nuclear Repu.   Energy =     9.1882766482
 Nuclear Attr.   Energy =  -275.3469122208
 Kinetic         Energy =   106.1364531710
 SCF time:  CPU 6.87 s  wall 7.66 s
 Final Alpha MO Eigenvalues
            1           2           3           4           5           6
    1 -24.1840007  -2.1093451  -1.1707269  -0.4610233  -0.4454589  -0.4454589
            7           8           9          10          11
    1  -0.0155268   0.0148898   0.0148898   0.0176072   0.0266804
 Analysis of SCF Wavefunction
 
 --------------------------------------------------------------
                    Orbital Energies (a.u.)
 --------------------------------------------------------------
 
 Alpha MOs
 -- Occupied --
-24.184  -2.109  -1.171  -0.461  -0.445  -0.445
 -- Virtual --
 -0.016   0.015   0.015   0.018   0.027   0.057   0.057   0.081
  0.129   0.158   0.158   0.203   0.278   0.278   0.331   0.331
  0.342   0.399   0.427   0.427   0.533   0.533   0.555   0.602
  0.602   0.603   0.603   0.690   0.761   0.761   0.839   1.261
  1.262   1.272   1.272   1.424   1.638   1.638   1.666   2.272
  2.377   2.378   2.446   2.619   2.619   4.228   6.460   6.460
  6.489   6.943   6.943   6.946   6.951   6.951   6.954   6.993
  7.086   7.086   7.425   9.386   9.386   9.522   9.522   9.597
 20.156  20.199  21.372  21.390  21.390  50.290  50.352  50.371
 50.408  50.408  55.969  55.969  56.017  67.179
 --------------------------------------------------------------
 
          Ground-State Mulliken Net Atomic Charges

     Atom                 Charge (a.u.)
  ----------------------------------------
      1 Li                    0.616097
      2 F                    -0.616097
  ----------------------------------------
  Sum of atomic charges =     0.000000

 -----------------------------------------------------------------
                    Cartesian Multipole Moments
 -----------------------------------------------------------------
    Charge (ESU x 10^10)
                 0.0000
    Dipole Moment (Debye)
         X      -0.0040      Y       0.0000      Z      -6.2906
       Tot       6.2906
    Quadrupole Moments (Debye-Ang)
        XX      -7.4201     XY       0.0000     YY      -7.4201
        XZ       0.0009     YZ       0.0000     ZZ     -15.8484
    Octapole Moments (Debye-Ang^2)
       XXX       0.0025    XXY       0.0000    XYY       0.0008
       YYY       0.0000    XXZ     -10.2501    XYZ       0.0000
       YYZ     -10.2501    XZZ       0.0018    YZZ       0.0000
       ZZZ     -42.3867
    Hexadecapole Moments (Debye-Ang^3)
      XXXX      -7.2107   XXXY       0.0000   XXYY      -2.4035
      XYYY       0.0000   YYYY      -7.2107   XXXZ       0.0015
      XXYZ       0.0000   XYYZ       0.0005   YYYZ       0.0000
      XXZZ     -17.5554   XYZZ       0.0000   YYZZ     -17.5554
      XZZZ       0.0021   YZZZ       0.0000   ZZZZ    -115.2418
 -----------------------------------------------------------------
 Calculating analytic gradient of the SCF energy
 Gradient of AOints
            1           2
    1   0.0020106  -0.0020106
    2   0.0000000  -0.0000000
    3   3.1126004  -3.1126004
 Gradient of XC Energy
            1           2
    1  -0.0000485   0.0000485
    2  -0.0000000   0.0000000
    3  -0.0786723   0.0786723
 Gradient of SCF Energy
            1           2
    1   0.0000024  -0.0000024
    2   0.0000000  -0.0000000
    3   0.0000065  -0.0000065
 Max gradient component =       6.544E-06
 RMS gradient           =       4.032E-06
 Gradient time:  CPU 4.02 s  wall 4.07 s
 Writing REM_CC_EA            2
 ----------------------------------------------------
       Standard Nuclear Orientation (Angstroms)
    I     Atom         X            Y            Z
 ----------------------------------------------------
    1      Li      0.000000     0.001000    -0.001649
    2      F       0.000000     0.000000     1.553352
 ----------------------------------------------------
 Nuclear Repulsion Energy =     9.1882766482 hartrees
 There are        6 alpha and        6 beta electrons

                       Distance Matrix (Angstroms)
             Li(  1)
   F (  2)  1.555002
 
 Requested basis set is G3large
 There are 20 shells and 84 basis functions
 A cutoff of  1.0D-11 yielded    208 shell pairs
 There are   3686 function pairs (  4836 Cartesian)
Evaluating contribution to one-electron hamiltonian from nuclear
 Smallest overlap matrix eigenvalue = 2.11E-03
 Multipole matrices computed through 2nd order
 Guess MOs from SCF MO coefficient file
Reading MOs from coefficient file
Reading MOs from coefficient file
 A restricted hybrid HF-DFT SCF calculation will be
 performed using Pulay DIIS extrapolation
 Exchange:     1.0000 Hartree-Fock + 1.0000 BNL
 Correlation:  1.0000 LYP
 Using SG-1 standard quadrature grid
 SCF converges when DIIS error is below 1.0E-08
 ---------------------------------------
  Cycle       Energy         DIIS Error
 ---------------------------------------
    1    -106.5985925138      1.31E-05
    2    -106.5985929411      2.34E-06
    3    -106.5985929511      8.24E-07
    4    -106.5985929522      2.22E-07
    5    -106.5985929522      4.16E-08
    6    -106.5985929524      3.53E-08
    7    -106.5985929521      2.89E-09 Convergence criterion met
 ---------------------------------------
 One-Electron    Energy =  -169.2104590689
 Total Coulomb   Energy =    64.9395253632
 Alpha Exchange  Energy =    -1.6528496265
 Beta  Exchange  Energy =    -1.6528496265
 DFT   Exchange  Energy =    -7.7928052747
 DFT Correlation Energy =    -0.4174313669
 Nuclear Repu.   Energy =     9.1882766482
 Nuclear Attr.   Energy =  -275.3469122571
 Kinetic         Energy =   106.1364531882
 SCF time:  CPU 6.81 s  wall 7.42 s
 Final Alpha MO Eigenvalues
            1           2           3           4           5           6
    1 -24.1840007  -2.1093451  -1.1707269  -0.4610233  -0.4454589  -0.4454589
            7           8           9          10          11
    1  -0.0155268   0.0148898   0.0148898   0.0176072   0.0266804
 Analysis of SCF Wavefunction
 
 --------------------------------------------------------------
                    Orbital Energies (a.u.)
 --------------------------------------------------------------
 
 Alpha MOs
 -- Occupied --
-24.184  -2.109  -1.171  -0.461  -0.445  -0.445
 -- Virtual --
 -0.016   0.015   0.015   0.018   0.027   0.057   0.057   0.081
  0.129   0.158   0.158   0.203   0.278   0.278   0.331   0.331
  0.342   0.399   0.427   0.427   0.533   0.533   0.555   0.602
  0.602   0.603   0.603   0.690   0.761   0.761   0.839   1.261
  1.262   1.272   1.272   1.424   1.638   1.638   1.666   2.272
  2.377   2.378   2.446   2.619   2.619   4.228   6.460   6.460
  6.489   6.943   6.943   6.946   6.951   6.951   6.954   6.993
  7.086   7.086   7.425   9.386   9.386   9.522   9.522   9.597
 20.156  20.199  21.372  21.390  21.390  50.290  50.352  50.371
 50.408  50.408  55.969  55.969  56.017  67.179
 --------------------------------------------------------------
 
          Ground-State Mulliken Net Atomic Charges

     Atom                 Charge (a.u.)
  ----------------------------------------
      1 Li                    0.616097
      2 F                    -0.616097
  ----------------------------------------
  Sum of atomic charges =     0.000000

 -----------------------------------------------------------------
                    Cartesian Multipole Moments
 -----------------------------------------------------------------
    Charge (ESU x 10^10)
                 0.0000
    Dipole Moment (Debye)
         X       0.0000      Y       0.0040      Z      -6.2906
       Tot       6.2906
    Quadrupole Moments (Debye-Ang)
        XX      -7.4201     XY       0.0000     YY      -7.4201
        XZ       0.0000     YZ      -0.0009     ZZ     -15.8484
    Octapole Moments (Debye-Ang^2)
       XXX       0.0000    XXY      -0.0008    XYY       0.0000
       YYY      -0.0025    XXZ     -10.2501    XYZ       0.0000
       YYZ     -10.2501    XZZ       0.0000    YZZ      -0.0018
       ZZZ     -42.3867
    Hexadecapole Moments (Debye-Ang^3)
      XXXX      -7.2107   XXXY       0.0000   XXYY      -2.4035
      XYYY       0.0000   YYYY      -7.2107   XXXZ       0.0000
      XXYZ      -0.0005   XYYZ       0.0000   YYYZ      -0.0015
      XXZZ     -17.5554   XYZZ       0.0000   YYZZ     -17.5554
      XZZZ       0.0000   YZZZ      -0.0021   ZZZZ    -115.2418
 -----------------------------------------------------------------
 Calculating analytic gradient of the SCF energy
 Gradient of AOints
            1           2
    1  -0.0000000   0.0000000
    2  -0.0020106   0.0020106
    3   3.1126004  -3.1126004
 Gradient of XC Energy
            1           2
    1   0.0000000  -0.0000000
    2   0.0000485  -0.0000485
    3  -0.0786723   0.0786723
 Gradient of SCF Energy
            1           2
    1  -0.0000000   0.0000000
    2  -0.0000024   0.0000024
    3   0.0000065  -0.0000065
 Max gradient component =       6.543E-06
 RMS gradient           =       4.031E-06
 Gradient time:  CPU 4.04 s  wall 4.22 s
 Writing REM_CC_EA            2
 ----------------------------------------------------
       Standard Nuclear Orientation (Angstroms)
    I     Atom         X            Y            Z
 ----------------------------------------------------
    1      Li      0.000000    -0.001000    -0.001649
    2      F       0.000000     0.000000     1.553352
 ----------------------------------------------------
 Nuclear Repulsion Energy =     9.1882766482 hartrees
 There are        6 alpha and        6 beta electrons

                       Distance Matrix (Angstroms)
             Li(  1)
   F (  2)  1.555002
 
 Requested basis set is G3large
 There are 20 shells and 84 basis functions
 A cutoff of  1.0D-11 yielded    208 shell pairs
 There are   3686 function pairs (  4836 Cartesian)
Evaluating contribution to one-electron hamiltonian from nuclear
 Smallest overlap matrix eigenvalue = 2.11E-03
 Multipole matrices computed through 2nd order
 Guess MOs from SCF MO coefficient file
Reading MOs from coefficient file
Reading MOs from coefficient file
 A restricted hybrid HF-DFT SCF calculation will be
 performed using Pulay DIIS extrapolation
 Exchange:     1.0000 Hartree-Fock + 1.0000 BNL
 Correlation:  1.0000 LYP
 Using SG-1 standard quadrature grid
 SCF converges when DIIS error is below 1.0E-08
 ---------------------------------------
  Cycle       Energy         DIIS Error
 ---------------------------------------
    1    -106.5985920752      1.85E-05
    2    -106.5985929305      3.31E-06
    3    -106.5985929497      1.17E-06
    4    -106.5985929518      3.15E-07
    5    -106.5985929519      7.07E-08
    6    -106.5985929522      5.61E-08
    7    -106.5985929520      3.80E-09 Convergence criterion met
 ---------------------------------------
 One-Electron    Energy =  -169.2104590579
 Total Coulomb   Energy =    64.9395253507
 Alpha Exchange  Energy =    -1.6528496264
 Beta  Exchange  Energy =    -1.6528496264
 DFT   Exchange  Energy =    -7.7928052733
 DFT Correlation Energy =    -0.4174313669
 Nuclear Repu.   Energy =     9.1882766482
 Nuclear Attr.   Energy =  -275.3469122324
 Kinetic         Energy =   106.1364531745
 SCF time:  CPU 6.86 s  wall 7.44 s
 Final Alpha MO Eigenvalues
            1           2           3           4           5           6
    1 -24.1840007  -2.1093451  -1.1707269  -0.4610233  -0.4454589  -0.4454589
            7           8           9          10          11
    1  -0.0155268   0.0148898   0.0148898   0.0176072   0.0266804
 Analysis of SCF Wavefunction
 
 --------------------------------------------------------------
                    Orbital Energies (a.u.)
 --------------------------------------------------------------
 
 Alpha MOs
 -- Occupied --
-24.184  -2.109  -1.171  -0.461  -0.445  -0.445
 -- Virtual --
 -0.016   0.015   0.015   0.018   0.027   0.057   0.057   0.081
  0.129   0.158   0.158   0.203   0.278   0.278   0.331   0.331
  0.342   0.399   0.427   0.427   0.533   0.533   0.555   0.602
  0.602   0.603   0.603   0.690   0.761   0.761   0.839   1.261
  1.262   1.272   1.272   1.424   1.638   1.638   1.666   2.272
  2.377   2.378   2.446   2.619   2.619   4.228   6.460   6.460
  6.489   6.943   6.943   6.946   6.951   6.951   6.954   6.993
  7.086   7.086   7.425   9.386   9.386   9.522   9.522   9.597
 20.156  20.199  21.372  21.390  21.390  50.290  50.352  50.371
 50.408  50.408  55.969  55.969  56.017  67.179
 --------------------------------------------------------------
 
          Ground-State Mulliken Net Atomic Charges

     Atom                 Charge (a.u.)
  ----------------------------------------
      1 Li                    0.616097
      2 F                    -0.616097
  ----------------------------------------
  Sum of atomic charges =     0.000000

 -----------------------------------------------------------------
                    Cartesian Multipole Moments
 -----------------------------------------------------------------
    Charge (ESU x 10^10)
                 0.0000
    Dipole Moment (Debye)
         X       0.0000      Y      -0.0040      Z      -6.2906
       Tot       6.2906
    Quadrupole Moments (Debye-Ang)
        XX      -7.4201     XY       0.0000     YY      -7.4201
        XZ       0.0000     YZ       0.0009     ZZ     -15.8484
    Octapole Moments (Debye-Ang^2)
       XXX       0.0000    XXY       0.0008    XYY       0.0000
       YYY       0.0025    XXZ     -10.2501    XYZ       0.0000
       YYZ     -10.2501    XZZ       0.0000    YZZ       0.0018
       ZZZ     -42.3867
    Hexadecapole Moments (Debye-Ang^3)
      XXXX      -7.2107   XXXY       0.0000   XXYY      -2.4035
      XYYY       0.0000   YYYY      -7.2107   XXXZ       0.0000
      XXYZ       0.0005   XYYZ       0.0000   YYYZ       0.0015
      XXZZ     -17.5554   XYZZ       0.0000   YYZZ     -17.5554
      XZZZ       0.0000   YZZZ       0.0021   ZZZZ    -115.2418
 -----------------------------------------------------------------
 Calculating analytic gradient of the SCF energy
 Gradient of AOints
            1           2
    1   0.0000000  -0.0000000
    2   0.0020106  -0.0020106
    3   3.1126004  -3.1126004
 Gradient of XC Energy
            1           2
    1  -0.0000000   0.0000000
    2  -0.0000485   0.0000485
    3  -0.0786723   0.0786723
 Gradient of SCF Energy
            1           2
    1   0.0000000  -0.0000000
    2   0.0000024  -0.0000024
    3   0.0000065  -0.0000065
 Max gradient component =       6.543E-06
 RMS gradient           =       4.032E-06
 Gradient time:  CPU 4.01 s  wall 4.11 s
 Writing REM_CC_EA            2
 ----------------------------------------------------
       Standard Nuclear Orientation (Angstroms)
    I     Atom         X            Y            Z
 ----------------------------------------------------
    1      Li      0.000000     0.000000    -0.000649
    2      F       0.000000     0.000000     1.553352
 ----------------------------------------------------
 Nuclear Repulsion Energy =     9.1941912065 hartrees
 There are        6 alpha and        6 beta electrons

                       Distance Matrix (Angstroms)
             Li(  1)
   F (  2)  1.554001
 
 Requested basis set is G3large
 There are 20 shells and 84 basis functions
 A cutoff of  1.0D-11 yielded    208 shell pairs
 There are   3686 function pairs (  4836 Cartesian)
Evaluating contribution to one-electron hamiltonian from nuclear
 Smallest overlap matrix eigenvalue = 2.12E-03
 Multipole matrices computed through 2nd order
 Guess MOs from SCF MO coefficient file
Reading MOs from coefficient file
Reading MOs from coefficient file
 A restricted hybrid HF-DFT SCF calculation will be
 performed using Pulay DIIS extrapolation
 Exchange:     1.0000 Hartree-Fock + 1.0000 BNL
 Correlation:  1.0000 LYP
 Using SG-1 standard quadrature grid
 SCF converges when DIIS error is below 1.0E-08
 ---------------------------------------
  Cycle       Energy         DIIS Error
 ---------------------------------------
    1    -106.5988960438      2.29E-05
    2    -106.5985926255      2.57E-06
    3    -106.5985926354      1.26E-06
    4    -106.5985926368      7.21E-07
    5    -106.5985926371      2.19E-07
    6    -106.5985926372      3.66E-08
    7    -106.5985926373      5.04E-09 Convergence criterion met
 ---------------------------------------
 One-Electron    Energy =  -169.2215269593
 Total Coulomb   Energy =    64.9448770419
 Alpha Exchange  Energy =    -1.6528674067
 Beta  Exchange  Energy =    -1.6528674067
 DFT   Exchange  Energy =    -7.7929503667
 DFT Correlation Energy =    -0.4174487462
 Nuclear Repu.   Energy =     9.1941912065
 Nuclear Attr.   Energy =  -275.3588642229
 Kinetic         Energy =   106.1373372636
 SCF time:  CPU 6.88 s  wall 7.54 s
 Final Alpha MO Eigenvalues
            1           2           3           4           5           6
    1 -24.1840537  -2.1092145  -1.1708282  -0.4611079  -0.4455707  -0.4455707
            7           8           9          10          11
    1  -0.0154983   0.0148926   0.0148926   0.0176200   0.0266758
 Analysis of SCF Wavefunction
 
 --------------------------------------------------------------
                    Orbital Energies (a.u.)
 --------------------------------------------------------------
 
 Alpha MOs
 -- Occupied --
-24.184  -2.109  -1.171  -0.461  -0.446  -0.446
 -- Virtual --
 -0.015   0.015   0.015   0.018   0.027   0.057   0.057   0.081
  0.129   0.158   0.158   0.203   0.278   0.278   0.331   0.331
  0.342   0.399   0.427   0.427   0.533   0.533   0.555   0.602
  0.602   0.603   0.603   0.690   0.761   0.761   0.839   1.261
  1.262   1.273   1.273   1.424   1.638   1.638   1.667   2.272
  2.378   2.378   2.445   2.619   2.619   4.230   6.460   6.460
  6.489   6.943   6.943   6.946   6.951   6.951   6.954   6.994
  7.086   7.086   7.425   9.386   9.386   9.522   9.522   9.597
 20.156  20.199  21.372  21.390  21.390  50.290  50.352  50.371
 50.408  50.408  55.969  55.969  56.017  67.179
 --------------------------------------------------------------
 
          Ground-State Mulliken Net Atomic Charges

     Atom                 Charge (a.u.)
  ----------------------------------------
      1 Li                    0.615877
      2 F                    -0.615877
  ----------------------------------------
  Sum of atomic charges =     0.000000

 -----------------------------------------------------------------
                    Cartesian Multipole Moments
 -----------------------------------------------------------------
    Charge (ESU x 10^10)
                 0.0000
    Dipole Moment (Debye)
         X       0.0000      Y       0.0000      Z      -6.2861
       Tot       6.2861
    Quadrupole Moments (Debye-Ang)
        XX      -7.4194     XY       0.0000     YY      -7.4194
        XZ       0.0000     YZ       0.0000     ZZ     -15.8485
    Octapole Moments (Debye-Ang^2)
       XXX       0.0000    XXY       0.0000    XYY       0.0000
       YYY       0.0000    XXZ     -10.2500    XYZ       0.0000
       YYZ     -10.2500    XZZ       0.0000    YZZ       0.0000
       ZZZ     -42.3875
    Hexadecapole Moments (Debye-Ang^3)
      XXXX      -7.2085   XXXY       0.0000   XXYY      -2.4028
      XYYY       0.0000   YYYY      -7.2085   XXXZ       0.0000
      XXYZ       0.0000   XYYZ       0.0000   YYYZ       0.0000
      XXZZ     -17.5541   XYZZ       0.0000   YYZZ     -17.5541
      XZZZ       0.0000   YZZZ       0.0000   ZZZZ    -115.2391
 -----------------------------------------------------------------
 Calculating analytic gradient of the SCF energy
 Gradient of AOints
            1           2
    1  -0.0000000   0.0000000
    2   0.0000001  -0.0000001
    3   3.1136055  -3.1136055
 Gradient of XC Energy
            1           2
    1   0.0000000  -0.0000000
    2  -0.0000000   0.0000000
    3  -0.0787256   0.0787256
 Gradient of SCF Energy
            1           2
    1  -0.0000000   0.0000000
    2  -0.0000000   0.0000000
    3   0.0003247  -0.0003247
 Max gradient component =       3.247E-04
 RMS gradient           =       1.875E-04
 Gradient time:  CPU 4.03 s  wall 4.11 s
 Writing REM_CC_EA            2
 ----------------------------------------------------
       Standard Nuclear Orientation (Angstroms)
    I     Atom         X            Y            Z
 ----------------------------------------------------
    1      Li      0.000000     0.000000    -0.002649
    2      F       0.000000     0.000000     1.553352
 ----------------------------------------------------
 Nuclear Repulsion Energy =     9.1823734896 hartrees
 There are        6 alpha and        6 beta electrons

                       Distance Matrix (Angstroms)
             Li(  1)
   F (  2)  1.556001
 
 Requested basis set is G3large
 There are 20 shells and 84 basis functions
 A cutoff of  1.0D-11 yielded    208 shell pairs
 There are   3686 function pairs (  4836 Cartesian)
Evaluating contribution to one-electron hamiltonian from nuclear
 Smallest overlap matrix eigenvalue = 2.11E-03
 Multipole matrices computed through 2nd order
 Guess MOs from SCF MO coefficient file
Reading MOs from coefficient file
Reading MOs from coefficient file
 A restricted hybrid HF-DFT SCF calculation will be
 performed using Pulay DIIS extrapolation
 Exchange:     1.0000 Hartree-Fock + 1.0000 BNL
 Correlation:  1.0000 LYP
 Using SG-1 standard quadrature grid
 SCF converges when DIIS error is below 1.0E-08
 ---------------------------------------
  Cycle       Energy         DIIS Error
 ---------------------------------------
    1    -106.5979856777      4.19E-05
    2    -106.5985926384      3.96E-06
    3    -106.5985926589      2.29E-06
    4    -106.5985926620      1.13E-06
    5    -106.5985926632      2.93E-07
    6    -106.5985926634      6.40E-08
    7    -106.5985926635      7.86E-09 Convergence criterion met
 ---------------------------------------
 One-Electron    Energy =  -169.1994121881
 Total Coulomb   Energy =    64.9341845250
 Alpha Exchange  Energy =    -1.6528318713
 Beta  Exchange  Energy =    -1.6528318713
 DFT   Exchange  Energy =    -7.7926607222
 DFT Correlation Energy =    -0.4174140251
 Nuclear Repu.   Energy =     9.1823734896
 Nuclear Attr.   Energy =  -275.3349855732
 Kinetic         Energy =   106.1355733851
 SCF time:  CPU 6.89 s  wall 7.63 s
 Final Alpha MO Eigenvalues
            1           2           3           4           5           6
    1 -24.1839477  -2.1094758  -1.1706256  -0.4609386  -0.4453474  -0.4453474
            7           8           9          10          11
    1  -0.0155553   0.0148869   0.0148869   0.0175944   0.0266850
 Analysis of SCF Wavefunction
 
 --------------------------------------------------------------
                    Orbital Energies (a.u.)
 --------------------------------------------------------------
 
 Alpha MOs
 -- Occupied --
-24.184  -2.109  -1.171  -0.461  -0.445  -0.445
 -- Virtual --
 -0.016   0.015   0.015   0.018   0.027   0.057   0.057   0.081
  0.129   0.158   0.158   0.203   0.278   0.278   0.331   0.331
  0.342   0.399   0.427   0.427   0.533   0.533   0.555   0.602
  0.602   0.603   0.603   0.691   0.761   0.761   0.839   1.261
  1.261   1.272   1.272   1.425   1.638   1.638   1.665   2.272
  2.377   2.378   2.447   2.618   2.618   4.226   6.460   6.460
  6.489   6.943   6.943   6.946   6.952   6.952   6.955   6.993
  7.086   7.086   7.425   9.386   9.386   9.522   9.522   9.598
 20.156  20.199  21.372  21.389  21.389  50.290  50.353  50.371
 50.408  50.408  55.969  55.969  56.017  67.179
 --------------------------------------------------------------
 
          Ground-State Mulliken Net Atomic Charges

     Atom                 Charge (a.u.)
  ----------------------------------------
      1 Li                    0.616316
      2 F                    -0.616316
  ----------------------------------------
  Sum of atomic charges =     0.000000

 -----------------------------------------------------------------
                    Cartesian Multipole Moments
 -----------------------------------------------------------------
    Charge (ESU x 10^10)
                 0.0000
    Dipole Moment (Debye)
         X       0.0000      Y       0.0000      Z      -6.2951
       Tot       6.2951
    Quadrupole Moments (Debye-Ang)
        XX      -7.4208     XY       0.0000     YY      -7.4208
        XZ       0.0000     YZ       0.0000     ZZ     -15.8483
    Octapole Moments (Debye-Ang^2)
       XXX       0.0000    XXY       0.0000    XYY       0.0000
       YYY       0.0000    XXZ     -10.2503    XYZ       0.0000
       YYZ     -10.2503    XZZ       0.0000    YZZ       0.0000
       ZZZ     -42.3859
    Hexadecapole Moments (Debye-Ang^3)
      XXXX      -7.2129   XXXY       0.0000   XXYY      -2.4043
      XYYY       0.0000   YYYY      -7.2129   XXXZ       0.0000
      XXYZ       0.0000   XYYZ       0.0000   YYYZ       0.0000
      XXZZ     -17.5566   XYZZ       0.0000   YYZZ     -17.5566
      XZZZ       0.0000   YZZZ       0.0000   ZZZZ    -115.2444
 -----------------------------------------------------------------
 Calculating analytic gradient of the SCF energy
 Gradient of AOints
            1           2
    1  -0.0000000   0.0000000
    2  -0.0000000   0.0000000
    3   3.1115855  -3.1115855
 Gradient of XC Energy
            1           2
    1   0.0000000  -0.0000000
    2   0.0000000  -0.0000000
    3  -0.0786185   0.0786185
 Gradient of SCF Energy
            1           2
    1   0.0000000  -0.0000000
    2   0.0000000  -0.0000000
    3  -0.0003096   0.0003096
 Max gradient component =       3.096E-04
 RMS gradient           =       1.788E-04
 Gradient time:  CPU 4.01 s  wall 4.13 s
 Writing REM_CC_EA            2
 ----------------------------------------------------
       Standard Nuclear Orientation (Angstroms)
    I     Atom         X            Y            Z
 ----------------------------------------------------
    1      Li      0.000000     0.000000    -0.001649
    2      F       0.001000     0.000000     1.553352
 ----------------------------------------------------
 Nuclear Repulsion Energy =     9.1882766482 hartrees
 There are        6 alpha and        6 beta electrons

                       Distance Matrix (Angstroms)
             Li(  1)
   F (  2)  1.555002
 
 Requested basis set is G3large
 There are 20 shells and 84 basis functions
 A cutoff of  1.0D-11 yielded    208 shell pairs
 There are   3686 function pairs (  4836 Cartesian)
Evaluating contribution to one-electron hamiltonian from nuclear
 Smallest overlap matrix eigenvalue = 2.11E-03
 Multipole matrices computed through 2nd order
 Guess MOs from SCF MO coefficient file
Reading MOs from coefficient file
Reading MOs from coefficient file
 A restricted hybrid HF-DFT SCF calculation will be
 performed using Pulay DIIS extrapolation
 Exchange:     1.0000 Hartree-Fock + 1.0000 BNL
 Correlation:  1.0000 LYP
 Using SG-1 standard quadrature grid
 SCF converges when DIIS error is below 1.0E-08
 ---------------------------------------
  Cycle       Energy         DIIS Error
 ---------------------------------------
    1    -106.5988957368      2.28E-05
    2    -106.5985929406      2.57E-06
    3    -106.5985929504      1.28E-06
    4    -106.5985929519      7.25E-07
    5    -106.5985929522      2.17E-07
    6    -106.5985929523      3.65E-08
    7    -106.5985929523      5.02E-09 Convergence criterion met
 ---------------------------------------
 One-Electron    Energy =  -169.2104598011
 Total Coulomb   Energy =    64.9395261974
 Alpha Exchange  Energy =    -1.6528496352
 Beta  Exchange  Energy =    -1.6528496352
 DFT   Exchange  Energy =    -7.7928053570
 DFT Correlation Energy =    -0.4174313695
 Nuclear Repu.   Energy =     9.1882766482
 Nuclear Attr.   Energy =  -275.3469137371
 Kinetic         Energy =   106.1364539360
 SCF time:  CPU 6.90 s  wall 7.72 s
 Final Alpha MO Eigenvalues
            1           2           3           4           5           6
    1 -24.1840007  -2.1093451  -1.1707269  -0.4610232  -0.4454589  -0.4454589
            7           8           9          10          11
    1  -0.0155268   0.0148898   0.0148898   0.0176072   0.0266804
 Analysis of SCF Wavefunction
 
 --------------------------------------------------------------
                    Orbital Energies (a.u.)
 --------------------------------------------------------------
 
 Alpha MOs
 -- Occupied --
-24.184  -2.109  -1.171  -0.461  -0.445  -0.445
 -- Virtual --
 -0.016   0.015   0.015   0.018   0.027   0.057   0.057   0.081
  0.129   0.158   0.158   0.203   0.278   0.278   0.331   0.331
  0.342   0.399   0.427   0.427   0.533   0.533   0.555   0.602
  0.602   0.603   0.603   0.690   0.761   0.761   0.839   1.261
  1.262   1.272   1.272   1.424   1.638   1.638   1.666   2.272
  2.377   2.378   2.446   2.619   2.619   4.228   6.460   6.460
  6.489   6.943   6.943   6.946   6.951   6.951   6.954   6.993
  7.086   7.086   7.425   9.386   9.386   9.522   9.522   9.597
 20.156  20.199  21.372  21.390  21.390  50.290  50.352  50.371
 50.408  50.408  55.969  55.969  56.017  67.179
 --------------------------------------------------------------
 
          Ground-State Mulliken Net Atomic Charges

     Atom                 Charge (a.u.)
  ----------------------------------------
      1 Li                    0.616097
      2 F                    -0.616097
  ----------------------------------------
  Sum of atomic charges =     0.000000

 -----------------------------------------------------------------
                    Cartesian Multipole Moments
 -----------------------------------------------------------------
    Charge (ESU x 10^10)
                 0.0000
    Dipole Moment (Debye)
         X      -0.0040      Y       0.0000      Z      -6.2906
       Tot       6.2906
    Quadrupole Moments (Debye-Ang)
        XX      -7.4201     XY       0.0000     YY      -7.4201
        XZ      -0.0054     YZ       0.0000     ZZ     -15.8484
    Octapole Moments (Debye-Ang^2)
       XXX      -0.0198    XXY       0.0000    XYY      -0.0066
       YYY       0.0000    XXZ     -10.2501    XYZ       0.0000
       YYZ     -10.2501    XZZ      -0.0141    YZZ       0.0000
       ZZZ     -42.3867
    Hexadecapole Moments (Debye-Ang^3)
      XXXX      -7.2107   XXXY       0.0000   XXYY      -2.4035
      XYYY       0.0000   YYYY      -7.2107   XXXZ      -0.0293
      XXYZ       0.0000   XYYZ      -0.0098   YYYZ       0.0000
      XXZZ     -17.5554   XYZZ       0.0000   YYZZ     -17.5554
      XZZZ      -0.0403   YZZZ       0.0000   ZZZZ    -115.2417
 -----------------------------------------------------------------
 Calculating analytic gradient of the SCF energy
 Gradient of AOints
            1           2
    1   0.0020105  -0.0020105
    2   0.0000000  -0.0000000
    3   3.1126003  -3.1126003
 Gradient of XC Energy
            1           2
    1  -0.0000485   0.0000485
    2   0.0000000  -0.0000000
    3  -0.0786723   0.0786723
 Gradient of SCF Energy
            1           2
    1   0.0000024  -0.0000024
    2  -0.0000000   0.0000000
    3   0.0000065  -0.0000065
 Max gradient component =       6.547E-06
 RMS gradient           =       4.034E-06
 Gradient time:  CPU 4.03 s  wall 4.14 s
 Writing REM_CC_EA            2
 ----------------------------------------------------
       Standard Nuclear Orientation (Angstroms)
    I     Atom         X            Y            Z
 ----------------------------------------------------
    1      Li      0.000000     0.000000    -0.001649
    2      F      -0.001000     0.000000     1.553352
 ----------------------------------------------------
 Nuclear Repulsion Energy =     9.1882766482 hartrees
 There are        6 alpha and        6 beta electrons

                       Distance Matrix (Angstroms)
             Li(  1)
   F (  2)  1.555002
 
 Requested basis set is G3large
 There are 20 shells and 84 basis functions
 A cutoff of  1.0D-11 yielded    208 shell pairs
 There are   3686 function pairs (  4836 Cartesian)
Evaluating contribution to one-electron hamiltonian from nuclear
 Smallest overlap matrix eigenvalue = 2.11E-03
 Multipole matrices computed through 2nd order
 Guess MOs from SCF MO coefficient file
Reading MOs from coefficient file
Reading MOs from coefficient file
 A restricted hybrid HF-DFT SCF calculation will be
 performed using Pulay DIIS extrapolation
 Exchange:     1.0000 Hartree-Fock + 1.0000 BNL
 Correlation:  1.0000 LYP
 Using SG-1 standard quadrature grid
 SCF converges when DIIS error is below 1.0E-08
 ---------------------------------------
  Cycle       Energy         DIIS Error
 ---------------------------------------
    1    -106.5985920752      1.85E-05
    2    -106.5985929303      3.31E-06
    3    -106.5985929498      1.17E-06
    4    -106.5985929521      3.15E-07
    5    -106.5985929523      7.10E-08
    6    -106.5985929524      5.61E-08
    7    -106.5985929522      3.79E-09 Convergence criterion met
 ---------------------------------------
 One-Electron    Energy =  -169.2104590630
 Total Coulomb   Energy =    64.9395253565
 Alpha Exchange  Energy =    -1.6528496264
 Beta  Exchange  Energy =    -1.6528496264
 DFT   Exchange  Energy =    -7.7928052741
 DFT Correlation Energy =    -0.4174313669
 Nuclear Repu.   Energy =     9.1882766482
 Nuclear Attr.   Energy =  -275.3469122432
 Kinetic         Energy =   106.1364531802
 SCF time:  CPU 6.85 s  wall 7.34 s
 Final Alpha MO Eigenvalues
            1           2           3           4           5           6
    1 -24.1840007  -2.1093451  -1.1707269  -0.4610233  -0.4454589  -0.4454589
            7           8           9          10          11
    1  -0.0155268   0.0148898   0.0148898   0.0176072   0.0266804
 Analysis of SCF Wavefunction
 
 --------------------------------------------------------------
                    Orbital Energies (a.u.)
 --------------------------------------------------------------
 
 Alpha MOs
 -- Occupied --
-24.184  -2.109  -1.171  -0.461  -0.445  -0.445
 -- Virtual --
 -0.016   0.015   0.015   0.018   0.027   0.057   0.057   0.081
  0.129   0.158   0.158   0.203   0.278   0.278   0.331   0.331
  0.342   0.399   0.427   0.427   0.533   0.533   0.555   0.602
  0.602   0.603   0.603   0.690   0.761   0.761   0.839   1.261
  1.262   1.272   1.272   1.424   1.638   1.638   1.666   2.272
  2.377   2.378   2.446   2.619   2.619   4.228   6.460   6.460
  6.489   6.943   6.943   6.946   6.951   6.951   6.954   6.993
  7.086   7.086   7.425   9.386   9.386   9.522   9.522   9.597
 20.156  20.199  21.372  21.390  21.390  50.290  50.352  50.371
 50.408  50.408  55.969  55.969  56.017  67.179
 --------------------------------------------------------------
 
          Ground-State Mulliken Net Atomic Charges

     Atom                 Charge (a.u.)
  ----------------------------------------
      1 Li                    0.616097
      2 F                    -0.616097
  ----------------------------------------
  Sum of atomic charges =     0.000000

 -----------------------------------------------------------------
                    Cartesian Multipole Moments
 -----------------------------------------------------------------
    Charge (ESU x 10^10)
                 0.0000
    Dipole Moment (Debye)
         X       0.0040      Y       0.0000      Z      -6.2906
       Tot       6.2906
    Quadrupole Moments (Debye-Ang)
        XX      -7.4201     XY       0.0000     YY      -7.4201
        XZ       0.0054     YZ       0.0000     ZZ     -15.8484
    Octapole Moments (Debye-Ang^2)
       XXX       0.0198    XXY       0.0000    XYY       0.0066
       YYY       0.0000    XXZ     -10.2501    XYZ       0.0000
       YYZ     -10.2501    XZZ       0.0141    YZZ       0.0000
       ZZZ     -42.3867
    Hexadecapole Moments (Debye-Ang^3)
      XXXX      -7.2107   XXXY       0.0000   XXYY      -2.4035
      XYYY       0.0000   YYYY      -7.2107   XXXZ       0.0293
      XXYZ       0.0000   XYYZ       0.0098   YYYZ       0.0000
      XXZZ     -17.5554   XYZZ       0.0000   YYZZ     -17.5554
      XZZZ       0.0403   YZZZ       0.0000   ZZZZ    -115.2418
 -----------------------------------------------------------------
 Calculating analytic gradient of the SCF energy
 Gradient of AOints
            1           2
    1  -0.0020106   0.0020106
    2   0.0000000  -0.0000000
    3   3.1126004  -3.1126004
 Gradient of XC Energy
            1           2
    1   0.0000485  -0.0000485
    2  -0.0000000   0.0000000
    3  -0.0786723   0.0786723
 Gradient of SCF Energy
            1           2
    1  -0.0000024   0.0000024
    2   0.0000000  -0.0000000
    3   0.0000065  -0.0000065
 Max gradient component =       6.543E-06
 RMS gradient           =       4.032E-06
 Gradient time:  CPU 3.83 s  wall 3.87 s
 Writing REM_CC_EA            2
 ----------------------------------------------------
       Standard Nuclear Orientation (Angstroms)
    I     Atom         X            Y            Z
 ----------------------------------------------------
    1      Li      0.000000     0.000000    -0.001649
    2      F       0.000000     0.001000     1.553352
 ----------------------------------------------------
[...]
 Beta  Exchange  Energy =    -1.6528496264
 DFT   Exchange  Energy =    -7.7928052739
 DFT Correlation Energy =    -0.4174313669
 Nuclear Repu.   Energy =     9.1882766482
 Nuclear Attr.   Energy =  -275.3469122428
 Kinetic         Energy =   106.1364531807
 SCF time:  CPU 6.86 s  wall 7.54 s
 Final Alpha MO Eigenvalues
            1           2           3           4           5           6
    1 -24.1840007  -2.1093451  -1.1707269  -0.4610233  -0.4454589  -0.4454589
            7           8           9          10          11
    1  -0.0155268   0.0148898   0.0148898   0.0176072   0.0266804
 Analysis of SCF Wavefunction
 
 --------------------------------------------------------------
                    Orbital Energies (a.u.)
 --------------------------------------------------------------
 
 Alpha MOs
 -- Occupied --
-24.184  -2.109  -1.171  -0.461  -0.445  -0.445
 -- Virtual --
 -0.016   0.015   0.015   0.018   0.027   0.057   0.057   0.081
  0.129   0.158   0.158   0.203   0.278   0.278   0.331   0.331
  0.342   0.399   0.427   0.427   0.533   0.533   0.555   0.602
  0.602   0.603   0.603   0.690   0.761   0.761   0.839   1.261
  1.262   1.272   1.272   1.424   1.638   1.638   1.666   2.272
  2.377   2.378   2.446   2.619   2.619   4.228   6.460   6.460
  6.489   6.943   6.943   6.946   6.951   6.951   6.954   6.993
  7.086   7.086   7.425   9.386   9.386   9.522   9.522   9.597
 20.156  20.199  21.372  21.390  21.390  50.290  50.352  50.371
 50.408  50.408  55.969  55.969  56.017  67.179
 --------------------------------------------------------------
 
          Ground-State Mulliken Net Atomic Charges

     Atom                 Charge (a.u.)
  ----------------------------------------
      1 Li                    0.616097
      2 F                    -0.616097
  ----------------------------------------
  Sum of atomic charges =     0.000000

 -----------------------------------------------------------------
                    Cartesian Multipole Moments
 -----------------------------------------------------------------
    Charge (ESU x 10^10)
                 0.0000
    Dipole Moment (Debye)
         X       0.0000      Y       0.0040      Z      -6.2906
       Tot       6.2906
    Quadrupole Moments (Debye-Ang)
        XX      -7.4201     XY       0.0000     YY      -7.4201
        XZ       0.0000     YZ       0.0054     ZZ     -15.8484
    Octapole Moments (Debye-Ang^2)
       XXX       0.0000    XXY       0.0066    XYY       0.0000
       YYY       0.0198    XXZ     -10.2501    XYZ       0.0000
       YYZ     -10.2501    XZZ       0.0000    YZZ       0.0141
       ZZZ     -42.3867
    Hexadecapole Moments (Debye-Ang^3)
      XXXX      -7.2107   XXXY       0.0000   XXYY      -2.4035
      XYYY       0.0000   YYYY      -7.2107   XXXZ       0.0000
      XXYZ       0.0098   XYYZ       0.0000   YYYZ       0.0293
      XXZZ     -17.5554   XYZZ       0.0000   YYZZ     -17.5554
      XZZZ       0.0000   YZZZ       0.0403   ZZZZ    -115.2418
 -----------------------------------------------------------------
 Calculating analytic gradient of the SCF energy
 Gradient of AOints
            1           2
    1   0.0000000  -0.0000000
    2  -0.0020106   0.0020106
    3   3.1126004  -3.1126004
 Gradient of XC Energy
            1           2
    1  -0.0000000   0.0000000
    2   0.0000485  -0.0000485
    3  -0.0786723   0.0786723
 Gradient of SCF Energy
            1           2
    1   0.0000000  -0.0000000
    2  -0.0000024   0.0000024
    3   0.0000065  -0.0000065
 Max gradient component =       6.543E-06
 RMS gradient           =       4.032E-06
 Gradient time:  CPU 3.83 s  wall 3.87 s
 Writing REM_CC_EA            2
 ----------------------------------------------------
       Standard Nuclear Orientation (Angstroms)
    I     Atom         X            Y            Z
 ----------------------------------------------------
    1      Li      0.000000     0.000000    -0.001649
    2      F       0.000000     0.000000     1.554352
 ----------------------------------------------------
 Nuclear Repulsion Energy =     9.1823734896 hartrees
 There are        6 alpha and        6 beta electrons

                       Distance Matrix (Angstroms)
             Li(  1)
   F (  2)  1.556001
 
 Requested basis set is G3large
 There are 20 shells and 84 basis functions
 A cutoff of  1.0D-11 yielded    208 shell pairs
 There are   3686 function pairs (  4836 Cartesian)
Evaluating contribution to one-electron hamiltonian from nuclear
 Smallest overlap matrix eigenvalue = 2.11E-03
 Multipole matrices computed through 2nd order
 Guess MOs from SCF MO coefficient file
Reading MOs from coefficient file
Reading MOs from coefficient file
 A restricted hybrid HF-DFT SCF calculation will be
 performed using Pulay DIIS extrapolation
 Exchange:     1.0000 Hartree-Fock + 1.0000 BNL
 Correlation:  1.0000 LYP
 Using SG-1 standard quadrature grid
 SCF converges when DIIS error is below 1.0E-08
 ---------------------------------------
  Cycle       Energy         DIIS Error
 ---------------------------------------
    1    -106.5982893199      2.29E-05
    2    -106.5985926517      2.58E-06
    3    -106.5985926616      1.30E-06
    4    -106.5985926627      7.30E-07
    5    -106.5985926633      2.15E-07
    6    -106.5985926634      3.65E-08
    7    -106.5985926634      5.05E-09 Convergence criterion met
 ---------------------------------------
 One-Electron    Energy =  -169.1994123757
 Total Coulomb   Energy =    64.9341847340
 Alpha Exchange  Energy =    -1.6528318750
 Beta  Exchange  Energy =    -1.6528318750
 DFT   Exchange  Energy =    -7.7926607346
 DFT Correlation Energy =    -0.4174140266
 Nuclear Repu.   Energy =     9.1823734896
 Nuclear Attr.   Energy =  -275.3349858300
 Kinetic         Energy =   106.1355734543
 SCF time:  CPU 6.89 s  wall 7.18 s
 Final Alpha MO Eigenvalues
            1           2           3           4           5           6
    1 -24.1839477  -2.1094757  -1.1706256  -0.4609386  -0.4453474  -0.4453474
            7           8           9          10          11
    1  -0.0155553   0.0148869   0.0148869   0.0175944   0.0266850
 Analysis of SCF Wavefunction
 
 --------------------------------------------------------------
                    Orbital Energies (a.u.)
 --------------------------------------------------------------
 
 Alpha MOs
 -- Occupied --
-24.184  -2.109  -1.171  -0.461  -0.445  -0.445
 -- Virtual --
 -0.016   0.015   0.015   0.018   0.027   0.057   0.057   0.081
  0.129   0.158   0.158   0.203   0.278   0.278   0.331   0.331
  0.342   0.399   0.427   0.427   0.533   0.533   0.555   0.602
  0.602   0.603   0.603   0.691   0.761   0.761   0.839   1.261
  1.261   1.272   1.272   1.425   1.638   1.638   1.665   2.272
  2.377   2.378   2.447   2.618   2.618   4.226   6.460   6.460
  6.489   6.943   6.943   6.946   6.952   6.952   6.955   6.993
  7.086   7.086   7.425   9.386   9.386   9.522   9.522   9.598
 20.156  20.199  21.372  21.389  21.389  50.290  50.353  50.371
 50.408  50.408  55.969  55.969  56.017  67.179
 --------------------------------------------------------------
 
          Ground-State Mulliken Net Atomic Charges

     Atom                 Charge (a.u.)
  ----------------------------------------
      1 Li                    0.616316
      2 F                    -0.616316
  ----------------------------------------
  Sum of atomic charges =     0.000000

 -----------------------------------------------------------------
                    Cartesian Multipole Moments
 -----------------------------------------------------------------
    Charge (ESU x 10^10)
                 0.0000
    Dipole Moment (Debye)
         X       0.0000      Y       0.0000      Z      -6.2951
       Tot       6.2951
    Quadrupole Moments (Debye-Ang)
        XX      -7.4208     XY       0.0000     YY      -7.4208
        XZ       0.0000     YZ       0.0000     ZZ     -15.8609
    Octapole Moments (Debye-Ang^2)
       XXX       0.0000    XXY       0.0000    XYY       0.0000
       YYY       0.0000    XXZ     -10.2577    XYZ       0.0000
       YYZ     -10.2577    XZZ       0.0000    YZZ       0.0000
       ZZZ     -42.4335
    Hexadecapole Moments (Debye-Ang^3)
      XXXX      -7.2129   XXXY       0.0000   XXYY      -2.4043
      XYYY       0.0000   YYYY      -7.2129   XXXZ       0.0000
      XXYZ       0.0000   XYYZ       0.0000   YYYZ       0.0000
      XXZZ     -17.5771   XYZZ       0.0000   YYZZ     -17.5771
      XZZZ       0.0000   YZZZ       0.0000   ZZZZ    -115.4140
 -----------------------------------------------------------------
 Calculating analytic gradient of the SCF energy
 Gradient of AOints
            1           2
    1   0.0000000  -0.0000000
    2  -0.0000001   0.0000001
    3   3.1115856  -3.1115856
 Gradient of XC Energy
            1           2
    1  -0.0000000   0.0000000
    2   0.0000000  -0.0000000
    3  -0.0786185   0.0786185
 Gradient of SCF Energy
            1           2
    1   0.0000000  -0.0000000
    2   0.0000000  -0.0000000
    3  -0.0003096   0.0003096
 Max gradient component =       3.096E-04
 RMS gradient           =       1.788E-04
 Gradient time:  CPU 3.82 s  wall 3.86 s
 Writing REM_CC_EA            2
 ----------------------------------------------------
       Standard Nuclear Orientation (Angstroms)
    I     Atom         X            Y            Z
 ----------------------------------------------------
    1      Li      0.000000     0.000000    -0.001649
    2      F       0.000000     0.000000     1.552352
 ----------------------------------------------------
 Nuclear Repulsion Energy =     9.1941912065 hartrees
 There are        6 alpha and        6 beta electrons

                       Distance Matrix (Angstroms)
             Li(  1)
   F (  2)  1.554001
 
 Requested basis set is G3large
 There are 20 shells and 84 basis functions
 A cutoff of  1.0D-11 yielded    208 shell pairs
 There are   3686 function pairs (  4836 Cartesian)
Evaluating contribution to one-electron hamiltonian from nuclear
 Smallest overlap matrix eigenvalue = 2.12E-03
 Multipole matrices computed through 2nd order
 Guess MOs from SCF MO coefficient file
Reading MOs from coefficient file
Reading MOs from coefficient file
 A restricted hybrid HF-DFT SCF calculation will be
 performed using Pulay DIIS extrapolation
 Exchange:     1.0000 Hartree-Fock + 1.0000 BNL
 Correlation:  1.0000 LYP
 Using SG-1 standard quadrature grid
 SCF converges when DIIS error is below 1.0E-08
 ---------------------------------------
  Cycle       Energy         DIIS Error
 ---------------------------------------
    1    -106.5991991469      4.18E-05
    2    -106.5985926122      3.94E-06
    3    -106.5985926328      2.26E-06
    4    -106.5985926359      1.13E-06
    5    -106.5985926370      2.94E-07
    6    -106.5985926372      6.40E-08
    7    -106.5985926371      7.85E-09 Convergence criterion met
 ---------------------------------------
 One-Electron    Energy =  -169.2215271533
 Total Coulomb   Energy =    64.9448772582
 Alpha Exchange  Energy =    -1.6528674105
 Beta  Exchange  Energy =    -1.6528674105
 DFT   Exchange  Energy =    -7.7929503799
 DFT Correlation Energy =    -0.4174487477
 Nuclear Repu.   Energy =     9.1941912065
 Nuclear Attr.   Energy =  -275.3588644928
 Kinetic         Energy =   106.1373373395
 SCF time:  CPU 6.99 s  wall 7.46 s
 Final Alpha MO Eigenvalues
            1           2           3           4           5           6
    1 -24.1840537  -2.1092145  -1.1708282  -0.4611079  -0.4455707  -0.4455707
            7           8           9          10          11
    1  -0.0154983   0.0148926   0.0148926   0.0176200   0.0266758
 Analysis of SCF Wavefunction
 
 --------------------------------------------------------------
                    Orbital Energies (a.u.)
 --------------------------------------------------------------
 
 Alpha MOs
 -- Occupied --
-24.184  -2.109  -1.171  -0.461  -0.446  -0.446
 -- Virtual --
 -0.015   0.015   0.015   0.018   0.027   0.057   0.057   0.081
  0.129   0.158   0.158   0.203   0.278   0.278   0.331   0.331
  0.342   0.399   0.427   0.427   0.533   0.533   0.555   0.602
  0.602   0.603   0.603   0.690   0.761   0.761   0.839   1.261
  1.262   1.273   1.273   1.424   1.638   1.638   1.667   2.272
  2.378   2.378   2.445   2.619   2.619   4.230   6.460   6.460
  6.489   6.943   6.943   6.946   6.951   6.951   6.954   6.994
  7.086   7.086   7.425   9.386   9.386   9.522   9.522   9.597
 20.156  20.199  21.372  21.390  21.390  50.290  50.352  50.371
 50.408  50.408  55.969  55.969  56.017  67.179
 --------------------------------------------------------------
 
          Ground-State Mulliken Net Atomic Charges

     Atom                 Charge (a.u.)
  ----------------------------------------
      1 Li                    0.615877
      2 F                    -0.615877
  ----------------------------------------
  Sum of atomic charges =     0.000000

 -----------------------------------------------------------------
                    Cartesian Multipole Moments
 -----------------------------------------------------------------
    Charge (ESU x 10^10)
                 0.0000
    Dipole Moment (Debye)
         X       0.0000      Y       0.0000      Z      -6.2861
       Tot       6.2861
    Quadrupole Moments (Debye-Ang)
        XX      -7.4194     XY       0.0000     YY      -7.4194
        XZ       0.0000     YZ       0.0000     ZZ     -15.8359
    Octapole Moments (Debye-Ang^2)
       XXX       0.0000    XXY       0.0000    XYY       0.0000
       YYY       0.0000    XXZ     -10.2426    XYZ       0.0000
       YYZ     -10.2426    XZZ       0.0000    YZZ       0.0000
       ZZZ     -42.3399
    Hexadecapole Moments (Debye-Ang^3)
      XXXX      -7.2085   XXXY       0.0000   XXYY      -2.4028
      XYYY       0.0000   YYYY      -7.2085   XXXZ       0.0000
      XXYZ       0.0000   XYYZ       0.0000   YYYZ       0.0000
      XXZZ     -17.5336   XYZZ       0.0000   YYZZ     -17.5336
      XZZZ       0.0000   YZZZ       0.0000   ZZZZ    -115.0697
 -----------------------------------------------------------------
 Calculating analytic gradient of the SCF energy
 Gradient of AOints
            1           2
    1   0.0000000  -0.0000000
    2   0.0000000  -0.0000000
    3   3.1136057  -3.1136057
 Gradient of XC Energy
            1           2
    1  -0.0000000   0.0000000
    2  -0.0000000   0.0000000
    3  -0.0787256   0.0787256
 Gradient of SCF Energy
            1           2
    1  -0.0000000   0.0000000
    2   0.0000000  -0.0000000
    3   0.0003247  -0.0003247
 Max gradient component =       3.247E-04
 RMS gradient           =       1.875E-04
 Gradient time:  CPU 4.15 s  wall 4.19 s
Dipole drv :
gprntSymmMtrx error report: 
 Final Hessian.
            1           2           3           4           5           6
    1  -0.0012901  -0.0000001   0.0000000   0.0012906   0.0000001   0.0000000
    2  -0.0000001  -0.0012901  -0.0000006   0.0000001   0.0012901   0.0000006
    3   0.0000000  -0.0000006   0.1678267   0.0000005   0.0000006  -0.1678267
    4   0.0012906   0.0000001   0.0000005  -0.0012910  -0.0000001   0.0000000
    5   0.0000001   0.0012901   0.0000006  -0.0000001  -0.0012901  -0.0000006
    6   0.0000000   0.0000006  -0.1678267   0.0000000  -0.0000006   0.1678267
 Writing REM_CC_EA            2
 ----------------------------------------------------
       Standard Nuclear Orientation (Angstroms)
    I     Atom         X            Y            Z
 ----------------------------------------------------
    1      Li      0.000000     0.000000    -0.001649
    2      F       0.000000     0.000000     1.553352
 ----------------------------------------------------
 Nuclear Repulsion Energy =     9.1882785481 hartrees
 There are        6 alpha and        6 beta electrons
 old dipole drv.
            1           2           3           4           5           6
    1   0.8415490   0.0000022  -0.0000010  -0.8415514  -0.0000028   0.0000011
    2  -0.0000000   0.8415493   0.0000032  -0.0000009  -0.8415492  -0.0000032
    3   0.0000005   0.0000006   0.9311912   0.0000114  -0.0000011  -0.9311913
 New transposed dipole drv.
            1           2           3
    1   0.8415490  -0.0000000   0.0000005
    2   0.0000022   0.8415493   0.0000006
    3  -0.0000010   0.0000032   0.9311912
    4  -0.8415514  -0.0000009   0.0000114
    5  -0.0000028  -0.8415492  -0.0000011
    6   0.0000011  -0.0000032  -0.9311913
FINAL TENSOR RESULT:
Order 2, Length 6
Order 1, Length 6
  -0.0012901  -0.0000001   0.0000000   0.0012906   0.0000001   0.0000000
Order 1, Length 6
  -0.0000001  -0.0012901  -0.0000006   0.0000001   0.0012901   0.0000006
Order 1, Length 6
   0.0000000  -0.0000006   0.1678267   0.0000005   0.0000006  -0.1678267
Order 1, Length 6
   0.0012906   0.0000001   0.0000005  -0.0012910  -0.0000001   0.0000000
Order 1, Length 6
   0.0000001   0.0012901   0.0000006  -0.0000001  -0.0012901  -0.0000006
Order 1, Length 6
   0.0000000   0.0000006  -0.1678267   0.0000000  -0.0000006   0.1678267


 # Finishing finite difference calculation for IDERIV #
 ######################################################
 ######################################################
 Requested basis set is G3large
 There are 20 shells and 84 basis functions
 **********************************************************************
 **                                                                  **
 **                       VIBRATIONAL ANALYSIS                       **
 **                       --------------------                       **
 **                                                                  **
 **        VIBRATIONAL FREQUENCIES (CM**-1) AND NORMAL MODES         **
 **     FORCE CONSTANTS (mDYN/ANGSTROM) AND REDUCED MASSES (AMU)     **
 **                  INFRARED INTENSITIES (KM/MOL)                   **
 **                                                                  **
 **********************************************************************
 

 Mode:                 1
 Frequency:       930.34
 Force Cnst:      4.3112
 Red. Mass:       8.4540
 IR Active:          YES
 IR Intens:      165.022
 Raman Active:       YES
               X      Y      Z
 Li         0.000  0.000  0.938
 F          0.000  0.000 -0.346
 TransDip   0.000  0.000  0.411

 STANDARD THERMODYNAMIC QUANTITIES AT   298.18 K  AND     1.00 ATM

   This Molecule has  0 Imaginary Frequencies
   Zero point vibrational energy:        1.330 kcal/mol

   Atom    1 Element Li Has Mass    7.01600
   Atom    2 Element F  Has Mass   18.99840
   Molecular Mass:    26.014400 amu
   Principal axes and moments of inertia in atomic units:
                             1           2           3
    Eigenvalues --        0.00000    44.24376    44.24376
          X               0.00000     0.00000     1.00000
          Y               0.00000     1.00000     0.00000
          Z               1.00000     0.00000     0.00000
   Rotational Symmetry Number is   1
   The Molecule is a Symmetric Top
   Translational Enthalpy:        0.889 kcal/mol
   Rotational Enthalpy:           0.889 kcal/mol
   Vibrational Enthalpy:          1.360 kcal/mol
   gas constant (RT):             0.593 kcal/mol
   Translational Entropy:        35.705  cal/mol.K
   Rotational Entropy:          -42.776  cal/mol.K
   Vibrational Entropy:           0.124  cal/mol.K

   Total Enthalpy:                3.730 kcal/mol
   Total Entropy:                -6.948  cal/mol.K
 Total job time:  146.16s(wall), 136.69s(cpu) 
 Thu Apr 21 17:48:31 2011

        *************************************************************
        *                                                           *
        *  Thank you very much for using Q-Chem.  Have a nice day.  *
        *                                                           *
        *************************************************************


0 sent ACK to 0 
now end server 0 ... 
