Process 0 of 1 is on cl082.stfx.acenet.ca - thread support 1
initial socket setup ...start
initial socket setup ...done 
now start server 0 ... 

cmd = /usr/bin/ssh clhead /usr/local/qchem/bin/get_hostid 386545400 > /scratch/tmp/6064072.1.short.q/qchem21614/lic.dat
                  Welcome to Q-Chem
     A Quantum Leap Into The Future Of Chemistry

 Y. Shao, L. Fusti-Molnar, Y. Jung, J. Kussmann, C. Ochsenfeld,
 S. T. Brown, A. T. B. Gilbert, L. V. Slipchenko,S. V. Levchenko,
 D. P. O'Neill, R. A. DiStasio Jr., R. C. Lochan, T. Wang,
 G. J. O. Beran, N. A. Besley, J. M. Herbert, C. Y. Lin,
 T. Van Voorhis, S. H. Chien, A. Sodt, R. P. Steele, 
 V. A. Rassolov, P. E. Maslen, P. P. Korambath, R. D. Adamson,
 B. Austin, J. Baker, E. F. C. Byrd, H. Dachsel, R. J. Doerksen,
 A. Dreuw, B. D. Dunietz, A. D. Dutoi, T. R. Furlani,
 S. R. Gwaltney, A. Heyden, S. Hirata, C.-P. Hsu, G. Kedziora,
 R. Z. Khaliullin, P. Klunzinger, A. M. Lee, M. S. Lee, W. Liang,
 I. Lotan, N. Nair, B. Peters, E. I. Proynov, P. A. Pieniazek, 
 Y. M. Rhee, J. Ritchie, E. Rosta, C. D. Sherrill, 
 A. C. Simmonett, J. E. Subotnik, H. L. Woodcock III,
 W. Zhang, A. T. Bell, A. K. Chakraborty, D. M. Chipman,
 F. J. Keil, A. Warshel, W. J. Hehre, H. F. Schaefer III,
 J. Kong, A. I. Krylov, P. M. W. Gill, M. Head-Gordon,
 Q-Chem, Version 3.1, Q-Chem, Inc., Pittsburgh, PA (2007).

 Additional authors for Version 3.1: 
 Z. Gan, Y. Zhao, N. E. Schultz, D. Truhlar, E. Epifanovsky and M. Oana.

 Additional authors for Version 3.2: 
 R. Baer, B. R. Brooks, D. Casanova, J.-D. Chai, C.-L. Cheng, 
 C. Cramer, D. Crittenden, A. Ghysels, G. Hawkins, E. G. Hohenstein, 
 C. Kelley, W. Kurlancheek, D. Liotard, E. Livshits, P. Manohar, 
 A. Marenich, D. Neuhauser, R. Olson, M. A. Rohrdanz, K. S. Thanthiriwatte, 
 A. J. W. Thom, V. Vanovschi, C. F. Williams, Q. Wu and Z.-Q. You. 


 Intel X86 Linux Version

 Q-chem begins on Sun Jul  7 09:41:04 2013  

 Parallel job on  1  processors
Processing $rem in /usr/local/qchem/config/preferences.

theFileMan(): MAXOPENFILES=974 MAX_SUB_FILE_NUM=16
Maximum size of a physical file is 2.0 GB, maximum size of a tmp-file is 32.0 GB


--------------------------------------------------------------
User input:
--------------------------------------------------------------

$molecule
-1,2
C         -0.00239        0.00000        0.00366
C          0.00239        0.00000        1.52136
O          1.01667        0.00000       -0.61795
H         -1.00159        0.00000       -0.46287
O         -1.01667        0.00000        2.14296
H          1.00159        0.00000        1.98789
$end

$comment
negative
$end

$xc_functional
C PBE   1.00
X wPBE  1.00
$end

$rem
SYMMETRY_DECOMPOSITION	0
exchange 		general
LRC_DFT                 true
BASIS                   g3large
omega			350
mem_static              760
max_scf_cycles          200
scf_final_print         1
sym_ignore              true
$end

--------------------------------------------------------------
 Writing REM_CC_EA            6
 ----------------------------------------------------
       Standard Nuclear Orientation (Angstroms)
    I     Atom         X            Y            Z
 ----------------------------------------------------
    1      C      -0.002390     0.000000     0.003660
    2      C       0.002390     0.000000     1.521360
    3      O       1.016670     0.000000    -0.617950
    4      H      -1.001590     0.000000    -0.462870
    5      O      -1.016670     0.000000     2.142960
    6      H       1.001590     0.000000     1.987890
 ----------------------------------------------------
 Nuclear Repulsion Energy =   102.6576218305 hartrees
 There are       16 alpha and       15 beta electrons
 Requested basis set is G3large
 There are 52 shells and 188 basis functions

Total QAlloc Memory Limit   2000 MB
Mega-Array Size       743 MB
MEM_STATIC part       760 MB

                       Distance Matrix (Angstroms)
             C (  1)   C (  2)   O (  3)   H (  4)   O (  5)
   C (  2)  1.517708
   O (  3)  1.193684  2.367575
   H (  4)  1.102747  2.223768  2.024209
   O (  5)  2.367566  1.193679  3.428862  2.605874
   H (  6)  2.223768  1.102747  2.605884  3.165273  2.024209
 
 A cutoff of  1.0D-08 yielded   1239 shell pairs
 There are  16161 function pairs ( 20529 Cartesian)
Evaluating contribution to one-electron hamiltonian from nuclear
 Smallest overlap matrix eigenvalue = 1.78E-04
 Multipole matrices computed through 2nd order

  Scale SEOQF with 1.000000e-01/1.000000e-01/1.000000e-01

 Standard Electronic Orientation quadrupole field applied
 Nucleus-field energy     =    -0.0000000055 hartrees
 Guess from superposition of atomic densities
 Warning:  Energy on first SCF cycle will be non-variational
 Long-range K will be added via erf
 Coulomb attenuation parameter = 0.35 bohr**(-1)
 An unrestricted Kohn-Sham SCF calculation will be
 performed using Pulay DIIS extrapolation
 Exchange:  wPBE + LR-HF      Correlation:  PBE
 Using SG-1 standard quadrature grid
 SCF converges when DIIS error is below 1.0E-05
 Requested basis set is G3large
 There are 52 shells and 188 basis functions
 A cutoff of  1.0D-08 yielded   1239 shell pairs
 There are  16161 function pairs ( 20529 Cartesian)
 Warning!  Inaccurate integrated density:
   Number of electrons =    31
   Numerical integral  =    29.999861636644
   Relative error      =    -3.2262527850 %
 ---------------------------------------
  Cycle       Energy         DIIS Error
 ---------------------------------------
    1    -228.7305559006      3.72E-02
    2    -227.5414226742      7.62E-03
    3    -227.4658157490      9.79E-03
    4    -227.7517767554      5.03E-04
    5    -227.7534015486      2.43E-04
    6    -227.7539247821      6.40E-05
    7    -227.7540190922      2.23E-05
    8    -227.7540575395      9.25E-06 Convergence criterion met
 ---------------------------------------
 One-Electron    Energy =  -521.5588438825
 Total Coulomb   Energy =   220.0152632055
 Alpha Exchange  Energy =    -2.8765207186
 Beta  Exchange  Energy =    -2.7026948422
 DFT   Exchange  Energy =   -22.2633119715
 DFT Correlation Energy =    -1.0255711551
 Nuclear Repu.   Energy =   102.6576218250
 Nuclear Attr.   Energy =  -748.9971488626
 Kinetic         Energy =   227.4383049801
 <S^2> = 0.7576
 SCF time:  CPU 82.26 s  wall 82.65 s
 Final Alpha MO Eigenvalues
            1           2           3           4           5           6
    1 -18.6932390 -18.6932152  -9.9139092  -9.9137476  -0.9448832  -0.9301442
            7           8           9          10          11          12
    1  -0.5720900  -0.4763369  -0.3665061  -0.3539926  -0.3334912  -0.3196267
           13          14          15          16          17          18
    1  -0.2807908  -0.1873790  -0.1200118  -0.0311668   0.1773296   0.1780419
           19          20          21
    1   0.2367780   0.2550993   0.2604601
 Final Beta MO Eigenvalues
            1           2           3           4           5           6
    1 -18.6864649 -18.6864416  -9.9114110  -9.9113069  -0.9339131  -0.9191575
            7           8           9          10          11          12
    1  -0.5507663  -0.4697121  -0.3625349  -0.3449151  -0.3126029  -0.2967828
           13          14          15          16          17          18
    1  -0.2359040  -0.1804442  -0.1131504   0.1774223   0.1784310   0.2371045
           19          20
    1   0.2381808   0.2555900
 Analysis of SCF Wavefunction
 
 --------------------------------------------------------------
                    Orbital Energies (a.u.)
 --------------------------------------------------------------
 
 Alpha MOs
 -- Occupied --
-18.693 -18.693  -9.914  -9.914  -0.945  -0.930  -0.572  -0.476
 -0.367  -0.354  -0.333  -0.320  -0.281  -0.187  -0.120  -0.031
 -- Virtual --
  0.177   0.178   0.237   0.255   0.260   0.263   0.276   0.309
  0.314   0.335   0.347   0.427   0.430   0.443   0.464   0.491
  0.507   0.519   0.523   0.542   0.571   0.651   0.699   0.708
  0.781   0.810   0.827   0.838   0.866   0.901   0.906   0.908
  0.988   1.016   1.053   1.081   1.126   1.262   1.272   1.302
  1.315   1.329   1.353   1.371   1.373   1.416   1.424   1.426
  1.470   1.506   1.562   1.626   1.682   1.792   1.810   1.843
  1.944   2.028   2.028   2.076   2.113   2.234   2.318   2.399
  2.503   2.729   2.740   2.766   2.862   2.916   2.933   2.983
  3.057   3.150   3.207   3.212   3.214   3.314   3.348   3.395
  3.438   3.530   3.552   3.612   3.634   3.647   3.665   3.733
  3.807   3.837   3.943   3.952   3.972   4.100   4.135   4.152
  4.365   4.427   4.468   4.483   4.495   4.764   4.915   4.930
  5.269   5.278   5.288   5.332   5.361   5.382   5.386   5.415
  5.574   5.685   5.768   5.787   5.796   5.799   6.093   6.162
  6.572   6.591   6.813   7.084   7.103   7.121   7.123   7.229
  7.271   7.279   7.458   7.516   7.698   7.734   7.883   7.953
 24.687  24.814  27.406  27.526  27.879  28.375  28.425  28.718
 41.044  41.140  41.190  41.245  41.291  41.297  41.368  41.372
 41.520  41.529  43.921  43.941  43.965  43.975  44.061  44.084
 44.088  44.131  44.211  44.233  45.924  45.929  46.031  46.068
 46.756  46.791  50.272  50.306
 
 Beta MOs
 -- Occupied --
-18.686 -18.686  -9.911  -9.911  -0.934  -0.919  -0.551  -0.470
 -0.363  -0.345  -0.313  -0.297  -0.236  -0.180  -0.113
 -- Virtual --
  0.177   0.178   0.237   0.238   0.256   0.271   0.277   0.279
  0.309   0.320   0.348   0.370   0.429   0.432   0.445   0.484
  0.496   0.509   0.521   0.525   0.543   0.573   0.660   0.702
  0.716   0.783   0.826   0.842   0.849   0.870   0.907   0.918
  0.923   1.003   1.021   1.056   1.086   1.136   1.269   1.280
  1.307   1.316   1.342   1.356   1.376   1.388   1.419   1.429
  1.441   1.473   1.519   1.568   1.631   1.685   1.797   1.820
  1.850   1.960   2.043   2.043   2.091   2.121   2.250   2.325
  2.416   2.505   2.733   2.745   2.773   2.878   2.919   2.945
  3.001   3.078   3.157   3.213   3.223   3.225   3.324   3.354
  3.412   3.451   3.540   3.565   3.624   3.640   3.662   3.673
  3.748   3.811   3.851   3.958   3.958   3.976   4.101   4.140
  4.157   4.379   4.431   4.476   4.488   4.500   4.768   4.919
  4.932   5.293   5.303   5.309   5.351   5.383   5.401   5.402
  5.421   5.583   5.694   5.786   5.801   5.811   5.813   6.096
  6.165   6.591   6.610   6.816   7.099   7.133   7.149   7.150
  7.235   7.286   7.288   7.485   7.543   7.702   7.739   7.894
  7.965  24.690  24.817  27.414  27.534  27.880  28.377  28.426
 28.719  41.050  41.148  41.192  41.245  41.297  41.302  41.373
 41.377  41.521  41.530  43.939  43.960  43.982  43.992  44.078
 44.090  44.102  44.133  44.216  44.239  45.944  45.950  46.035
 46.072  46.760  46.796  50.279  50.312
 --------------------------------------------------------------
 
          Ground-State Mulliken Net Atomic Charges

     Atom                 Charge (a.u.)    Spin (a.u.)
  --------------------------------------------------------
      1 C                    -0.076727       0.283539
      2 C                    -0.076719       0.283535
      3 O                    -0.435056       0.241789
      4 H                     0.011781      -0.025324
      5 O                    -0.435061       0.241781
      6 H                     0.011782      -0.025319
  --------------------------------------------------------
  Sum of atomic charges =    -1.000000
  Sum of spin   charges =     1.000000

 -----------------------------------------------------------------
                    Cartesian Multipole Moments
 -----------------------------------------------------------------
    Charge (ESU x 10^10)
                -4.8032
    Dipole Moment (Debye)
         X       0.0000      Y       0.0000      Z      -3.6625
       Tot       3.6625
    Quadrupole Moments (Debye-Ang)
        XX     -33.2000     XY       0.0010     YY     -26.2198
        XZ       8.7463     YZ       0.0004     ZZ     -39.7738
    Octapole Moments (Debye-Ang^2)
       XXX      -0.0002    XXY       0.0000    XYY      -0.0001
       YYY       0.0000    XXZ     -25.3152    XYZ       0.0007
       YYZ     -19.9927    XZZ      13.3382    YZZ       0.0006
       ZZZ     -86.7243
    Hexadecapole Moments (Debye-Ang^3)
      XXXX    -135.8518   XXXY       0.0044   XXYY     -26.3313
      XYYY       0.0040   YYYY     -33.9741   XXXZ      55.1656
      XXYZ       0.0009   XYYZ      14.4814   YYYZ       0.0048
      XXZZ     -92.6279   XYZZ       0.0056   YYZZ     -59.0530
      XZZZ      82.3047   YZZZ       0.0018   ZZZZ    -392.7302
 -----------------------------------------------------------------
 Total job time:  82.89s(wall), 82.48s(cpu) 
 Sun Jul  7 09:42:27 2013

        *************************************************************
        *                                                           *
        *  Thank you very much for using Q-Chem.  Have a nice day.  *
        *                                                           *
        *************************************************************


0 sent ACK to 0 
now end server 0 ... 
 
**********************************************************************
Job 2 of 3 
**********************************************************************
 
Process 0 of 1 is on cl082.stfx.acenet.ca - thread support 1
initial socket setup ...start
initial socket setup ...done 
now start server 0 ... 

cmd = /usr/bin/ssh clhead /usr/local/qchem/bin/get_hostid 1074774994 > /scratch/tmp/6064072.1.short.q/qchem21614/lic.dat
                  Welcome to Q-Chem
     A Quantum Leap Into The Future Of Chemistry

 Y. Shao, L. Fusti-Molnar, Y. Jung, J. Kussmann, C. Ochsenfeld,
 S. T. Brown, A. T. B. Gilbert, L. V. Slipchenko,S. V. Levchenko,
 D. P. O'Neill, R. A. DiStasio Jr., R. C. Lochan, T. Wang,
 G. J. O. Beran, N. A. Besley, J. M. Herbert, C. Y. Lin,
 T. Van Voorhis, S. H. Chien, A. Sodt, R. P. Steele, 
 V. A. Rassolov, P. E. Maslen, P. P. Korambath, R. D. Adamson,
 B. Austin, J. Baker, E. F. C. Byrd, H. Dachsel, R. J. Doerksen,
 A. Dreuw, B. D. Dunietz, A. D. Dutoi, T. R. Furlani,
 S. R. Gwaltney, A. Heyden, S. Hirata, C.-P. Hsu, G. Kedziora,
 R. Z. Khaliullin, P. Klunzinger, A. M. Lee, M. S. Lee, W. Liang,
 I. Lotan, N. Nair, B. Peters, E. I. Proynov, P. A. Pieniazek, 
 Y. M. Rhee, J. Ritchie, E. Rosta, C. D. Sherrill, 
 A. C. Simmonett, J. E. Subotnik, H. L. Woodcock III,
 W. Zhang, A. T. Bell, A. K. Chakraborty, D. M. Chipman,
 F. J. Keil, A. Warshel, W. J. Hehre, H. F. Schaefer III,
 J. Kong, A. I. Krylov, P. M. W. Gill, M. Head-Gordon,
 Q-Chem, Version 3.1, Q-Chem, Inc., Pittsburgh, PA (2007).

 Additional authors for Version 3.1: 
 Z. Gan, Y. Zhao, N. E. Schultz, D. Truhlar, E. Epifanovsky and M. Oana.

 Additional authors for Version 3.2: 
 R. Baer, B. R. Brooks, D. Casanova, J.-D. Chai, C.-L. Cheng, 
 C. Cramer, D. Crittenden, A. Ghysels, G. Hawkins, E. G. Hohenstein, 
 C. Kelley, W. Kurlancheek, D. Liotard, E. Livshits, P. Manohar, 
 A. Marenich, D. Neuhauser, R. Olson, M. A. Rohrdanz, K. S. Thanthiriwatte, 
 A. J. W. Thom, V. Vanovschi, C. F. Williams, Q. Wu and Z.-Q. You. 


 Intel X86 Linux Version

 Q-chem begins on Sun Jul  7 09:42:29 2013  

 Parallel job on  1  processors
Processing $rem in /usr/local/qchem/config/preferences.

theFileMan(): MAXOPENFILES=974 MAX_SUB_FILE_NUM=16
Maximum size of a physical file is 2.0 GB, maximum size of a tmp-file is 32.0 GB


--------------------------------------------------------------
User input:
--------------------------------------------------------------

$molecule
0,1
C         -0.00239        0.00000        0.00366
C          0.00239        0.00000        1.52136
O          1.01667        0.00000       -0.61795
H         -1.00159        0.00000       -0.46287
O         -1.01667        0.00000        2.14296
H          1.00159        0.00000        1.98789
$end

$comment
neutral
$end

$xc_functional
C PBE   1.00
X wPBE  1.00
$end


$rem
SYMMETRY_DECOMPOSITION	0
LRC_DFT                 true
exchange 		general
BASIS                   g3large
omega			350
mem_static              760
max_scf_cycles          200
scf_final_print         1
sym_ignore              true
$end

--------------------------------------------------------------
 Writing REM_CC_EA            6
 ----------------------------------------------------
       Standard Nuclear Orientation (Angstroms)
    I     Atom         X            Y            Z
 ----------------------------------------------------
    1      C      -0.002390     0.000000     0.003660
    2      C       0.002390     0.000000     1.521360
    3      O       1.016670     0.000000    -0.617950
    4      H      -1.001590     0.000000    -0.462870
    5      O      -1.016670     0.000000     2.142960
    6      H       1.001590     0.000000     1.987890
 ----------------------------------------------------
 Nuclear Repulsion Energy =   102.6576218305 hartrees
 There are       15 alpha and       15 beta electrons
 Requested basis set is G3large
 There are 52 shells and 188 basis functions

Total QAlloc Memory Limit   2000 MB
Mega-Array Size       743 MB
MEM_STATIC part       760 MB

                       Distance Matrix (Angstroms)
             C (  1)   C (  2)   O (  3)   H (  4)   O (  5)
   C (  2)  1.517708
   O (  3)  1.193684  2.367575
   H (  4)  1.102747  2.223768  2.024209
   O (  5)  2.367566  1.193679  3.428862  2.605874
   H (  6)  2.223768  1.102747  2.605884  3.165273  2.024209
 
 A cutoff of  1.0D-08 yielded   1239 shell pairs
 There are  16161 function pairs ( 20529 Cartesian)
Evaluating contribution to one-electron hamiltonian from nuclear
 Smallest overlap matrix eigenvalue = 1.78E-04
 Multipole matrices computed through 2nd order

  Scale SEOQF with 1.000000e-01/1.000000e-01/1.000000e-01

 Standard Electronic Orientation quadrupole field applied
 Nucleus-field energy     =    -0.0000000055 hartrees
 Guess from superposition of atomic densities
 Warning:  Energy on first SCF cycle will be non-variational
 Long-range K will be added via erf
 Coulomb attenuation parameter = 0.35 bohr**(-1)
 A restricted Kohn-Sham SCF calculation will be
 performed using Pulay DIIS extrapolation
 Exchange:  wPBE + LR-HF      Correlation:  PBE
 Using SG-1 standard quadrature grid
 SCF converges when DIIS error is below 1.0E-05
 Requested basis set is G3large
 There are 52 shells and 188 basis functions
 A cutoff of  1.0D-08 yielded   1239 shell pairs
 There are  16161 function pairs ( 20529 Cartesian)
 ---------------------------------------
  Cycle       Energy         DIIS Error
 ---------------------------------------
    1    -228.7305559006      3.72E-02
    2    -227.5187235444      7.46E-03
    3    -227.3430766848      1.13E-02
    4    -227.7215328381      4.68E-04
    5    -227.7230437817      1.64E-04
    6    -227.7232915532      3.68E-05
    7    -227.7232849085      9.40E-06 Convergence criterion met
 ---------------------------------------
 One-Electron    Energy =  -513.4607618004
 Total Coulomb   Energy =   211.6317182231
 Alpha Exchange  Energy =    -2.7172576483
 Beta  Exchange  Energy =    -2.7172576483
 DFT   Exchange  Energy =   -22.1244136260
 DFT Correlation Energy =    -0.9929342337
 Nuclear Repu.   Energy =   102.6576218250
 Nuclear Attr.   Energy =  -740.5851228289
 Kinetic         Energy =   227.1243610284
 SCF time:  CPU 57.59 s  wall 57.93 s
 Final Alpha MO Eigenvalues
            1           2           3           4           5           6
    1 -18.9796810 -18.9796781 -10.1958399 -10.1957311  -1.2144552  -1.1988633
            7           8           9          10          11          12
    1  -0.8369608  -0.7309201  -0.6284349  -0.6129674  -0.5834568  -0.5775209
           13          14          15          16          17          18
    1  -0.5218115  -0.4480267  -0.3788355  -0.0315066   0.0464245   0.0510676
           19          20
    1   0.0863307   0.0905371
 Analysis of SCF Wavefunction
 
 --------------------------------------------------------------
                    Orbital Energies (a.u.)
 --------------------------------------------------------------
 
 Alpha MOs
 -- Occupied --
-18.980 -18.980 -10.196 -10.196  -1.214  -1.199  -0.837  -0.731
 -0.628  -0.613  -0.583  -0.578  -0.522  -0.448  -0.379
 -- Virtual --
 -0.032   0.046   0.051   0.086   0.091   0.100   0.114   0.133
  0.146   0.152   0.166   0.191   0.240   0.243   0.259   0.279
  0.319   0.323   0.338   0.344   0.368   0.385   0.410   0.483
  0.486   0.566   0.586   0.601   0.620   0.655   0.667   0.674
  0.681   0.753   0.800   0.821   0.839   0.887   1.016   1.046
  1.073   1.094   1.095   1.134   1.151   1.154   1.186   1.192
  1.207   1.234   1.260   1.324   1.390   1.453   1.565   1.574
  1.599   1.696   1.782   1.785   1.829   1.856   1.981   2.072
  2.150   2.258   2.485   2.492   2.517   2.592   2.668   2.675
  2.719   2.789   2.891   2.938   2.948   2.951   3.057   3.085
  3.127   3.179   3.269   3.289   3.348   3.371   3.377   3.410
  3.467   3.549   3.573   3.678   3.693   3.712   3.836   3.873
  3.889   4.097   4.177   4.217   4.220   4.229   4.503   4.653
  4.671   5.009   5.018   5.029   5.071   5.101   5.122   5.125
  5.152   5.311   5.425   5.504   5.524   5.530   5.534   5.831
  5.901   6.303   6.323   6.542   6.820   6.840   6.857   6.860
  6.960   7.008   7.011   7.195   7.254   7.433   7.468   7.618
  7.688  24.407  24.534  27.126  27.246  27.597  28.095  28.144
 28.437  40.762  40.860  40.909  40.963  41.010  41.015  41.086
 41.090  41.239  41.247  43.640  43.660  43.683  43.693  43.778
 43.802  43.804  43.847  43.926  43.949  45.642  45.647  45.747
 45.783  46.471  46.506  49.988  50.021
 --------------------------------------------------------------
 
          Ground-State Mulliken Net Atomic Charges

     Atom                 Charge (a.u.)
  ----------------------------------------
      1 C                     0.098284
      2 C                     0.098287
      3 O                    -0.217747
      4 H                     0.119461
      5 O                    -0.217745
      6 H                     0.119461
  ----------------------------------------
  Sum of atomic charges =     0.000000

 -----------------------------------------------------------------
                    Cartesian Multipole Moments
 -----------------------------------------------------------------
    Charge (ESU x 10^10)
                 0.0000
    Dipole Moment (Debye)
         X       0.0000      Y       0.0000      Z       0.0000
       Tot       0.0000
    Quadrupole Moments (Debye-Ang)
        XX     -25.5489     XY      -0.0012     YY     -21.2901
        XZ       5.9833     YZ      -0.0003     ZZ     -26.3769
    Octapole Moments (Debye-Ang^2)
       XXX       0.0000    XXY       0.0000    XYY       0.0000
       YYY       0.0000    XXZ     -19.4812    XYZ      -0.0009
       YYZ     -16.2338    XZZ       9.1246    YZZ      -0.0005
       ZZZ     -60.3378
    Hexadecapole Moments (Debye-Ang^3)
      XXXX    -105.0965   XXXY      -0.0035   XXYY     -19.4398
      XYYY      -0.0009   YYYY     -18.6217   XXXZ      48.1677
      XXYZ       0.0013   XYYZ      12.9426   YYYZ      -0.0006
      XXZZ     -68.5013   XYZZ      -0.0025   YYZZ     -47.0524
      XZZZ      64.9787   YZZZ      -0.0020   ZZZZ    -303.0599
 -----------------------------------------------------------------
 Total job time:  58.13s(wall), 57.78s(cpu) 
 Sun Jul  7 09:43:27 2013

        *************************************************************
        *                                                           *
        *  Thank you very much for using Q-Chem.  Have a nice day.  *
        *                                                           *
        *************************************************************


0 sent ACK to 0 
now end server 0 ... 
 
**********************************************************************
Job 3 of 3 
**********************************************************************
 
Process 0 of 1 is on cl082.stfx.acenet.ca - thread support 1
initial socket setup ...start
initial socket setup ...done 
now start server 0 ... 

cmd = /usr/bin/ssh clhead /usr/local/qchem/bin/get_hostid 1845956450 > /scratch/tmp/6064072.1.short.q/qchem21614/lic.dat
                  Welcome to Q-Chem
     A Quantum Leap Into The Future Of Chemistry

 Y. Shao, L. Fusti-Molnar, Y. Jung, J. Kussmann, C. Ochsenfeld,
 S. T. Brown, A. T. B. Gilbert, L. V. Slipchenko,S. V. Levchenko,
 D. P. O'Neill, R. A. DiStasio Jr., R. C. Lochan, T. Wang,
 G. J. O. Beran, N. A. Besley, J. M. Herbert, C. Y. Lin,
 T. Van Voorhis, S. H. Chien, A. Sodt, R. P. Steele, 
 V. A. Rassolov, P. E. Maslen, P. P. Korambath, R. D. Adamson,
 B. Austin, J. Baker, E. F. C. Byrd, H. Dachsel, R. J. Doerksen,
 A. Dreuw, B. D. Dunietz, A. D. Dutoi, T. R. Furlani,
 S. R. Gwaltney, A. Heyden, S. Hirata, C.-P. Hsu, G. Kedziora,
 R. Z. Khaliullin, P. Klunzinger, A. M. Lee, M. S. Lee, W. Liang,
 I. Lotan, N. Nair, B. Peters, E. I. Proynov, P. A. Pieniazek, 
 Y. M. Rhee, J. Ritchie, E. Rosta, C. D. Sherrill, 
 A. C. Simmonett, J. E. Subotnik, H. L. Woodcock III,
 W. Zhang, A. T. Bell, A. K. Chakraborty, D. M. Chipman,
 F. J. Keil, A. Warshel, W. J. Hehre, H. F. Schaefer III,
 J. Kong, A. I. Krylov, P. M. W. Gill, M. Head-Gordon,
 Q-Chem, Version 3.1, Q-Chem, Inc., Pittsburgh, PA (2007).

 Additional authors for Version 3.1: 
 Z. Gan, Y. Zhao, N. E. Schultz, D. Truhlar, E. Epifanovsky and M. Oana.

 Additional authors for Version 3.2: 
 R. Baer, B. R. Brooks, D. Casanova, J.-D. Chai, C.-L. Cheng, 
 C. Cramer, D. Crittenden, A. Ghysels, G. Hawkins, E. G. Hohenstein, 
 C. Kelley, W. Kurlancheek, D. Liotard, E. Livshits, P. Manohar, 
 A. Marenich, D. Neuhauser, R. Olson, M. A. Rohrdanz, K. S. Thanthiriwatte, 
 A. J. W. Thom, V. Vanovschi, C. F. Williams, Q. Wu and Z.-Q. You. 


 Intel X86 Linux Version

 Q-chem begins on Sun Jul  7 09:43:30 2013  

 Parallel job on  1  processors
Processing $rem in /usr/local/qchem/config/preferences.

theFileMan(): MAXOPENFILES=974 MAX_SUB_FILE_NUM=16
Maximum size of a physical file is 2.0 GB, maximum size of a tmp-file is 32.0 GB


--------------------------------------------------------------
User input:
--------------------------------------------------------------

$molecule
1,2
C         -0.00239        0.00000        0.00366
C          0.00239        0.00000        1.52136
O          1.01667        0.00000       -0.61795
H         -1.00159        0.00000       -0.46287
O         -1.01667        0.00000        2.14296
H          1.00159        0.00000        1.98789
$end

$comment
positive
$end

$xc_functional
C PBE   1.00
X wPBE  1.00
$end

$rem
SYMMETRY_DECOMPOSITION	0
LRC_DFT                 true
exchange 		general
BASIS                   g3large
omega			350
mem_static              760
max_scf_cycles          200
scf_final_print         1
sym_ignore              true
$end

--------------------------------------------------------------
 Writing REM_CC_EA            6
 ----------------------------------------------------
       Standard Nuclear Orientation (Angstroms)
    I     Atom         X            Y            Z
 ----------------------------------------------------
    1      C      -0.002390     0.000000     0.003660
    2      C       0.002390     0.000000     1.521360
    3      O       1.016670     0.000000    -0.617950
    4      H      -1.001590     0.000000    -0.462870
    5      O      -1.016670     0.000000     2.142960
    6      H       1.001590     0.000000     1.987890
 ----------------------------------------------------
 Nuclear Repulsion Energy =   102.6576218305 hartrees
 There are       15 alpha and       14 beta electrons
 Requested basis set is G3large
 There are 52 shells and 188 basis functions

Total QAlloc Memory Limit   2000 MB
Mega-Array Size       743 MB
MEM_STATIC part       760 MB

                       Distance Matrix (Angstroms)
             C (  1)   C (  2)   O (  3)   H (  4)   O (  5)
   C (  2)  1.517708
   O (  3)  1.193684  2.367575
   H (  4)  1.102747  2.223768  2.024209
   O (  5)  2.367566  1.193679  3.428862  2.605874
   H (  6)  2.223768  1.102747  2.605884  3.165273  2.024209
 
 A cutoff of  1.0D-08 yielded   1239 shell pairs
 There are  16161 function pairs ( 20529 Cartesian)
Evaluating contribution to one-electron hamiltonian from nuclear
 Smallest overlap matrix eigenvalue = 1.78E-04
 Multipole matrices computed through 2nd order

  Scale SEOQF with 1.000000e-01/1.000000e-01/1.000000e-01

 Standard Electronic Orientation quadrupole field applied
 Nucleus-field energy     =    -0.0000000055 hartrees
 Guess from superposition of atomic densities
 Warning:  Energy on first SCF cycle will be non-variational
 Long-range K will be added via erf
 Coulomb attenuation parameter = 0.35 bohr**(-1)
 An unrestricted Kohn-Sham SCF calculation will be
 performed using Pulay DIIS extrapolation
 Exchange:  wPBE + LR-HF      Correlation:  PBE
 Using SG-1 standard quadrature grid
 SCF converges when DIIS error is below 1.0E-05
 Requested basis set is G3large
 There are 52 shells and 188 basis functions
 A cutoff of  1.0D-08 yielded   1239 shell pairs
 There are  16161 function pairs ( 20529 Cartesian)
 Warning!  Inaccurate integrated density:
   Number of electrons =    29
   Numerical integral  =    29.999861636644
   Relative error      =     3.4477987470 %
 ---------------------------------------
  Cycle       Energy         DIIS Error
 ---------------------------------------
    1    -228.7305559006      3.72E-02
    2    -227.1219069084      6.76E-03
    3    -226.9363263536      1.11E-02
    4    -227.3288413020      7.43E-04
    5    -227.3313914782      2.44E-04
    6    -227.3319041049      5.72E-05
    7    -227.3320243445      1.89E-05
    8    -227.3320416419      7.86E-06 Convergence criterion met
 ---------------------------------------
 One-Electron    Energy =  -504.6609331457
 Total Coulomb   Energy =   202.8127721814
 Alpha Exchange  Energy =    -2.7315403443
 Beta  Exchange  Energy =    -2.5206401711
 DFT   Exchange  Energy =   -21.9320556115
 DFT Correlation Energy =    -0.9572663758
 Nuclear Repu.   Energy =   102.6576218250
 Nuclear Attr.   Energy =  -731.3607615477
 Kinetic         Energy =   226.6998284019
 <S^2> = 0.7584
 SCF time:  CPU 82.30 s  wall 82.57 s
 Final Alpha MO Eigenvalues
            1           2           3           4           5           6
    1 -19.3067917 -19.3067874 -10.4934756 -10.4933635  -1.5194131  -1.5044326
            7           8           9          10          11          12
    1  -1.1410631  -1.0164121  -0.9268995  -0.9074590  -0.8690345  -0.8687965
           13          14          15          16          17          18
    1  -0.8117407  -0.7638770  -0.6930228  -0.3130335  -0.1709382  -0.1056109
           19          20
    1  -0.1024075  -0.0760788
 Final Beta MO Eigenvalues
            1           2           3           4           5           6
    1 -19.2976163 -19.2976098 -10.4928224 -10.4927029  -1.5046059  -1.4886664
            7           8           9          10          11          12
    1  -1.1203507  -0.9958376  -0.9007740  -0.8911363  -0.8635845  -0.8543030
           13          14          15          16          17          18
    1  -0.8033078  -0.6782345  -0.4046342  -0.3061687  -0.1694144  -0.1043621
           19
    1  -0.0985056
 Analysis of SCF Wavefunction
 
 --------------------------------------------------------------
                    Orbital Energies (a.u.)
 --------------------------------------------------------------
 
 Alpha MOs
 -- Occupied --
-19.307 -19.307 -10.493 -10.493  -1.519  -1.504  -1.141  -1.016
 -0.927  -0.907  -0.869  -0.869  -0.812  -0.764  -0.693
 -- Virtual --
 -0.313  -0.171  -0.106  -0.102  -0.076  -0.065  -0.049  -0.023
 -0.018  -0.003   0.002   0.035   0.037   0.046   0.065   0.085
  0.101   0.143   0.144   0.152   0.179   0.181   0.204   0.260
  0.269   0.337   0.354   0.363   0.384   0.409   0.431   0.437
  0.442   0.507   0.574   0.585   0.587   0.633   0.752   0.801
  0.825   0.844   0.856   0.899   0.914   0.915   0.933   0.945
  0.966   0.984   0.998   1.059   1.130   1.206   1.316   1.318
  1.333   1.415   1.507   1.518   1.551   1.569   1.708   1.797
  1.882   1.981   2.215   2.221   2.243   2.302   2.392   2.395
  2.443   2.509   2.604   2.650   2.670   2.672   2.778   2.802
  2.845   2.899   2.990   3.006   3.066   3.085   3.093   3.128
  3.184   3.264   3.291   3.396   3.410   3.427   3.544   3.582
  3.600   3.806   3.894   3.926   3.933   3.937   4.212   4.357
  4.376   4.713   4.716   4.718   4.767   4.796   4.811   4.821
  4.827   5.005   5.132   5.213   5.224   5.231   5.238   5.525
  5.596   6.008   6.029   6.229   6.507   6.515   6.532   6.534
  6.661   6.692   6.712   6.898   6.957   7.117   7.147   7.316
  7.385  24.112  24.237  26.830  26.950  27.296  27.798  27.848
 28.139  40.463  40.562  40.611  40.663  40.711  40.717  40.789
 40.794  40.940  40.948  43.306  43.327  43.349  43.358  43.460
 43.470  43.483  43.512  43.600  43.622  45.319  45.325  45.409
 45.445  46.148  46.184  49.663  49.696
 
 Beta MOs
 -- Occupied --
-19.298 -19.298 -10.493 -10.493  -1.505  -1.489  -1.120  -0.996
 -0.901  -0.891  -0.864  -0.854  -0.803  -0.678
 -- Virtual --
 -0.405  -0.306  -0.169  -0.104  -0.099  -0.074  -0.065  -0.046
 -0.020  -0.018  -0.003   0.009   0.039   0.040   0.053   0.067
  0.086   0.114   0.144   0.148   0.157   0.183   0.190   0.206
  0.265   0.273   0.348   0.356   0.365   0.390   0.413   0.435
  0.444   0.446   0.506   0.578   0.588   0.589   0.638   0.756
  0.809   0.834   0.846   0.863   0.905   0.920   0.925   0.944
  0.950   0.981   0.994   1.003   1.072   1.142   1.213   1.325
  1.326   1.344   1.433   1.521   1.529   1.568   1.584   1.711
  1.810   1.886   1.996   2.225   2.230   2.254   2.311   2.404
  2.405   2.442   2.512   2.618   2.657   2.671   2.677   2.784
  2.809   2.844   2.903   2.995   3.013   3.069   3.090   3.092
  3.137   3.186   3.277   3.292   3.398   3.416   3.434   3.553
  3.595   3.608   3.813   3.913   3.938   3.946   3.952   4.224
  4.375   4.395   4.723   4.731   4.750   4.792   4.820   4.840
  4.845   4.870   5.030   5.146   5.222   5.241   5.248   5.250
  5.548   5.619   6.012   6.033   6.251   6.533   6.555   6.572
  6.574   6.669   6.721   6.724   6.906   6.965   7.149   7.183
  7.330   7.399  24.112  24.238  26.830  26.949  27.301  27.799
 27.847  28.142  40.465  40.563  40.612  40.666  40.713  40.719
 40.789  40.793  40.942  40.950  43.328  43.348  43.372  43.382
 43.462  43.486  43.491  43.535  43.612  43.635  45.326  45.332
 45.435  45.472  46.155  46.190  49.672  49.705
 --------------------------------------------------------------
 
          Ground-State Mulliken Net Atomic Charges

     Atom                 Charge (a.u.)    Spin (a.u.)
  --------------------------------------------------------
      1 C                     0.178676       0.028340
      2 C                     0.178681       0.028346
      3 O                     0.084858       0.381831
      4 H                     0.236464       0.089834
      5 O                     0.084854       0.381816
      6 H                     0.236467       0.089834
  --------------------------------------------------------
  Sum of atomic charges =     1.000000
  Sum of spin   charges =     1.000000

 -----------------------------------------------------------------
                    Cartesian Multipole Moments
 -----------------------------------------------------------------
    Charge (ESU x 10^10)
                 4.8032
    Dipole Moment (Debye)
         X       0.0000      Y       0.0000      Z       3.6625
       Tot       3.6625
    Quadrupole Moments (Debye-Ang)
        XX     -17.9054     XY       0.0013     YY     -19.1527
        XZ       3.4212     YZ       0.0042     ZZ     -12.3169
    Octapole Moments (Debye-Ang^2)
       XXX       0.0000    XXY       0.0000    XYY       0.0000
       YYY       0.0000    XXZ     -13.6531    XYZ       0.0010
       YYZ     -14.6041    XZZ       5.2175    YZZ       0.0064
       ZZZ     -32.4341
    Hexadecapole Moments (Debye-Ang^3)
      XXXX     -80.4441   XXXY       0.0098   XXYY     -16.1313
      XYYY       0.0005   YYYY     -14.8417   XXXZ      41.8678
      XXYZ      -0.0033   XYYZ      11.8863   YYYZ       0.0023
      XXZZ     -47.6694   XYZZ      -0.0091   YYZZ     -41.0189
      XZZZ      48.6054   YZZZ       0.0319   ZZZZ    -212.6271
 -----------------------------------------------------------------
 Total job time:  82.78s(wall), 82.51s(cpu) 
 Sun Jul  7 09:44:53 2013

        *************************************************************
        *                                                           *
        *  Thank you very much for using Q-Chem.  Have a nice day.  *
        *                                                           *
        *************************************************************


0 sent ACK to 0 
now end server 0 ... 
