Process 0 of 1 is on cl049.stfx.acenet.ca - thread support 1
initial socket setup ...start
initial socket setup ...done 
now start server 0 ... 

cmd = /usr/bin/ssh clhead /usr/local/qchem/bin/get_hostid 28466419 > /scratch/tmp/6027734.1.short.q/qchem26832/lic.dat
                  Welcome to Q-Chem
     A Quantum Leap Into The Future Of Chemistry

 Y. Shao, L. Fusti-Molnar, Y. Jung, J. Kussmann, C. Ochsenfeld,
 S. T. Brown, A. T. B. Gilbert, L. V. Slipchenko,S. V. Levchenko,
 D. P. O'Neill, R. A. DiStasio Jr., R. C. Lochan, T. Wang,
 G. J. O. Beran, N. A. Besley, J. M. Herbert, C. Y. Lin,
 T. Van Voorhis, S. H. Chien, A. Sodt, R. P. Steele, 
 V. A. Rassolov, P. E. Maslen, P. P. Korambath, R. D. Adamson,
 B. Austin, J. Baker, E. F. C. Byrd, H. Dachsel, R. J. Doerksen,
 A. Dreuw, B. D. Dunietz, A. D. Dutoi, T. R. Furlani,
 S. R. Gwaltney, A. Heyden, S. Hirata, C.-P. Hsu, G. Kedziora,
 R. Z. Khaliullin, P. Klunzinger, A. M. Lee, M. S. Lee, W. Liang,
 I. Lotan, N. Nair, B. Peters, E. I. Proynov, P. A. Pieniazek, 
 Y. M. Rhee, J. Ritchie, E. Rosta, C. D. Sherrill, 
 A. C. Simmonett, J. E. Subotnik, H. L. Woodcock III,
 W. Zhang, A. T. Bell, A. K. Chakraborty, D. M. Chipman,
 F. J. Keil, A. Warshel, W. J. Hehre, H. F. Schaefer III,
 J. Kong, A. I. Krylov, P. M. W. Gill, M. Head-Gordon,
 Q-Chem, Version 3.1, Q-Chem, Inc., Pittsburgh, PA (2007).

 Additional authors for Version 3.1: 
 Z. Gan, Y. Zhao, N. E. Schultz, D. Truhlar, E. Epifanovsky and M. Oana.

 Additional authors for Version 3.2: 
 R. Baer, B. R. Brooks, D. Casanova, J.-D. Chai, C.-L. Cheng, 
 C. Cramer, D. Crittenden, A. Ghysels, G. Hawkins, E. G. Hohenstein, 
 C. Kelley, W. Kurlancheek, D. Liotard, E. Livshits, P. Manohar, 
 A. Marenich, D. Neuhauser, R. Olson, M. A. Rohrdanz, K. S. Thanthiriwatte, 
 A. J. W. Thom, V. Vanovschi, C. F. Williams, Q. Wu and Z.-Q. You. 


 Intel X86 Linux Version

 Q-chem begins on Mon Jun  3 17:03:51 2013  

 Parallel job on  1  processors
Processing $rem in /usr/local/qchem/config/preferences.

theFileMan(): MAXOPENFILES=974 MAX_SUB_FILE_NUM=16
Maximum size of a physical file is 2.0 GB, maximum size of a tmp-file is 32.0 GB


--------------------------------------------------------------
User input:
--------------------------------------------------------------

$molecule
-1,2
O
C1,O,r1
H1,C1,r2,O,a1
H,O,roh,C1,aoh,H1,toh,0
C2,C1,r3a,O,a2a,H1,t1a,0
C3,C1,r3b,O,a2b,H1,-t1b,0
H,C2,r4a,C1,a4a,H1,t2a,0
H,C3,r5a,C1,a5a,H1,-t2b,0
H,C2,r4b,C1,a4b,H1,t3a,0
H,C3,r5b,C1,a5b,H1,-t3b,0
H,C2,r4c,C1,a4c,H1,-t4a,0
H,C3,r5c,C1,a5c,H1,t4b,0

r1=1.43111827
r2=1.9557364
roh=2.07916264
r3a=1.52393712
r3b=1.53017411
r4a=1.09587708
r5a=1.09583825
r4b=1.09448657
r5b=1.09801539
r4c=1.0954512
r5c=1.0964078
a1=28.22171182
aoh=30.02045037
a2a=106.21524706
a2b=111.13113306
a4a=110.2041443
a5a=110.24366741
a4b=110.29321839
a5b=111.03931704
a4c=110.82961388
a5c=111.23833611
toh=-62.32359188
t1a=179.44473237
t1b=57.80032287
t2a=63.0172795
t2b=83.272013
t3a=-56.37337218
t3b=-36.4963859
t4a=176.72748761
t4b=156.21533884

$end

$comment
negative
$end

$xc_functional
C PBE   1.00
X wPBE  1.00
$end

$rem
SYMMETRY_DECOMPOSITION	0
exchange 		general
LRC_DFT                 true
BASIS                   g3large
omega			500
mem_static              760
max_scf_cycles          200
scf_final_print         1
sym_ignore              true
$end

--------------------------------------------------------------
 Writing REM_CC_EA           12
 ----------------------------------------------------
       Standard Nuclear Orientation (Angstroms)
    I     Atom         X            Y            Z
 ----------------------------------------------------
    1      O       0.000000     0.000000     0.000000
    2      C       0.000000     0.000000     1.431118
    3      H       0.924838     0.000000    -0.292129
    4      H       0.483161     0.921207     1.800236
    5      C      -1.463245     0.014181     1.856673
    6      C       0.760558    -1.207760     1.982752
    7      H      -1.967442    -0.894454     1.508657
    8      H       0.298586    -2.138301     1.634130
    9      H      -1.976608     0.877600     1.422084
   10      H       1.806714    -1.200668     1.649367
   11      H      -1.551233     0.066921     2.947310
   12      H       0.763328    -1.208441     3.079156
 ----------------------------------------------------
 Nuclear Repulsion Energy =   134.3979926221 hartrees
 There are       18 alpha and       17 beta electrons
 Requested basis set is G3large
 There are 88 shells and 248 basis functions

Total QAlloc Memory Limit   2000 MB
Mega-Array Size       743 MB
MEM_STATIC part       760 MB

                       Distance Matrix (Angstroms)
             O (  1)   C (  2)   H (  3)   H (  4)   C (  5)   C (  6)
   C (  2)  1.431118
   H (  3)  0.969878  1.955736
   H (  4)  2.079163  1.103773  2.328453
   C (  5)  2.364005  1.523937  3.212552  2.148110
   C (  6)  2.443039  1.530174  2.580844  2.154707  2.540539
   H (  7)  2.635701  2.162611  3.522521  3.063836  1.095877  2.786558
   H (  8)  2.707742  2.168571  2.945335  3.069568  2.790476  1.095838
   H (  9)  2.588336  2.162693  3.482398  2.489048  1.094487  3.486424
   H ( 10)  2.725111  2.180241  2.447185  2.505376  3.494491  1.098015
   H ( 11)  3.331282  2.170171  4.077912  2.486833  1.095451  2.810617
   H ( 12)  3.394731  2.181519  3.584965  2.499906  2.819024  1.096408
             H (  7)   H (  8)   H (  9)   H ( 10)   H ( 11)
   H (  8)  2.588007
   H (  9)  1.774192  3.783799
   H ( 10)  3.789170  1.775904  4.322543
   H ( 11)  1.779661  3.163745  1.778892  3.816706
   H ( 12)  3.165779  1.780091  3.821610  1.770031  2.645964
 
 A cutoff of  1.0D-08 yielded   3639 shell pairs
 There are  28920 function pairs ( 34904 Cartesian)
Evaluating contribution to one-electron hamiltonian from nuclear
 Smallest overlap matrix eigenvalue = 4.89E-05

 Q-Chem warning in module mkSTV.C, line 194:

 Overlap eigenvalue is smaller than square root of threshold

 Multipole matrices computed through 2nd order

  Scale SEOQF with 1.000000e-01/1.000000e-01/1.000000e-01

 Standard Electronic Orientation quadrupole field applied
 Nucleus-field energy     =    -0.0000000069 hartrees
 Guess from superposition of atomic densities
 Warning:  Energy on first SCF cycle will be non-variational
 Long-range K will be added via erf
 Coulomb attenuation parameter = 0.5 bohr**(-1)
 An unrestricted Kohn-Sham SCF calculation will be
 performed using Pulay DIIS extrapolation
 Exchange:  wPBE + LR-HF      Correlation:  PBE
 Using SG-1 standard quadrature grid
 SCF converges when DIIS error is below 1.0E-05
 Requested basis set is G3large
 There are 88 shells and 248 basis functions
 A cutoff of  1.0D-08 yielded   3639 shell pairs
 There are  28920 function pairs ( 34904 Cartesian)
 Warning!  Inaccurate integrated density:
   Number of electrons =    35
   Numerical integral  =    34.000227111547
   Relative error      =    -2.8564939670 %
 ---------------------------------------
  Cycle       Energy         DIIS Error
 ---------------------------------------
    1    -195.2520587715      2.76E-02
    2    -194.1467017358      3.93E-03
    3    -194.2271790544      3.21E-03
    4    -194.2843036450      5.13E-04
    5    -194.2879328300      2.28E-04
    6    -194.2891819655      6.36E-05
    7    -194.2896046774      2.99E-05
    8    -194.2898531909      2.05E-05
    9    -194.2899997423      1.50E-05
   10    -194.2901264002      8.54E-06 Convergence criterion met
 ---------------------------------------
 One-Electron    Energy =  -533.4150764823
 Total Coulomb   Energy =   232.5899170104
 Alpha Exchange  Energy =    -4.0974218425
 Beta  Exchange  Energy =    -4.0262559318
 DFT   Exchange  Energy =   -18.6252207668
 DFT Correlation Energy =    -1.1140610023
 Nuclear Repu.   Energy =   134.3979926152
 Nuclear Attr.   Energy =  -726.7812399261
 Kinetic         Energy =   193.3661634438
 <S^2> = 0.7502
 SCF time:  CPU 291.82 s  wall 293.99 s
 Final Alpha MO Eigenvalues
            1           2           3           4           5           6
    1 -18.8712734 -10.0785509 -10.0246491 -10.0095310  -1.0640700  -0.8295816
            7           8           9          10          11          12
    1  -0.7439022  -0.6225957  -0.5363165  -0.4756719  -0.4522708  -0.4032143
           13          14          15          16          17          18
    1  -0.3996689  -0.3788285  -0.3639779  -0.3294653  -0.2791500   0.0262725
           19          20          21          22          23
    1   0.1314707   0.1402751   0.1438428   0.1687720   0.1756272
 Final Beta MO Eigenvalues
            1           2           3           4           5           6
    1 -18.8710539 -10.0783303 -10.0245960 -10.0091272  -1.0634255  -0.8288976
            7           8           9          10          11          12
    1  -0.7429742  -0.6216023  -0.5349496  -0.4745075  -0.4519272  -0.4029705
           13          14          15          16          17          18
    1  -0.3993939  -0.3785201  -0.3633726  -0.3289890  -0.2785107   0.1320913
           19          20          21          22
    1   0.1495455   0.1533872   0.1577398   0.1734308
 Analysis of SCF Wavefunction
 
 --------------------------------------------------------------
                    Orbital Energies (a.u.)
 --------------------------------------------------------------
 
 Alpha MOs
 -- Occupied --
-18.871 -10.079 -10.025 -10.010  -1.064  -0.830  -0.744  -0.623
 -0.536  -0.476  -0.452  -0.403  -0.400  -0.379  -0.364  -0.329
 -0.279   0.026
 -- Virtual --
  0.131   0.140   0.144   0.169   0.176   0.179   0.187   0.237
  0.243   0.266   0.276   0.278   0.281   0.283   0.296   0.303
  0.306   0.325   0.341   0.370   0.388   0.404   0.412   0.427
  0.432   0.459   0.469   0.474   0.486   0.493   0.515   0.537
  0.553   0.581   0.633   0.652   0.684   0.706   0.717   0.725
  0.765   0.777   0.792   0.802   0.805   0.809   0.818   0.852
  0.857   0.878   0.886   0.904   0.916   0.952   0.990   1.041
  1.056   1.104   1.110   1.153   1.180   1.201   1.220   1.243
  1.281   1.314   1.324   1.357   1.376   1.392   1.409   1.428
  1.443   1.473   1.485   1.518   1.540   1.551   1.563   1.583
  1.587   1.608   1.622   1.662   1.703   1.710   1.724   1.743
  1.754   1.797   1.803   1.835   1.850   1.862   1.906   1.907
  2.035   2.144   2.314   2.348   2.546   2.606   2.662   2.782
  2.806   2.845   2.849   2.915   2.962   2.985   3.078   3.099
  3.113   3.146   3.196   3.210   3.222   3.253   3.290   3.378
  3.398   3.430   3.437   3.469   3.501   3.559   3.592   3.602
  3.612   3.638   3.684   3.715   3.789   3.819   3.826   3.853
  3.872   3.913   3.953   3.977   4.010   4.042   4.076   4.096
  4.133   4.166   4.249   4.252   4.266   4.277   4.315   4.380
  4.414   4.461   4.470   4.487   4.495   4.518   4.556   4.583
  4.603   4.612   4.698   4.719   4.754   4.825   4.848   4.881
  4.888   4.933   4.993   5.110   5.340   5.453   5.488   5.558
  5.636   5.667   5.753   5.805   5.838   5.905   5.924   5.951
  5.972   6.109   6.192   6.696   7.259   7.420   7.497   7.544
  7.835   7.948  24.326  24.432  24.536  27.784  27.956  28.261
 28.298  28.328  28.349  28.365  28.550  28.658  41.118  41.169
 41.180  41.185  41.216  41.221  41.341  41.369  41.381  41.396
 41.402  41.423  41.427  41.465  41.498  44.023  44.048  44.096
 44.136  44.203  45.897  46.212  46.587  50.093
 
 Beta MOs
 -- Occupied --
-18.871 -10.078 -10.025 -10.009  -1.063  -0.829  -0.743  -0.622
 -0.535  -0.475  -0.452  -0.403  -0.399  -0.379  -0.363  -0.329
 -0.279
 -- Virtual --
  0.132   0.150   0.153   0.158   0.173   0.183   0.186   0.193
  0.237   0.243   0.263   0.276   0.276   0.280   0.284   0.296
  0.304   0.307   0.325   0.340   0.370   0.387   0.404   0.412
  0.427   0.431   0.457   0.468   0.474   0.485   0.491   0.512
  0.536   0.551   0.580   0.632   0.651   0.683   0.705   0.716
  0.724   0.764   0.776   0.792   0.801   0.804   0.807   0.817
  0.850   0.857   0.877   0.886   0.904   0.914   0.952   0.991
  1.041   1.056   1.104   1.110   1.153   1.180   1.201   1.220
  1.243   1.281   1.314   1.324   1.358   1.376   1.392   1.409
  1.428   1.443   1.473   1.485   1.518   1.540   1.551   1.564
  1.583   1.586   1.608   1.622   1.663   1.703   1.709   1.724
  1.743   1.753   1.797   1.803   1.835   1.850   1.862   1.905
  1.907   2.035   2.144   2.314   2.348   2.546   2.606   2.662
  2.782   2.806   2.845   2.849   2.915   2.962   2.985   3.078
  3.099   3.114   3.146   3.196   3.210   3.222   3.253   3.290
  3.378   3.398   3.430   3.437   3.469   3.501   3.559   3.593
  3.603   3.612   3.639   3.684   3.716   3.790   3.820   3.826
  3.853   3.872   3.913   3.953   3.977   4.010   4.042   4.076
  4.096   4.133   4.167   4.249   4.252   4.266   4.278   4.315
  4.380   4.414   4.461   4.470   4.488   4.495   4.518   4.556
  4.583   4.604   4.612   4.698   4.719   4.754   4.825   4.848
  4.881   4.888   4.933   4.994   5.110   5.340   5.453   5.488
  5.559   5.636   5.667   5.753   5.806   5.838   5.905   5.925
  5.951   5.972   6.109   6.192   6.696   7.260   7.421   7.497
  7.544   7.836   7.949  24.326  24.432  24.536  27.784  27.956
 28.262  28.298  28.328  28.349  28.365  28.550  28.659  41.118
 41.169  41.180  41.185  41.217  41.222  41.341  41.369  41.381
 41.396  41.402  41.423  41.427  41.465  41.498  44.024  44.048
 44.096  44.136  44.204  45.897  46.212  46.587  50.093
 --------------------------------------------------------------
 
          Ground-State Mulliken Net Atomic Charges

     Atom                 Charge (a.u.)    Spin (a.u.)
  --------------------------------------------------------
      1 O                    -0.385529       0.069292
      2 C                     0.154977      -0.141514
      3 H                    -0.223103       0.495053
      4 H                    -0.867108       0.961662
      5 C                     0.434005      -0.727770
      6 C                     1.993447      -2.286480
      7 H                     0.077012       0.008585
      8 H                    -0.180838       0.270434
      9 H                    -0.075760       0.170056
     10 H                    -1.542750       1.646469
     11 H                    -0.062099       0.139102
     12 H                    -0.322253       0.395112
  --------------------------------------------------------
  Sum of atomic charges =    -1.000000
  Sum of spin   charges =     1.000000

 -----------------------------------------------------------------
                    Cartesian Multipole Moments
 -----------------------------------------------------------------
    Charge (ESU x 10^10)
                -4.8032
    Dipole Moment (Debye)
         X      -7.8935      Y       0.5423      Z      -6.0120
       Tot       9.9371
    Quadrupole Moments (Debye-Ang)
        XX     -65.8249     XY       4.2191     YY     -49.8463
        XZ     -11.3781     YZ       0.0150     ZZ     -62.0659
    Octapole Moments (Debye-Ang^2)
       XXX    -119.2956    XXY      25.5555    XYY     -32.7368
       YYY      38.1213    XXZ     -93.1769    XYZ       4.7003
       YYZ     -74.6597    XZZ     -45.8256    YZZ      13.9902
       ZZZ    -246.6490
    Hexadecapole Moments (Debye-Ang^3)
      XXXX    -845.9347   XXXY     115.5764   XXYY    -205.7829
      XYYY      73.2058   YYYY    -403.6279   XXXZ    -140.0888
      XXYZ      38.5538   XYYZ     -39.8384   YYYZ      67.3966
      XXZZ    -341.2210   XYZZ      30.2019   YYZZ    -262.2792
      XZZZ    -131.4557   YZZZ      77.4871   ZZZZ   -1188.7277
 -----------------------------------------------------------------
 Total job time:  294.39s(wall), 292.19s(cpu) 
 Mon Jun  3 17:08:45 2013

        *************************************************************
        *                                                           *
        *  Thank you very much for using Q-Chem.  Have a nice day.  *
        *                                                           *
        *************************************************************


0 sent ACK to 0 
now end server 0 ... 
 
**********************************************************************
Job 2 of 3 
**********************************************************************
 
Process 0 of 1 is on cl049.stfx.acenet.ca - thread support 1
initial socket setup ...start
initial socket setup ...done 
now start server 0 ... 

cmd = /usr/bin/ssh clhead /usr/local/qchem/bin/get_hostid 654401845 > /scratch/tmp/6027734.1.short.q/qchem26832/lic.dat
                  Welcome to Q-Chem
     A Quantum Leap Into The Future Of Chemistry

 Y. Shao, L. Fusti-Molnar, Y. Jung, J. Kussmann, C. Ochsenfeld,
 S. T. Brown, A. T. B. Gilbert, L. V. Slipchenko,S. V. Levchenko,
 D. P. O'Neill, R. A. DiStasio Jr., R. C. Lochan, T. Wang,
 G. J. O. Beran, N. A. Besley, J. M. Herbert, C. Y. Lin,
 T. Van Voorhis, S. H. Chien, A. Sodt, R. P. Steele, 
 V. A. Rassolov, P. E. Maslen, P. P. Korambath, R. D. Adamson,
 B. Austin, J. Baker, E. F. C. Byrd, H. Dachsel, R. J. Doerksen,
 A. Dreuw, B. D. Dunietz, A. D. Dutoi, T. R. Furlani,
 S. R. Gwaltney, A. Heyden, S. Hirata, C.-P. Hsu, G. Kedziora,
 R. Z. Khaliullin, P. Klunzinger, A. M. Lee, M. S. Lee, W. Liang,
 I. Lotan, N. Nair, B. Peters, E. I. Proynov, P. A. Pieniazek, 
 Y. M. Rhee, J. Ritchie, E. Rosta, C. D. Sherrill, 
 A. C. Simmonett, J. E. Subotnik, H. L. Woodcock III,
 W. Zhang, A. T. Bell, A. K. Chakraborty, D. M. Chipman,
 F. J. Keil, A. Warshel, W. J. Hehre, H. F. Schaefer III,
 J. Kong, A. I. Krylov, P. M. W. Gill, M. Head-Gordon,
 Q-Chem, Version 3.1, Q-Chem, Inc., Pittsburgh, PA (2007).

 Additional authors for Version 3.1: 
 Z. Gan, Y. Zhao, N. E. Schultz, D. Truhlar, E. Epifanovsky and M. Oana.

 Additional authors for Version 3.2: 
 R. Baer, B. R. Brooks, D. Casanova, J.-D. Chai, C.-L. Cheng, 
 C. Cramer, D. Crittenden, A. Ghysels, G. Hawkins, E. G. Hohenstein, 
 C. Kelley, W. Kurlancheek, D. Liotard, E. Livshits, P. Manohar, 
 A. Marenich, D. Neuhauser, R. Olson, M. A. Rohrdanz, K. S. Thanthiriwatte, 
 A. J. W. Thom, V. Vanovschi, C. F. Williams, Q. Wu and Z.-Q. You. 


 Intel X86 Linux Version

 Q-chem begins on Mon Jun  3 17:08:48 2013  

 Parallel job on  1  processors
Processing $rem in /usr/local/qchem/config/preferences.

theFileMan(): MAXOPENFILES=974 MAX_SUB_FILE_NUM=16
Maximum size of a physical file is 2.0 GB, maximum size of a tmp-file is 32.0 GB


--------------------------------------------------------------
User input:
--------------------------------------------------------------

$molecule
0,1
O
C1,O,r1
H1,C1,r2,O,a1
H,O,roh,C1,aoh,H1,toh,0
C2,C1,r3a,O,a2a,H1,t1a,0
C3,C1,r3b,O,a2b,H1,-t1b,0
H,C2,r4a,C1,a4a,H1,t2a,0
H,C3,r5a,C1,a5a,H1,-t2b,0
H,C2,r4b,C1,a4b,H1,t3a,0
H,C3,r5b,C1,a5b,H1,-t3b,0
H,C2,r4c,C1,a4c,H1,-t4a,0
H,C3,r5c,C1,a5c,H1,t4b,0

r1=1.43111827
r2=1.9557364
roh=2.07916264
r3a=1.52393712
r3b=1.53017411
r4a=1.09587708
r5a=1.09583825
r4b=1.09448657
r5b=1.09801539
r4c=1.0954512
r5c=1.0964078
a1=28.22171182
aoh=30.02045037
a2a=106.21524706
a2b=111.13113306
a4a=110.2041443
a5a=110.24366741
a4b=110.29321839
a5b=111.03931704
a4c=110.82961388
a5c=111.23833611
toh=-62.32359188
t1a=179.44473237
t1b=57.80032287
t2a=63.0172795
t2b=83.272013
t3a=-56.37337218
t3b=-36.4963859
t4a=176.72748761
t4b=156.21533884

$end

$comment
neutral
$end

$xc_functional
C PBE   1.00
X wPBE  1.00
$end


$rem
SYMMETRY_DECOMPOSITION	0
LRC_DFT                 true
exchange 		general
BASIS                   g3large
omega			500
mem_static              760
max_scf_cycles          200
scf_final_print         1
sym_ignore              true
$end

--------------------------------------------------------------
 Writing REM_CC_EA           12
 ----------------------------------------------------
       Standard Nuclear Orientation (Angstroms)
    I     Atom         X            Y            Z
 ----------------------------------------------------
    1      O       0.000000     0.000000     0.000000
    2      C       0.000000     0.000000     1.431118
    3      H       0.924838     0.000000    -0.292129
    4      H       0.483161     0.921207     1.800236
    5      C      -1.463245     0.014181     1.856673
    6      C       0.760558    -1.207760     1.982752
    7      H      -1.967442    -0.894454     1.508657
    8      H       0.298586    -2.138301     1.634130
    9      H      -1.976608     0.877600     1.422084
   10      H       1.806714    -1.200668     1.649367
   11      H      -1.551233     0.066921     2.947310
   12      H       0.763328    -1.208441     3.079156
 ----------------------------------------------------
 Nuclear Repulsion Energy =   134.3979926221 hartrees
 There are       17 alpha and       17 beta electrons
 Requested basis set is G3large
 There are 88 shells and 248 basis functions

Total QAlloc Memory Limit   2000 MB
Mega-Array Size       743 MB
MEM_STATIC part       760 MB

                       Distance Matrix (Angstroms)
             O (  1)   C (  2)   H (  3)   H (  4)   C (  5)   C (  6)
   C (  2)  1.431118
   H (  3)  0.969878  1.955736
   H (  4)  2.079163  1.103773  2.328453
   C (  5)  2.364005  1.523937  3.212552  2.148110
   C (  6)  2.443039  1.530174  2.580844  2.154707  2.540539
   H (  7)  2.635701  2.162611  3.522521  3.063836  1.095877  2.786558
   H (  8)  2.707742  2.168571  2.945335  3.069568  2.790476  1.095838
   H (  9)  2.588336  2.162693  3.482398  2.489048  1.094487  3.486424
   H ( 10)  2.725111  2.180241  2.447185  2.505376  3.494491  1.098015
   H ( 11)  3.331282  2.170171  4.077912  2.486833  1.095451  2.810617
   H ( 12)  3.394731  2.181519  3.584965  2.499906  2.819024  1.096408
             H (  7)   H (  8)   H (  9)   H ( 10)   H ( 11)
   H (  8)  2.588007
   H (  9)  1.774192  3.783799
   H ( 10)  3.789170  1.775904  4.322543
   H ( 11)  1.779661  3.163745  1.778892  3.816706
   H ( 12)  3.165779  1.780091  3.821610  1.770031  2.645964
 
 A cutoff of  1.0D-08 yielded   3639 shell pairs
 There are  28920 function pairs ( 34904 Cartesian)
Evaluating contribution to one-electron hamiltonian from nuclear
 Smallest overlap matrix eigenvalue = 4.89E-05

 Q-Chem warning in module mkSTV.C, line 194:

 Overlap eigenvalue is smaller than square root of threshold

 Multipole matrices computed through 2nd order

  Scale SEOQF with 1.000000e-01/1.000000e-01/1.000000e-01

 Standard Electronic Orientation quadrupole field applied
 Nucleus-field energy     =    -0.0000000069 hartrees
 Guess from superposition of atomic densities
 Warning:  Energy on first SCF cycle will be non-variational
 Long-range K will be added via erf
 Coulomb attenuation parameter = 0.5 bohr**(-1)
 A restricted Kohn-Sham SCF calculation will be
 performed using Pulay DIIS extrapolation
 Exchange:  wPBE + LR-HF      Correlation:  PBE
 Using SG-1 standard quadrature grid
 SCF converges when DIIS error is below 1.0E-05
 Requested basis set is G3large
 There are 88 shells and 248 basis functions
 A cutoff of  1.0D-08 yielded   3639 shell pairs
 There are  28920 function pairs ( 34904 Cartesian)
 ---------------------------------------
  Cycle       Energy         DIIS Error
 ---------------------------------------
    1    -195.2520587715      2.76E-02
    2    -194.2184561588      3.70E-03
    3    -194.2810241944      2.75E-03
    4    -194.3192969781      5.11E-04
    5    -194.3208685793      1.75E-04
    6    -194.3211315763      4.08E-05
    7    -194.3211440810      7.71E-06 Convergence criterion met
 ---------------------------------------
 One-Electron    Energy =  -529.0156816414
 Total Coulomb   Energy =   228.0801455143
 Alpha Exchange  Energy =    -4.0282748876
 Beta  Exchange  Energy =    -4.0282748876
 DFT   Exchange  Energy =   -18.6205435185
 DFT Correlation Energy =    -1.1065072753
 Nuclear Repu.   Energy =   134.3979926152
 Nuclear Attr.   Energy =  -722.3221537797
 Kinetic         Energy =   193.3064721383
 SCF time:  CPU 156.52 s  wall 157.99 s
 Final Alpha MO Eigenvalues
            1           2           3           4           5           6
    1 -19.0060124 -10.2117559 -10.1489055 -10.1418468  -1.1984536  -0.9587432
            7           8           9          10          11          12
    1  -0.8725678  -0.7521453  -0.6683591  -0.6050418  -0.5850055  -0.5323809
           13          14          15          16          17          18
    1  -0.5197941  -0.5101281  -0.4938638  -0.4603061  -0.4125092   0.0376599
           19          20          21          22
    1   0.0549774   0.0576339   0.0625606   0.0826193
 Analysis of SCF Wavefunction
 
 --------------------------------------------------------------
                    Orbital Energies (a.u.)
 --------------------------------------------------------------
 
 Alpha MOs
 -- Occupied --
-19.006 -10.212 -10.149 -10.142  -1.198  -0.959  -0.873  -0.752
 -0.668  -0.605  -0.585  -0.532  -0.520  -0.510  -0.494  -0.460
 -0.413
 -- Virtual --
  0.038   0.055   0.058   0.063   0.083   0.086   0.092   0.098
  0.135   0.144   0.162   0.168   0.174   0.176   0.182   0.188
  0.196   0.200   0.224   0.231   0.256   0.270   0.284   0.291
  0.307   0.312   0.337   0.345   0.357   0.366   0.378   0.400
  0.417   0.433   0.462   0.513   0.532   0.559   0.578   0.595
  0.605   0.644   0.651   0.672   0.676   0.680   0.685   0.693
  0.722   0.730   0.748   0.759   0.785   0.791   0.822   0.865
  0.912   0.928   0.977   0.980   1.024   1.053   1.074   1.092
  1.113   1.154   1.188   1.199   1.228   1.247   1.268   1.281
  1.297   1.318   1.345   1.359   1.395   1.409   1.424   1.434
  1.456   1.461   1.479   1.491   1.529   1.575   1.586   1.594
  1.612   1.631   1.669   1.677   1.708   1.724   1.734   1.775
  1.777   1.906   2.010   2.182   2.216   2.414   2.473   2.535
  2.650   2.674   2.718   2.723   2.782   2.836   2.855   2.948
  2.968   2.983   3.015   3.070   3.080   3.093   3.123   3.161
  3.251   3.265   3.306   3.307   3.339   3.371   3.433   3.463
  3.471   3.487   3.508   3.555   3.586   3.661   3.686   3.702
  3.727   3.740   3.782   3.823   3.844   3.879   3.906   3.944
  3.969   4.003   4.037   4.114   4.123   4.138   4.150   4.189
  4.250   4.281   4.330   4.339   4.361   4.369   4.389   4.423
  4.451   4.474   4.480   4.574   4.585   4.627   4.695   4.724
  4.745   4.763   4.802   4.864   4.981   5.207   5.321   5.355
  5.426   5.507   5.536   5.620   5.672   5.704   5.773   5.802
  5.822   5.843   5.976   6.059   6.563   7.126   7.283   7.364
  7.411   7.702   7.815  24.195  24.304  24.406  27.653  27.825
 28.128  28.173  28.197  28.223  28.234  28.419  28.528  40.988
 41.037  41.046  41.061  41.079  41.098  41.208  41.238  41.256
 41.261  41.271  41.288  41.305  41.346  41.362  43.889  43.914
 43.961  44.001  44.069  45.762  46.078  46.452  49.958
 --------------------------------------------------------------
 
          Ground-State Mulliken Net Atomic Charges

     Atom                 Charge (a.u.)
  ----------------------------------------
      1 O                    -0.293103
      2 C                     0.001693
      3 H                     0.247310
      4 H                     0.078473
      5 C                    -0.279934
      6 C                    -0.306385
      7 H                     0.100924
      8 H                     0.115737
      9 H                     0.104661
     10 H                     0.073459
     11 H                     0.077879
     12 H                     0.079285
  ----------------------------------------
  Sum of atomic charges =     0.000000

 -----------------------------------------------------------------
                    Cartesian Multipole Moments
 -----------------------------------------------------------------
    Charge (ESU x 10^10)
                 0.0000
    Dipole Moment (Debye)
         X       1.3391      Y      -0.0570      Z       1.1565
       Tot       1.7703
    Quadrupole Moments (Debye-Ang)
        XX     -24.7259     XY       0.1281     YY     -26.6753
        XZ      -0.9633     YZ      -0.0382     ZZ     -24.6199
    Octapole Moments (Debye-Ang^2)
       XXX      16.2219    XXY       9.1351    XYY       3.6593
       YYY      26.4709    XXZ     -38.2048    XYZ       0.2105
       YYZ     -37.0913    XZZ       4.8522    YZZ       8.9542
       ZZZ    -106.8960
    Hexadecapole Moments (Debye-Ang^3)
      XXXX    -178.4263   XXXY      21.8406   XXYY     -48.7787
      XYYY      24.7427   YYYY    -116.6578   XXXZ      27.8804
      XXYZ      18.5709   XYYZ       8.4142   YYYZ      55.0506
      XXZZ    -109.1410   XYZZ       7.6132   YYZZ     -98.5865
      XZZZ      26.0608   YZZZ      53.1048   ZZZZ    -436.6501
 -----------------------------------------------------------------
 Total job time:  158.37s(wall), 156.85s(cpu) 
 Mon Jun  3 17:11:27 2013

        *************************************************************
        *                                                           *
        *  Thank you very much for using Q-Chem.  Have a nice day.  *
        *                                                           *
        *************************************************************


0 sent ACK to 0 
now end server 0 ... 
 
**********************************************************************
Job 3 of 3 
**********************************************************************
 
Process 0 of 1 is on cl049.stfx.acenet.ca - thread support 1
initial socket setup ...start
initial socket setup ...done 
now start server 0 ... 

cmd = /usr/bin/ssh clhead /usr/local/qchem/bin/get_hostid 13172527 > /scratch/tmp/6027734.1.short.q/qchem26832/lic.dat
                  Welcome to Q-Chem
     A Quantum Leap Into The Future Of Chemistry

 Y. Shao, L. Fusti-Molnar, Y. Jung, J. Kussmann, C. Ochsenfeld,
 S. T. Brown, A. T. B. Gilbert, L. V. Slipchenko,S. V. Levchenko,
 D. P. O'Neill, R. A. DiStasio Jr., R. C. Lochan, T. Wang,
 G. J. O. Beran, N. A. Besley, J. M. Herbert, C. Y. Lin,
 T. Van Voorhis, S. H. Chien, A. Sodt, R. P. Steele, 
 V. A. Rassolov, P. E. Maslen, P. P. Korambath, R. D. Adamson,
 B. Austin, J. Baker, E. F. C. Byrd, H. Dachsel, R. J. Doerksen,
 A. Dreuw, B. D. Dunietz, A. D. Dutoi, T. R. Furlani,
 S. R. Gwaltney, A. Heyden, S. Hirata, C.-P. Hsu, G. Kedziora,
 R. Z. Khaliullin, P. Klunzinger, A. M. Lee, M. S. Lee, W. Liang,
 I. Lotan, N. Nair, B. Peters, E. I. Proynov, P. A. Pieniazek, 
 Y. M. Rhee, J. Ritchie, E. Rosta, C. D. Sherrill, 
 A. C. Simmonett, J. E. Subotnik, H. L. Woodcock III,
 W. Zhang, A. T. Bell, A. K. Chakraborty, D. M. Chipman,
 F. J. Keil, A. Warshel, W. J. Hehre, H. F. Schaefer III,
 J. Kong, A. I. Krylov, P. M. W. Gill, M. Head-Gordon,
 Q-Chem, Version 3.1, Q-Chem, Inc., Pittsburgh, PA (2007).

 Additional authors for Version 3.1: 
 Z. Gan, Y. Zhao, N. E. Schultz, D. Truhlar, E. Epifanovsky and M. Oana.

 Additional authors for Version 3.2: 
 R. Baer, B. R. Brooks, D. Casanova, J.-D. Chai, C.-L. Cheng, 
 C. Cramer, D. Crittenden, A. Ghysels, G. Hawkins, E. G. Hohenstein, 
 C. Kelley, W. Kurlancheek, D. Liotard, E. Livshits, P. Manohar, 
 A. Marenich, D. Neuhauser, R. Olson, M. A. Rohrdanz, K. S. Thanthiriwatte, 
 A. J. W. Thom, V. Vanovschi, C. F. Williams, Q. Wu and Z.-Q. You. 


 Intel X86 Linux Version

 Q-chem begins on Mon Jun  3 17:11:29 2013  

 Parallel job on  1  processors
Processing $rem in /usr/local/qchem/config/preferences.

theFileMan(): MAXOPENFILES=974 MAX_SUB_FILE_NUM=16
Maximum size of a physical file is 2.0 GB, maximum size of a tmp-file is 32.0 GB


--------------------------------------------------------------
User input:
--------------------------------------------------------------

$molecule
1,2
O
C1,O,r1
H1,C1,r2,O,a1
H,O,roh,C1,aoh,H1,toh,0
C2,C1,r3a,O,a2a,H1,t1a,0
C3,C1,r3b,O,a2b,H1,-t1b,0
H,C2,r4a,C1,a4a,H1,t2a,0
H,C3,r5a,C1,a5a,H1,-t2b,0
H,C2,r4b,C1,a4b,H1,t3a,0
H,C3,r5b,C1,a5b,H1,-t3b,0
H,C2,r4c,C1,a4c,H1,-t4a,0
H,C3,r5c,C1,a5c,H1,t4b,0

r1=1.43111827
r2=1.9557364
roh=2.07916264
r3a=1.52393712
r3b=1.53017411
r4a=1.09587708
r5a=1.09583825
r4b=1.09448657
r5b=1.09801539
r4c=1.0954512
r5c=1.0964078
a1=28.22171182
aoh=30.02045037
a2a=106.21524706
a2b=111.13113306
a4a=110.2041443
a5a=110.24366741
a4b=110.29321839
a5b=111.03931704
a4c=110.82961388
a5c=111.23833611
toh=-62.32359188
t1a=179.44473237
t1b=57.80032287
t2a=63.0172795
t2b=83.272013
t3a=-56.37337218
t3b=-36.4963859
t4a=176.72748761
t4b=156.21533884

$end

$comment
positive
$end

$xc_functional
C PBE   1.00
X wPBE  1.00
$end

$rem
SYMMETRY_DECOMPOSITION	0
LRC_DFT                 true
exchange 		general
BASIS                   g3large
omega			500
mem_static              760
max_scf_cycles          200
scf_final_print         1
sym_ignore              true
$end

--------------------------------------------------------------
 Writing REM_CC_EA           12
 ----------------------------------------------------
       Standard Nuclear Orientation (Angstroms)
    I     Atom         X            Y            Z
 ----------------------------------------------------
    1      O       0.000000     0.000000     0.000000
    2      C       0.000000     0.000000     1.431118
    3      H       0.924838     0.000000    -0.292129
    4      H       0.483161     0.921207     1.800236
    5      C      -1.463245     0.014181     1.856673
    6      C       0.760558    -1.207760     1.982752
    7      H      -1.967442    -0.894454     1.508657
    8      H       0.298586    -2.138301     1.634130
    9      H      -1.976608     0.877600     1.422084
   10      H       1.806714    -1.200668     1.649367
   11      H      -1.551233     0.066921     2.947310
   12      H       0.763328    -1.208441     3.079156
 ----------------------------------------------------
 Nuclear Repulsion Energy =   134.3979926221 hartrees
 There are       17 alpha and       16 beta electrons
 Requested basis set is G3large
 There are 88 shells and 248 basis functions

Total QAlloc Memory Limit   2000 MB
Mega-Array Size       743 MB
MEM_STATIC part       760 MB

                       Distance Matrix (Angstroms)
             O (  1)   C (  2)   H (  3)   H (  4)   C (  5)   C (  6)
   C (  2)  1.431118
   H (  3)  0.969878  1.955736
   H (  4)  2.079163  1.103773  2.328453
   C (  5)  2.364005  1.523937  3.212552  2.148110
   C (  6)  2.443039  1.530174  2.580844  2.154707  2.540539
   H (  7)  2.635701  2.162611  3.522521  3.063836  1.095877  2.786558
   H (  8)  2.707742  2.168571  2.945335  3.069568  2.790476  1.095838
   H (  9)  2.588336  2.162693  3.482398  2.489048  1.094487  3.486424
   H ( 10)  2.725111  2.180241  2.447185  2.505376  3.494491  1.098015
   H ( 11)  3.331282  2.170171  4.077912  2.486833  1.095451  2.810617
   H ( 12)  3.394731  2.181519  3.584965  2.499906  2.819024  1.096408
             H (  7)   H (  8)   H (  9)   H ( 10)   H ( 11)
   H (  8)  2.588007
   H (  9)  1.774192  3.783799
   H ( 10)  3.789170  1.775904  4.322543
   H ( 11)  1.779661  3.163745  1.778892  3.816706
   H ( 12)  3.165779  1.780091  3.821610  1.770031  2.645964
 
 A cutoff of  1.0D-08 yielded   3639 shell pairs
 There are  28920 function pairs ( 34904 Cartesian)
Evaluating contribution to one-electron hamiltonian from nuclear
 Smallest overlap matrix eigenvalue = 4.89E-05

 Q-Chem warning in module mkSTV.C, line 194:

 Overlap eigenvalue is smaller than square root of threshold

 Multipole matrices computed through 2nd order

  Scale SEOQF with 1.000000e-01/1.000000e-01/1.000000e-01

 Standard Electronic Orientation quadrupole field applied
 Nucleus-field energy     =    -0.0000000069 hartrees
 Guess from superposition of atomic densities
 Warning:  Energy on first SCF cycle will be non-variational
 Long-range K will be added via erf
 Coulomb attenuation parameter = 0.5 bohr**(-1)
 An unrestricted Kohn-Sham SCF calculation will be
 performed using Pulay DIIS extrapolation
 Exchange:  wPBE + LR-HF      Correlation:  PBE
 Using SG-1 standard quadrature grid
 SCF converges when DIIS error is below 1.0E-05
 Requested basis set is G3large
 There are 88 shells and 248 basis functions
 A cutoff of  1.0D-08 yielded   3639 shell pairs
 There are  28920 function pairs ( 34904 Cartesian)
 Warning!  Inaccurate integrated density:
   Number of electrons =    33
   Numerical integral  =    34.000227111547
   Relative error      =     3.0309912471 %
 ---------------------------------------
  Cycle       Energy         DIIS Error
 ---------------------------------------
    1    -195.2520587715      2.76E-02
    2    -193.8231420428      2.94E-03
    3    -193.8733441354      2.59E-03
    4    -193.9084006276      5.87E-04
    5    -193.9149319593      3.77E-04
    6    -193.9184478828      2.46E-04
    7    -193.9220972293      2.14E-04
    8    -193.9276864439      8.43E-05
    9    -193.9287980442      5.86E-05
   10    -193.9296164546      3.87E-05
   11    -193.9297541790      3.25E-05
   12    -193.9298226098      1.77E-05
   13    -193.9298789070      1.87E-05
   14    -193.9299007246      6.11E-06 Convergence criterion met
 ---------------------------------------
 One-Electron    Energy =  -520.0148744731
 Total Coulomb   Energy =   219.1014105990
 Alpha Exchange  Energy =    -4.0593650306
 Beta  Exchange  Energy =    -3.7845447829
 DFT   Exchange  Energy =   -18.5011531239
 DFT Correlation Energy =    -1.0693665283
 Nuclear Repu.   Energy =   134.3979926152
 Nuclear Attr.   Energy =  -713.0328455767
 Kinetic         Energy =   193.0179711036
 <S^2> = 0.7567
 SCF time:  CPU 401.08 s  wall 404.05 s
 Final Alpha MO Eigenvalues
            1           2           3           4           5           6
    1 -19.4185263 -10.4835846 -10.3829126 -10.3443695  -1.5688855  -1.2184498
            7           8           9          10          11          12
    1  -1.0994795  -1.0230673  -0.9754433  -0.9135929  -0.8630543  -0.8048567
           13          14          15          16          17          18
    1  -0.7590486  -0.7525573  -0.7271371  -0.7029429  -0.6970355  -0.1221660
           19          20          21          22
    1  -0.0804794  -0.0736713  -0.0660126  -0.0472462
 Final Beta MO Eigenvalues
            1           2           3           4           5           6
    1 -19.4000076 -10.4828529 -10.3806644 -10.3443962  -1.5236349  -1.2033292
            7           8           9          10          11          12
    1  -1.0921498  -1.0139394  -0.9469716  -0.8594908  -0.8249285  -0.7605277
           13          14          15          16          17          18
    1  -0.7481088  -0.7258612  -0.7032614  -0.6951735  -0.3688256  -0.1199285
           19          20          21
    1  -0.0787940  -0.0722463  -0.0653637
 Analysis of SCF Wavefunction
 
 --------------------------------------------------------------
                    Orbital Energies (a.u.)
 --------------------------------------------------------------
 
 Alpha MOs
 -- Occupied --
-19.419 -10.484 -10.383 -10.344  -1.569  -1.218  -1.099  -1.023
 -0.975  -0.914  -0.863  -0.805  -0.759  -0.753  -0.727  -0.703
 -0.697
 -- Virtual --
 -0.122  -0.080  -0.074  -0.066  -0.047  -0.039  -0.033  -0.027
 -0.017  -0.009   0.005   0.009   0.021   0.030   0.036   0.040
  0.052   0.061   0.065   0.075   0.081   0.090   0.102   0.112
  0.125   0.136   0.141   0.147   0.158   0.165   0.207   0.214
  0.229   0.241   0.259   0.325   0.345   0.349   0.371   0.395
  0.418   0.431   0.442   0.461   0.482   0.487   0.495   0.506
  0.512   0.518   0.531   0.553   0.595   0.597   0.620   0.647
  0.699   0.720   0.754   0.761   0.804   0.843   0.859   0.873
  0.889   0.932   0.961   0.978   0.996   1.005   1.030   1.062
  1.084   1.103   1.122   1.146   1.175   1.193   1.206   1.218
  1.226   1.254   1.266   1.280   1.289   1.353   1.374   1.388
  1.407   1.425   1.450   1.459   1.496   1.507   1.510   1.554
  1.564   1.625   1.692   1.890   1.920   2.099   2.179   2.323
  2.416   2.423   2.488   2.506   2.555   2.608   2.615   2.696
  2.716   2.744   2.764   2.839   2.858   2.876   2.898   2.925
  3.028   3.034   3.059   3.085   3.098   3.151   3.217   3.227
  3.243   3.267   3.283   3.326   3.350   3.407   3.455   3.487
  3.499   3.505   3.531   3.565   3.592   3.609   3.642   3.706
  3.735   3.777   3.801   3.858   3.889   3.911   3.926   3.966
  4.004   4.023   4.080   4.108   4.135   4.156   4.173   4.185
  4.197   4.231   4.246   4.353   4.358   4.404   4.467   4.500
  4.512   4.540   4.567   4.625   4.749   4.797   4.957   4.988
  5.109   5.198   5.283   5.304   5.334   5.378   5.508   5.567
  5.606   5.629   5.671   5.749   6.218   6.703   6.919   6.965
  6.996   7.328   7.450  23.947  24.082  24.167  27.403  27.575
 27.864  27.952  27.968  28.011  28.019  28.177  28.287  40.723
 40.772  40.810  40.843  40.854  40.885  40.934  40.973  40.999
 41.023  41.053  41.064  41.099  41.114  41.147  43.458  43.475
 43.532  43.602  43.672  45.327  45.675  46.048  49.549
 
 Beta MOs
 -- Occupied --
-19.400 -10.483 -10.381 -10.344  -1.524  -1.203  -1.092  -1.014
 -0.947  -0.859  -0.825  -0.761  -0.748  -0.726  -0.703  -0.695
 -- Virtual --
 -0.369  -0.120  -0.079  -0.072  -0.065  -0.046  -0.038  -0.033
 -0.025  -0.016  -0.008   0.008   0.010   0.022   0.032   0.038
  0.041   0.053   0.065   0.066   0.078   0.084   0.093   0.103
  0.114   0.126   0.142   0.144   0.150   0.163   0.169   0.212
  0.217   0.230   0.243   0.265   0.327   0.347   0.352   0.378
  0.398   0.422   0.435   0.444   0.467   0.485   0.490   0.498
  0.508   0.517   0.522   0.535   0.555   0.598   0.601   0.621
  0.650   0.702   0.724   0.758   0.764   0.806   0.846   0.862
  0.877   0.896   0.937   0.969   0.986   1.008   1.018   1.038
  1.065   1.087   1.107   1.125   1.149   1.177   1.199   1.211
  1.221   1.236   1.257   1.269   1.283   1.295   1.357   1.380
  1.391   1.409   1.428   1.453   1.466   1.500   1.510   1.514
  1.559   1.567   1.646   1.722   1.908   1.935   2.127   2.184
  2.326   2.424   2.427   2.491   2.508   2.559   2.613   2.620
  2.701   2.722   2.750   2.774   2.844   2.859   2.880   2.900
  2.930   3.032   3.037   3.066   3.088   3.102   3.153   3.221
  3.233   3.246   3.268   3.285   3.328   3.354   3.413   3.458
  3.491   3.503   3.506   3.534   3.569   3.594   3.615   3.647
  3.710   3.741   3.780   3.806   3.862   3.892   3.915   3.928
  3.971   4.011   4.028   4.087   4.111   4.138   4.158   4.176
  4.188   4.206   4.240   4.251   4.356   4.364   4.407   4.473
  4.507   4.518   4.544   4.575   4.632   4.755   4.881   5.002
  5.029   5.145   5.217   5.301   5.311   5.375   5.397   5.527
  5.570   5.610   5.635   5.689   5.755   6.236   6.783   6.945
  7.023   7.071   7.362   7.466  23.948  24.084  24.168  27.406
 27.577  27.865  27.953  27.969  28.011  28.019  28.180  28.288
 40.726  40.772  40.813  40.845  40.855  40.885  40.937  40.973
 41.002  41.026  41.054  41.064  41.099  41.118  41.148  43.505
 43.532  43.578  43.611  43.678  45.381  45.687  46.061  49.567
 --------------------------------------------------------------
 
          Ground-State Mulliken Net Atomic Charges

     Atom                 Charge (a.u.)    Spin (a.u.)
  --------------------------------------------------------
      1 O                     0.226481       0.754749
      2 C                    -0.164094       0.014994
      3 H                     0.327918      -0.016729
      4 H                     0.219667       0.122677
      5 C                    -0.224163      -0.006475
      6 C                    -0.202993       0.112325
      7 H                     0.141122       0.010093
      8 H                     0.154734       0.000864
      9 H                     0.136397       0.007203
     10 H                     0.117689      -0.004903
     11 H                     0.124477      -0.001265
     12 H                     0.142765       0.006468
  --------------------------------------------------------
  Sum of atomic charges =     1.000000
  Sum of spin   charges =     1.000000

 -----------------------------------------------------------------
                    Cartesian Multipole Moments
 -----------------------------------------------------------------
    Charge (ESU x 10^10)
                 4.8032
    Dipole Moment (Debye)
         X       1.6220      Y      -0.9337      Z       5.6307
       Tot       5.9336
    Quadrupole Moments (Debye-Ang)
        XX     -18.1518     XY      -0.9070     YY     -20.0429
        XZ      -1.0227     YZ      -2.2751     ZZ     -10.7102
    Octapole Moments (Debye-Ang^2)
       XXX      12.3282    XXY       6.9141    XYY       5.3935
       YYY      19.9585    XXZ     -27.4612    XYZ      -2.3169
       YYZ     -27.0553    XZZ       4.9151    YZZ       2.2762
       ZZZ     -69.6451
    Hexadecapole Moments (Debye-Ang^3)
      XXXX    -144.5259   XXXY      17.4109   XXYY     -39.0383
      XYYY      19.8052   YYYY     -89.7917   XXXZ      18.9804
      XXYZ      13.8107   XYYZ      12.6783   YYYZ      41.3493
      XXZZ     -80.8887   XYZZ       0.4380   YYZZ     -72.3861
      XZZZ      25.4818   YZZZ      31.4683   ZZZZ    -318.1860
 -----------------------------------------------------------------
 Total job time:  404.43s(wall), 401.42s(cpu) 
 Mon Jun  3 17:18:14 2013

        *************************************************************
        *                                                           *
        *  Thank you very much for using Q-Chem.  Have a nice day.  *
        *                                                           *
        *************************************************************


0 sent ACK to 0 
now end server 0 ... 
