Process 0 of 1 is on cl168.stfx.acenet.ca - thread support 1
initial socket setup ...start
initial socket setup ...done 
now start server 0 ... 

cmd = /usr/bin/ssh clhead /usr/local/qchem/bin/get_hostid 197196651 > /scratch/tmp/4789426.1.medium.q/qchem18402/lic.dat
                  Welcome to Q-Chem
     A Quantum Leap Into The Future Of Chemistry

 Y. Shao, L. Fusti-Molnar, Y. Jung, J. Kussmann, C. Ochsenfeld,
 S. T. Brown, A. T. B. Gilbert, L. V. Slipchenko,S. V. Levchenko,
 D. P. O'Neill, R. A. DiStasio Jr., R. C. Lochan, T. Wang,
 G. J. O. Beran, N. A. Besley, J. M. Herbert, C. Y. Lin,
 T. Van Voorhis, S. H. Chien, A. Sodt, R. P. Steele, 
 V. A. Rassolov, P. E. Maslen, P. P. Korambath, R. D. Adamson,
 B. Austin, J. Baker, E. F. C. Byrd, H. Dachsel, R. J. Doerksen,
 A. Dreuw, B. D. Dunietz, A. D. Dutoi, T. R. Furlani,
 S. R. Gwaltney, A. Heyden, S. Hirata, C.-P. Hsu, G. Kedziora,
 R. Z. Khaliullin, P. Klunzinger, A. M. Lee, M. S. Lee, W. Liang,
 I. Lotan, N. Nair, B. Peters, E. I. Proynov, P. A. Pieniazek, 
 Y. M. Rhee, J. Ritchie, E. Rosta, C. D. Sherrill, 
 A. C. Simmonett, J. E. Subotnik, H. L. Woodcock III,
 W. Zhang, A. T. Bell, A. K. Chakraborty, D. M. Chipman,
 F. J. Keil, A. Warshel, W. J. Hehre, H. F. Schaefer III,
 J. Kong, A. I. Krylov, P. M. W. Gill, M. Head-Gordon,
 Q-Chem, Version 3.1, Q-Chem, Inc., Pittsburgh, PA (2007).

 Additional authors for Version 3.1: 
 Z. Gan, Y. Zhao, N. E. Schultz, D. Truhlar, E. Epifanovsky and M. Oana.

 Additional authors for Version 3.2: 
 R. Baer, B. R. Brooks, D. Casanova, J.-D. Chai, C.-L. Cheng, 
 C. Cramer, D. Crittenden, A. Ghysels, G. Hawkins, E. G. Hohenstein, 
 C. Kelley, W. Kurlancheek, D. Liotard, E. Livshits, P. Manohar, 
 A. Marenich, D. Neuhauser, R. Olson, M. A. Rohrdanz, K. S. Thanthiriwatte, 
 A. J. W. Thom, V. Vanovschi, C. F. Williams, Q. Wu and Z.-Q. You. 


 Intel X86 Linux Version

 Q-chem begins on Thu Nov 10 20:08:02 2011  

 Parallel job on  1  processors
Processing $rem in /usr/local/qchem/config/preferences.

theFileMan(): MAXOPENFILES=974 MAX_SUB_FILE_NUM=16
Maximum size of a physical file is 2.0 GB, maximum size of a tmp-file is 32.0 GB


--------------------------------------------------------------
User input:
--------------------------------------------------------------

$molecule
-1,1
C
N,1,R

R=1.17392061

$end

$comment
negative
$end

$xc_functional
   X HF 1.0
   X BNL 1.0
   C LYP 1.0
$end

$rem
SYMMETRY_DECOMPOSITION	0
exchange 		general
BASIS                   g3large
omega			900
separate_jk		true
mem_static              760
max_scf_cycles          200
scf_final_print         1
sym_ignore              true
$end

--------------------------------------------------------------
 Writing REM_CC_EA            2
 ----------------------------------------------------
       Standard Nuclear Orientation (Angstroms)
    I     Atom         X            Y            Z
 ----------------------------------------------------
    1      C       0.000000     0.000000     0.000000
    2      N       0.000000     0.000000     1.173921
 ----------------------------------------------------
 Nuclear Repulsion Energy =    18.9326626215 hartrees
 There are        7 alpha and        7 beta electrons
 Requested basis set is G3large
 There are 20 shells and 84 basis functions

Total QAlloc Memory Limit   2000 MB
Mega-Array Size       743 MB
MEM_STATIC part       760 MB

                       Distance Matrix (Angstroms)
             C (  1)
   N (  2)  1.173921
 
 A cutoff of  1.0D-08 yielded    206 shell pairs
 There are   3662 function pairs (  4809 Cartesian)
Evaluating contribution to one-electron hamiltonian from nuclear
 Smallest overlap matrix eigenvalue = 1.01E-03
 Multipole matrices computed through 2nd order

  Scale SEOQF with 1.000000e-01/1.000000e-01/1.000000e-01

 Standard Electronic Orientation quadrupole field applied
 Nucleus-field energy     =    -0.0000000010 hartrees
 Guess from superposition of atomic densities
 Warning:  Energy on first SCF cycle will be non-variational
 A restricted hybrid HF-DFT SCF calculation will be
 performed using Pulay DIIS extrapolation
 Exchange:     1.0000 Hartree-Fock + 1.0000 BNL
 Correlation:  1.0000 LYP
 Using SG-1 standard quadrature grid
 SCF converges when DIIS error is below 1.0E-05
 Warning!  Inaccurate integrated density:
   Number of electrons =    14
   Numerical integral  =    12.999997383438
   Relative error      =    -7.1428758326 %
 ---------------------------------------
  Cycle       Energy         DIIS Error
 ---------------------------------------
    1     -91.9727319003      4.62E-02
    2     -91.9770928667      7.95E-03
    3     -92.0151454467      6.65E-03
    4     -92.0459070410      1.17E-03
    5     -92.0480866190      5.33E-04
    6     -92.0489726684      2.22E-04
    7     -92.0492506735      6.65E-05
    8     -92.0492774971      9.57E-06 Convergence criterion met
 ---------------------------------------
 One-Electron    Energy =  -166.5914201339
 Total Coulomb   Energy =    67.1757070386
 Alpha Exchange  Energy =    -2.4514305961
 Beta  Exchange  Energy =    -2.4514305961
 DFT   Exchange  Energy =    -6.2009825165
 DFT Correlation Energy =    -0.4623833136
 Nuclear Repu.   Energy =    18.9326626205
 Nuclear Attr.   Energy =  -258.0686043950
 Kinetic         Energy =    91.4771842611
 SCF time:  CPU 7.62 s  wall 8.38 s
 Final Alpha MO Eigenvalues
            1           2           3           4           5           6
    1 -14.0307753  -9.9956118  -0.8828013  -0.3400342  -0.2241571  -0.2241237
            7           8           9          10          11          12
    1  -0.2089066   0.2358760   0.2598956   0.2598979   0.2664527   0.3740624
 Analysis of SCF Wavefunction
 
 --------------------------------------------------------------
                    Orbital Energies (a.u.)
 --------------------------------------------------------------
 
 Alpha MOs
 -- Occupied --
-14.031  -9.996  -0.883  -0.340  -0.224  -0.224  -0.209
 -- Virtual --
  0.236   0.260   0.260   0.266   0.374   0.374   0.380   0.483
  0.483   0.519   0.706   0.933   0.933   1.033   1.062   1.062
  1.156   1.198   1.198   1.264   1.338   1.338   1.567   1.618
  1.618   1.860   2.023   2.023   2.380   3.192   3.192   3.249
  3.305   3.305   3.365   3.365   3.576   3.576   3.786   3.786
  3.875   3.904   3.904   4.190   4.190   4.363   4.380   4.380
  4.609   4.811   4.811   5.351   5.351   5.563   5.563   6.013
  6.155   6.155   6.553  24.894  27.865  27.865  28.557  36.468
 38.074  38.074  38.820  40.993  41.097  41.128  41.209  41.209
 41.375  41.679  41.844  41.844  41.891
 --------------------------------------------------------------
 
          Ground-State Mulliken Net Atomic Charges

     Atom                 Charge (a.u.)
  ----------------------------------------
      1 C                    -0.488600
      2 N                    -0.511400
  ----------------------------------------
  Sum of atomic charges =    -1.000000

 -----------------------------------------------------------------
                    Cartesian Multipole Moments
 -----------------------------------------------------------------
    Charge (ESU x 10^10)
                -4.8032
    Dipole Moment (Debye)
         X      -0.0001      Y       0.0000      Z      -2.6495
       Tot       2.6495
    Quadrupole Moments (Debye-Ang)
        XX     -14.6653     XY      -0.0005     YY     -14.6653
        XZ       0.0002     YZ      -0.0001     ZZ     -20.8170
    Octapole Moments (Debye-Ang^2)
       XXX       0.0000    XXY       0.0000    XYY       0.0000
       YYY      -0.0001    XXZ      -7.9626    XYZ      -0.0002
       YYZ      -7.9627    XZZ       0.0002    YZZ      -0.0001
       ZZZ     -30.7679
    Hexadecapole Moments (Debye-Ang^3)
      XXXX     -21.2036   XXXY      -0.0015   XXYY      -7.0678
      XYYY      -0.0015   YYYY     -21.2036   XXXZ       0.0004
      XXYZ      -0.0001   XYYZ       0.0001   YYYZ      -0.0002
      XXZZ     -17.7425   XYZZ      -0.0007   YYZZ     -17.7425
      XZZZ       0.0007   YZZZ      -0.0004   ZZZZ     -95.9592
 -----------------------------------------------------------------
 Total job time:  8.50s(wall), 7.70s(cpu) 
 Thu Nov 10 20:08:10 2011

        *************************************************************
        *                                                           *
        *  Thank you very much for using Q-Chem.  Have a nice day.  *
        *                                                           *
        *************************************************************


0 sent ACK to 0 
now end server 0 ... 
 
**********************************************************************
Job 2 of 3 
**********************************************************************
 
Process 0 of 1 is on cl168.stfx.acenet.ca - thread support 1
initial socket setup ...start
initial socket setup ...done 
now start server 0 ... 

cmd = /usr/bin/ssh clhead /usr/local/qchem/bin/get_hostid 842867104 > /scratch/tmp/4789426.1.medium.q/qchem18402/lic.dat
                  Welcome to Q-Chem
     A Quantum Leap Into The Future Of Chemistry

 Y. Shao, L. Fusti-Molnar, Y. Jung, J. Kussmann, C. Ochsenfeld,
 S. T. Brown, A. T. B. Gilbert, L. V. Slipchenko,S. V. Levchenko,
 D. P. O'Neill, R. A. DiStasio Jr., R. C. Lochan, T. Wang,
 G. J. O. Beran, N. A. Besley, J. M. Herbert, C. Y. Lin,
 T. Van Voorhis, S. H. Chien, A. Sodt, R. P. Steele, 
 V. A. Rassolov, P. E. Maslen, P. P. Korambath, R. D. Adamson,
 B. Austin, J. Baker, E. F. C. Byrd, H. Dachsel, R. J. Doerksen,
 A. Dreuw, B. D. Dunietz, A. D. Dutoi, T. R. Furlani,
 S. R. Gwaltney, A. Heyden, S. Hirata, C.-P. Hsu, G. Kedziora,
 R. Z. Khaliullin, P. Klunzinger, A. M. Lee, M. S. Lee, W. Liang,
 I. Lotan, N. Nair, B. Peters, E. I. Proynov, P. A. Pieniazek, 
 Y. M. Rhee, J. Ritchie, E. Rosta, C. D. Sherrill, 
 A. C. Simmonett, J. E. Subotnik, H. L. Woodcock III,
 W. Zhang, A. T. Bell, A. K. Chakraborty, D. M. Chipman,
 F. J. Keil, A. Warshel, W. J. Hehre, H. F. Schaefer III,
 J. Kong, A. I. Krylov, P. M. W. Gill, M. Head-Gordon,
 Q-Chem, Version 3.1, Q-Chem, Inc., Pittsburgh, PA (2007).

 Additional authors for Version 3.1: 
 Z. Gan, Y. Zhao, N. E. Schultz, D. Truhlar, E. Epifanovsky and M. Oana.

 Additional authors for Version 3.2: 
 R. Baer, B. R. Brooks, D. Casanova, J.-D. Chai, C.-L. Cheng, 
 C. Cramer, D. Crittenden, A. Ghysels, G. Hawkins, E. G. Hohenstein, 
 C. Kelley, W. Kurlancheek, D. Liotard, E. Livshits, P. Manohar, 
 A. Marenich, D. Neuhauser, R. Olson, M. A. Rohrdanz, K. S. Thanthiriwatte, 
 A. J. W. Thom, V. Vanovschi, C. F. Williams, Q. Wu and Z.-Q. You. 


 Intel X86 Linux Version

 Q-chem begins on Thu Nov 10 20:08:13 2011  

 Parallel job on  1  processors
Processing $rem in /usr/local/qchem/config/preferences.

theFileMan(): MAXOPENFILES=974 MAX_SUB_FILE_NUM=16
Maximum size of a physical file is 2.0 GB, maximum size of a tmp-file is 32.0 GB


--------------------------------------------------------------
User input:
--------------------------------------------------------------

$molecule
0,2
C
N,1,R

R=1.17392061

$end

$comment
neutral
$end

$xc_functional
   X HF 1.0
   X BNL 1.0
   C LYP 1.0
$end

$rem
SYMMETRY_DECOMPOSITION	0
exchange 		general
BASIS                   g3large
omega			900
separate_jk		true
mem_static              760
max_scf_cycles          200
scf_final_print         1
sym_ignore              true
$end

--------------------------------------------------------------
 Writing REM_CC_EA            2
 ----------------------------------------------------
       Standard Nuclear Orientation (Angstroms)
    I     Atom         X            Y            Z
 ----------------------------------------------------
    1      C       0.000000     0.000000     0.000000
    2      N       0.000000     0.000000     1.173921
 ----------------------------------------------------
 Nuclear Repulsion Energy =    18.9326626215 hartrees
 There are        7 alpha and        6 beta electrons
 Requested basis set is G3large
 There are 20 shells and 84 basis functions

Total QAlloc Memory Limit   2000 MB
Mega-Array Size       743 MB
MEM_STATIC part       760 MB

                       Distance Matrix (Angstroms)
             C (  1)
   N (  2)  1.173921
 
 A cutoff of  1.0D-08 yielded    206 shell pairs
 There are   3662 function pairs (  4809 Cartesian)
Evaluating contribution to one-electron hamiltonian from nuclear
 Smallest overlap matrix eigenvalue = 1.01E-03
 Multipole matrices computed through 2nd order

  Scale SEOQF with 1.000000e-01/1.000000e-01/1.000000e-01

 Standard Electronic Orientation quadrupole field applied
 Nucleus-field energy     =    -0.0000000010 hartrees
 Guess from superposition of atomic densities
 Warning:  Energy on first SCF cycle will be non-variational
 An unrestricted hybrid HF-DFT SCF calculation will be
 performed using Pulay DIIS extrapolation
 Exchange:     1.0000 Hartree-Fock + 1.0000 BNL
 Correlation:  1.0000 LYP
 Using SG-1 standard quadrature grid
 SCF converges when DIIS error is below 1.0E-05
 ---------------------------------------
  Cycle       Energy         DIIS Error
 ---------------------------------------
    1     -91.9727319003      4.62E-02
    2     -91.8302358179      5.87E-03
    3     -91.8314262436      7.41E-03
    4     -91.8776081383      9.85E-04
    5     -91.8818641034      6.24E-04
    6     -91.8851224076      4.26E-04
    7     -91.8876964773      2.31E-04
    8     -91.8892314564      1.40E-04
    9     -91.8901859406      4.22E-05
   10     -91.8903077276      2.24E-05
   11     -91.8904483044      2.50E-05
   12     -91.8905260093      1.13E-05
   13     -91.8906002688      5.70E-06 Convergence criterion met
 ---------------------------------------
 One-Electron    Energy =  -162.0459953106
 Total Coulomb   Energy =    62.5101180268
 Alpha Exchange  Energy =    -2.5061459776
 Beta  Exchange  Energy =    -2.1894818755
 DFT   Exchange  Energy =    -6.1699448256
 DFT Correlation Energy =    -0.4218129268
 Nuclear Repu.   Energy =    18.9326626205
 Nuclear Attr.   Energy =  -253.2960676126
 Kinetic         Energy =    91.2500723021
 <S^2> = 0.8228
 SCF time:  CPU 14.25 s  wall 16.13 s
 Final Alpha MO Eigenvalues
            1           2           3           4           5           6
    1 -14.3775350 -10.3972035  -1.2217942  -0.7197606  -0.5937394  -0.5504520
            7           8           9          10          11          12
    1  -0.5504453   0.0672204   0.0771321   0.0771435   0.0927988   0.1232392
 Final Beta MO Eigenvalues
            1           2           3           4           5           6
    1 -14.3819468 -10.3720553  -1.2036819  -0.6134015  -0.5485026  -0.5484842
            7           8           9          10          11
    1  -0.1237426   0.0762760   0.0762835   0.0797705   0.0932214
 Analysis of SCF Wavefunction
 
 --------------------------------------------------------------
                    Orbital Energies (a.u.)
 --------------------------------------------------------------
 
 Alpha MOs
 -- Occupied --
-14.378 -10.397  -1.222  -0.720  -0.594  -0.550  -0.550
 -- Virtual --
  0.067   0.077   0.077   0.093   0.123   0.123   0.199   0.244
  0.244   0.308   0.440   0.627   0.627   0.713   0.747   0.747
  0.867   0.918   0.918   0.945   1.027   1.027   1.292   1.333
  1.333   1.513   1.725   1.725   2.083   2.830   2.830   2.880
  2.953   2.953   3.019   3.019   3.184   3.184   3.390   3.390
  3.457   3.533   3.533   3.888   3.888   3.985   4.055   4.055
  4.281   4.487   4.487   5.044   5.044   5.250   5.250   5.680
  5.804   5.804   6.197  24.496  27.472  27.472  28.149  36.124
 37.731  37.731  38.471  40.653  40.730  40.788  40.860  40.860
 40.982  41.286  41.443  41.443  41.500
 
 Beta MOs
 -- Occupied --
-14.382 -10.372  -1.204  -0.613  -0.549  -0.548
 -- Virtual --
 -0.124   0.076   0.076   0.080   0.093   0.150   0.150   0.199
  0.240   0.240   0.315   0.449   0.647   0.647   0.762   0.762
  0.763   0.883   0.927   0.927   0.969   1.026   1.026   1.292
  1.320   1.320   1.527   1.725   1.725   2.092   2.859   2.859
  2.914   2.976   2.976   3.034   3.034   3.232   3.232   3.442
  3.442   3.509   3.553   3.553   3.874   3.874   4.012   4.048
  4.048   4.286   4.487   4.488   5.017   5.018   5.248   5.248
  5.692   5.814   5.814   6.215  24.524  27.491  27.491  28.176
 36.118  37.723  37.723  38.473  40.638  40.740  40.774  40.858
 40.858  41.002  41.305  41.469  41.469  41.523
 --------------------------------------------------------------
 
          Ground-State Mulliken Net Atomic Charges

     Atom                 Charge (a.u.)    Spin (a.u.)
  --------------------------------------------------------
      1 C                     0.115811       1.286200
      2 N                    -0.115811      -0.286200
  --------------------------------------------------------
  Sum of atomic charges =     0.000000
  Sum of spin   charges =     1.000000

 -----------------------------------------------------------------
                    Cartesian Multipole Moments
 -----------------------------------------------------------------
    Charge (ESU x 10^10)
                 0.0000
    Dipole Moment (Debye)
         X       0.0011      Y      -0.0010      Z      -2.2091
       Tot       2.2091
    Quadrupole Moments (Debye-Ang)
        XX     -11.0409     XY       0.0000     YY     -11.0409
        XZ       0.0000     YZ      -0.0001     ZZ     -13.0030
    Octapole Moments (Debye-Ang^2)
       XXX       0.0015    XXY      -0.0005    XYY       0.0005
       YYY      -0.0014    XXZ      -7.0621    XYZ       0.0000
       YYZ      -7.0622    XZZ       0.0009    YZZ      -0.0009
       ZZZ     -24.0594
    Hexadecapole Moments (Debye-Ang^3)
      XXXX     -11.2517   XXXY       0.0000   XXYY      -3.7506
      XYYY       0.0000   YYYY     -11.2517   XXXZ       0.0001
      XXYZ       0.0000   XYYZ       0.0000   YYYZ      -0.0001
      XXZZ     -11.6917   XYZZ       0.0000   YYZZ     -11.6917
      XZZZ       0.0010   YZZZ      -0.0010   ZZZZ     -64.8115
 -----------------------------------------------------------------
 Total job time:  16.22s(wall), 14.33s(cpu) 
 Thu Nov 10 20:08:29 2011

        *************************************************************
        *                                                           *
        *  Thank you very much for using Q-Chem.  Have a nice day.  *
        *                                                           *
        *************************************************************


0 sent ACK to 0 
now end server 0 ... 
 
**********************************************************************
Job 3 of 3 
**********************************************************************
 
Process 0 of 1 is on cl168.stfx.acenet.ca - thread support 1
initial socket setup ...start
initial socket setup ...done 
now start server 0 ... 

cmd = /usr/bin/ssh clhead /usr/local/qchem/bin/get_hostid 1801824120 > /scratch/tmp/4789426.1.medium.q/qchem18402/lic.dat
                  Welcome to Q-Chem
     A Quantum Leap Into The Future Of Chemistry

 Y. Shao, L. Fusti-Molnar, Y. Jung, J. Kussmann, C. Ochsenfeld,
 S. T. Brown, A. T. B. Gilbert, L. V. Slipchenko,S. V. Levchenko,
 D. P. O'Neill, R. A. DiStasio Jr., R. C. Lochan, T. Wang,
 G. J. O. Beran, N. A. Besley, J. M. Herbert, C. Y. Lin,
 T. Van Voorhis, S. H. Chien, A. Sodt, R. P. Steele, 
 V. A. Rassolov, P. E. Maslen, P. P. Korambath, R. D. Adamson,
 B. Austin, J. Baker, E. F. C. Byrd, H. Dachsel, R. J. Doerksen,
 A. Dreuw, B. D. Dunietz, A. D. Dutoi, T. R. Furlani,
 S. R. Gwaltney, A. Heyden, S. Hirata, C.-P. Hsu, G. Kedziora,
 R. Z. Khaliullin, P. Klunzinger, A. M. Lee, M. S. Lee, W. Liang,
 I. Lotan, N. Nair, B. Peters, E. I. Proynov, P. A. Pieniazek, 
 Y. M. Rhee, J. Ritchie, E. Rosta, C. D. Sherrill, 
 A. C. Simmonett, J. E. Subotnik, H. L. Woodcock III,
 W. Zhang, A. T. Bell, A. K. Chakraborty, D. M. Chipman,
 F. J. Keil, A. Warshel, W. J. Hehre, H. F. Schaefer III,
 J. Kong, A. I. Krylov, P. M. W. Gill, M. Head-Gordon,
 Q-Chem, Version 3.1, Q-Chem, Inc., Pittsburgh, PA (2007).

 Additional authors for Version 3.1: 
 Z. Gan, Y. Zhao, N. E. Schultz, D. Truhlar, E. Epifanovsky and M. Oana.

 Additional authors for Version 3.2: 
 R. Baer, B. R. Brooks, D. Casanova, J.-D. Chai, C.-L. Cheng, 
 C. Cramer, D. Crittenden, A. Ghysels, G. Hawkins, E. G. Hohenstein, 
 C. Kelley, W. Kurlancheek, D. Liotard, E. Livshits, P. Manohar, 
 A. Marenich, D. Neuhauser, R. Olson, M. A. Rohrdanz, K. S. Thanthiriwatte, 
 A. J. W. Thom, V. Vanovschi, C. F. Williams, Q. Wu and Z.-Q. You. 


 Intel X86 Linux Version

 Q-chem begins on Thu Nov 10 20:08:32 2011  

 Parallel job on  1  processors
Processing $rem in /usr/local/qchem/config/preferences.

theFileMan(): MAXOPENFILES=974 MAX_SUB_FILE_NUM=16
Maximum size of a physical file is 2.0 GB, maximum size of a tmp-file is 32.0 GB


--------------------------------------------------------------
User input:
--------------------------------------------------------------

$molecule
1,3
C
N,1,R

R=1.17392061

$end

$comment
positive
$end

$xc_functional
   X HF 1.0
   X BNL 1.0
   C LYP 1.0
$end

$rem
SYMMETRY_DECOMPOSITION	0
exchange 		general
BASIS                   g3large
omega			900
separate_jk		true
mem_static              760
max_scf_cycles          200
scf_final_print         1
sym_ignore              true
$end

--------------------------------------------------------------
 Writing REM_CC_EA            2
 ----------------------------------------------------
       Standard Nuclear Orientation (Angstroms)
    I     Atom         X            Y            Z
 ----------------------------------------------------
    1      C       0.000000     0.000000     0.000000
    2      N       0.000000     0.000000     1.173921
 ----------------------------------------------------
 Nuclear Repulsion Energy =    18.9326626215 hartrees
 There are        7 alpha and        5 beta electrons
 Requested basis set is G3large
 There are 20 shells and 84 basis functions

Total QAlloc Memory Limit   2000 MB
Mega-Array Size       743 MB
MEM_STATIC part       760 MB

                       Distance Matrix (Angstroms)
             C (  1)
   N (  2)  1.173921
 
 A cutoff of  1.0D-08 yielded    206 shell pairs
 There are   3662 function pairs (  4809 Cartesian)
Evaluating contribution to one-electron hamiltonian from nuclear
 Smallest overlap matrix eigenvalue = 1.01E-03
 Multipole matrices computed through 2nd order

  Scale SEOQF with 1.000000e-01/1.000000e-01/1.000000e-01

 Standard Electronic Orientation quadrupole field applied
 Nucleus-field energy     =    -0.0000000010 hartrees
 Guess from superposition of atomic densities
 Warning:  Energy on first SCF cycle will be non-variational
 An unrestricted hybrid HF-DFT SCF calculation will be
 performed using Pulay DIIS extrapolation
 Exchange:     1.0000 Hartree-Fock + 1.0000 BNL
 Correlation:  1.0000 LYP
 Using SG-1 standard quadrature grid
 SCF converges when DIIS error is below 1.0E-05
 Warning!  Inaccurate integrated density:
   Number of electrons =    12
   Numerical integral  =    12.999997383438
   Relative error      =     8.3333115287 %
 ---------------------------------------
  Cycle       Energy         DIIS Error
 ---------------------------------------
    1     -91.9727319003      4.62E-02
    2     -91.2799670223      7.16E-03
    3     -91.3610313666      2.61E-03
    4     -91.3684346130      8.20E-04
    5     -91.3720155708      7.41E-04
    6     -91.3744879710      4.12E-04
    7     -91.3782032279      2.23E-04
    8     -91.3793720312      8.03E-05
    9     -91.3795471366      2.06E-05
   10     -91.3796235821      2.19E-05
   11     -91.3796638073      6.91E-06 Convergence criterion met
 ---------------------------------------
 One-Electron    Energy =  -156.5196196054
 Total Coulomb   Energy =    57.1798937401
 Alpha Exchange  Energy =    -2.5610586049
 Beta  Exchange  Energy =    -1.9083974013
 DFT   Exchange  Energy =    -6.1221556628
 DFT Correlation Energy =    -0.3809888934
 Nuclear Repu.   Energy =    18.9326626205
 Nuclear Attr.   Energy =  -247.5575365855
 Kinetic         Energy =    91.0379169801
 <S^2> = 2.0196
 SCF time:  CPU 12.03 s  wall 13.05 s
 Final Alpha MO Eigenvalues
            1           2           3           4           5           6
    1 -14.8313660 -10.8571893  -1.6874368  -1.1097786  -1.0117755  -0.9937756
            7           8           9          10          11          12
    1  -0.9644849  -0.2926814  -0.2606468  -0.1213314  -0.0820696  -0.0812024
 Final Beta MO Eigenvalues
            1           2           3           4           5           6
    1 -14.8191236 -10.8254803  -1.5940041  -0.9883000  -0.9413814  -0.4865008
            7           8           9          10
    1  -0.4690830  -0.2187583  -0.1676410  -0.1125779
 Analysis of SCF Wavefunction
 
 --------------------------------------------------------------
                    Orbital Energies (a.u.)
 --------------------------------------------------------------
 
 Alpha MOs
 -- Occupied --
-14.831 -10.857  -1.687  -1.110  -1.012  -0.994  -0.964
 -- Virtual --
 -0.293  -0.261  -0.121  -0.082  -0.081  -0.079  -0.001   0.024
  0.030   0.086   0.184   0.317   0.328   0.382   0.394   0.394
  0.548   0.592   0.609   0.619   0.653   0.681   0.951   0.958
  0.968   1.152   1.360   1.384   1.727   2.410   2.432   2.477
  2.549   2.549   2.604   2.607   2.758   2.783   2.974   2.975
  3.080   3.121   3.147   3.465   3.465   3.573   3.612   3.652
  3.867   4.071   4.073   4.592   4.592   4.821   4.855   5.278
  5.358   5.392   5.770  24.041  27.008  27.019  27.696  35.670
 37.265  37.285  38.026  40.186  40.275  40.324  40.393  40.413
 40.519  40.823  40.980  40.989  41.045
 
 Beta MOs
 -- Occupied --
-14.819 -10.825  -1.594  -0.988  -0.941
 -- Virtual --
 -0.487  -0.469  -0.219  -0.168  -0.113  -0.082  -0.077  -0.075
 -0.001   0.029   0.035   0.090   0.195   0.339   0.339   0.419
  0.424   0.438   0.568   0.620   0.622   0.643   0.685   0.686
  0.968   0.976   0.976   1.172   1.380   1.387   1.741   2.448
  2.463   2.521   2.579   2.580   2.635   2.637   2.826   2.836
  3.033   3.037   3.135   3.163   3.174   3.486   3.487   3.616
  3.652   3.661   3.893   4.094   4.095   4.624   4.626   4.859
  4.866   5.301   5.403   5.413   5.807  24.078  27.035  27.041
 27.727  35.685  37.285  37.289  38.038  40.207  40.301  40.343
 40.424  40.424  40.547  40.850  41.015  41.017  41.077
 --------------------------------------------------------------
 
          Ground-State Mulliken Net Atomic Charges

     Atom                 Charge (a.u.)    Spin (a.u.)
  --------------------------------------------------------
      1 C                     0.599838       1.521134
      2 N                     0.400162       0.478866
  --------------------------------------------------------
  Sum of atomic charges =     1.000000
  Sum of spin   charges =     2.000000

 -----------------------------------------------------------------
                    Cartesian Multipole Moments
 -----------------------------------------------------------------
    Charge (ESU x 10^10)
                 4.8032
    Dipole Moment (Debye)
         X      -0.0002      Y       0.0004      Z       0.5225
       Tot       0.5225
    Quadrupole Moments (Debye-Ang)
        XX      -8.2246     XY      -0.6677     YY      -8.2243
        XZ      -0.0008     YZ       0.0008     ZZ      -7.6197
    Octapole Moments (Debye-Ang^2)
       XXX      -0.0001    XXY       0.0001    XYY       0.0000
       YYY       0.0004    XXZ      -5.4775    XYZ      -0.4370
       YYZ      -5.4773    XZZ      -0.0012    YZZ       0.0014
       ZZZ     -16.4864
    Hexadecapole Moments (Debye-Ang^3)
      XXXX      -6.5809   XXXY      -0.4567   XXYY      -2.1934
      XYYY      -0.4567   YYYY      -6.5805   XXXZ      -0.0006
      XXYZ       0.0002   XYYZ      -0.0002   YYYZ       0.0006
      XXZZ      -8.5193   XYZZ      -0.5482   YYZZ      -8.5190
      XZZZ      -0.0020   YZZZ       0.0022   ZZZZ     -47.4429
 -----------------------------------------------------------------
 Total job time:  13.15s(wall), 12.11s(cpu) 
 Thu Nov 10 20:08:45 2011

        *************************************************************
        *                                                           *
        *  Thank you very much for using Q-Chem.  Have a nice day.  *
        *                                                           *
        *************************************************************


0 sent ACK to 0 
now end server 0 ... 
