Process 0 of 1 is on cl209.stfx.acenet.ca - thread support 1
initial socket setup ...start
initial socket setup ...done 
now start server 0 ... 

cmd = /usr/bin/ssh clhead /usr/local/qchem/bin/get_hostid 1943537439 > /scratch/tmp/6063946.1.medium.q/qchem21798/lic.dat
                  Welcome to Q-Chem
     A Quantum Leap Into The Future Of Chemistry

 Y. Shao, L. Fusti-Molnar, Y. Jung, J. Kussmann, C. Ochsenfeld,
 S. T. Brown, A. T. B. Gilbert, L. V. Slipchenko,S. V. Levchenko,
 D. P. O'Neill, R. A. DiStasio Jr., R. C. Lochan, T. Wang,
 G. J. O. Beran, N. A. Besley, J. M. Herbert, C. Y. Lin,
 T. Van Voorhis, S. H. Chien, A. Sodt, R. P. Steele, 
 V. A. Rassolov, P. E. Maslen, P. P. Korambath, R. D. Adamson,
 B. Austin, J. Baker, E. F. C. Byrd, H. Dachsel, R. J. Doerksen,
 A. Dreuw, B. D. Dunietz, A. D. Dutoi, T. R. Furlani,
 S. R. Gwaltney, A. Heyden, S. Hirata, C.-P. Hsu, G. Kedziora,
 R. Z. Khaliullin, P. Klunzinger, A. M. Lee, M. S. Lee, W. Liang,
 I. Lotan, N. Nair, B. Peters, E. I. Proynov, P. A. Pieniazek, 
 Y. M. Rhee, J. Ritchie, E. Rosta, C. D. Sherrill, 
 A. C. Simmonett, J. E. Subotnik, H. L. Woodcock III,
 W. Zhang, A. T. Bell, A. K. Chakraborty, D. M. Chipman,
 F. J. Keil, A. Warshel, W. J. Hehre, H. F. Schaefer III,
 J. Kong, A. I. Krylov, P. M. W. Gill, M. Head-Gordon,
 Q-Chem, Version 3.1, Q-Chem, Inc., Pittsburgh, PA (2007).

 Additional authors for Version 3.1: 
 Z. Gan, Y. Zhao, N. E. Schultz, D. Truhlar, E. Epifanovsky and M. Oana.

 Additional authors for Version 3.2: 
 R. Baer, B. R. Brooks, D. Casanova, J.-D. Chai, C.-L. Cheng, 
 C. Cramer, D. Crittenden, A. Ghysels, G. Hawkins, E. G. Hohenstein, 
 C. Kelley, W. Kurlancheek, D. Liotard, E. Livshits, P. Manohar, 
 A. Marenich, D. Neuhauser, R. Olson, M. A. Rohrdanz, K. S. Thanthiriwatte, 
 A. J. W. Thom, V. Vanovschi, C. F. Williams, Q. Wu and Z.-Q. You. 


 Intel X86 Linux Version

 Q-chem begins on Sun Jul  7 09:39:19 2013  

 Parallel job on  1  processors
Processing $rem in /usr/local/qchem/config/preferences.

theFileMan(): MAXOPENFILES=974 MAX_SUB_FILE_NUM=16
Maximum size of a physical file is 2.0 GB, maximum size of a tmp-file is 32.0 GB


--------------------------------------------------------------
User input:
--------------------------------------------------------------

$molecule
-1,2
O          0.01102        0.00000        0.02954
O          0.00996        0.00000        1.25840
O          1.09619        0.00000        1.83285
$end

$comment
negative
$end

$xc_functional
C PBE   1.00
X wPBE  1.00
$end

$rem
SYMMETRY_DECOMPOSITION	0
exchange 		general
LRC_DFT                 true
BASIS                   g3large
omega			390
mem_static              760
max_scf_cycles          200
scf_final_print         1
sym_ignore              true
$end

--------------------------------------------------------------
 Writing REM_CC_EA            3
 ----------------------------------------------------
       Standard Nuclear Orientation (Angstroms)
    I     Atom         X            Y            Z
 ----------------------------------------------------
    1      O       0.011020     0.000000     0.029540
    2      O       0.009960     0.000000     1.258400
    3      O       1.096190     0.000000     1.832850
 ----------------------------------------------------
 Nuclear Repulsion Energy =    71.2135568726 hartrees
 There are       13 alpha and       12 beta electrons
 Requested basis set is G3large
 There are 30 shells and 126 basis functions

Total QAlloc Memory Limit   2000 MB
Mega-Array Size       743 MB
MEM_STATIC part       760 MB

                       Distance Matrix (Angstroms)
             O (  1)   O (  2)
   O (  2)  1.228860
   O (  3)  2.104643  1.228775
 
 A cutoff of  1.0D-08 yielded    435 shell pairs
 There are   7848 function pairs ( 10313 Cartesian)
Evaluating contribution to one-electron hamiltonian from nuclear
 Smallest overlap matrix eigenvalue = 5.23E-04
 Multipole matrices computed through 2nd order

  Scale SEOQF with 1.000000e-01/1.000000e+00/1.000000e-01

 Standard Electronic Orientation quadrupole field applied
 Nucleus-field energy     =    -0.0000000039 hartrees
 Guess from superposition of atomic densities
 Warning:  Energy on first SCF cycle will be non-variational
 Long-range K will be added via erf
 Coulomb attenuation parameter = 0.39 bohr**(-1)
 An unrestricted Kohn-Sham SCF calculation will be
 performed using Pulay DIIS extrapolation
 Exchange:  wPBE + LR-HF      Correlation:  PBE
 Using SG-1 standard quadrature grid
 SCF converges when DIIS error is below 1.0E-05
 Requested basis set is G3large
 There are 30 shells and 126 basis functions
 A cutoff of  1.0D-08 yielded    435 shell pairs
 There are   7848 function pairs ( 10313 Cartesian)
 Warning!  Inaccurate integrated density:
   Number of electrons =    25
   Numerical integral  =    23.999877269493
   Relative error      =    -4.0004909220 %
 ---------------------------------------
  Cycle       Energy         DIIS Error
 ---------------------------------------
    1    -225.6768977438      3.85E-02
    2    -225.2809735004      9.08E-03
    3    -225.2927176874      9.90E-03
    4    -225.4096127494      1.21E-03
    5    -225.4114970834      4.17E-04
    6    -225.4119477299      2.35E-04
    7    -225.4121331270      1.13E-04
    8    -225.4122156892      4.24E-05
    9    -225.4122792676      2.38E-05
   10    -225.4123135126      7.87E-06 Convergence criterion met
 ---------------------------------------
 One-Electron    Energy =  -458.4026008903
 Total Coulomb   Energy =   187.5934762072
 Alpha Exchange  Energy =    -2.6196093458
 Beta  Exchange  Energy =    -2.3946440918
 DFT   Exchange  Energy =   -19.9514036060
 DFT Correlation Energy =    -0.8510886547
 Nuclear Repu.   Energy =    71.2135568688
 Nuclear Attr.   Energy =  -683.8593908146
 Kinetic         Energy =   225.4567899243
 <S^2> = 0.7527
 SCF time:  CPU 29.48 s  wall 29.92 s
 Final Alpha MO Eigenvalues
            1           2           3           4           5           6
    1 -18.8824769 -18.7150295 -18.7149730  -1.1897881  -0.9150122  -0.5827791
            7           8           9          10          11          12
    1  -0.4436436  -0.4104962  -0.3973762  -0.2000543  -0.1484064  -0.1370304
           13          14          15          16          17          18
    1  -0.0695224   0.3624996   0.3656242   0.3678352   0.4133400   0.4461109
 Final Beta MO Eigenvalues
            1           2           3           4           5           6
    1 -18.8694757 -18.7081651 -18.7080939  -1.1720252  -0.9016931  -0.5540102
            7           8           9          10          11          12
    1  -0.4001600  -0.3856124  -0.3841344  -0.1413722  -0.1296288  -0.1270973
           13          14          15          16          17
    1   0.2766238   0.3638761   0.3670736   0.3700536   0.4213063
 Analysis of SCF Wavefunction
 
 --------------------------------------------------------------
                    Orbital Energies (a.u.)
 --------------------------------------------------------------
 
 Alpha MOs
 -- Occupied --
-18.882 -18.715 -18.715  -1.190  -0.915  -0.583  -0.444  -0.410
 -0.397  -0.200  -0.148  -0.137  -0.070
 -- Virtual --
  0.362   0.366   0.368   0.413   0.446   0.459   0.464   0.480
  0.519   0.535   0.593   0.601   0.637   0.676   1.196   1.294
  1.297   1.320   1.332   1.355   1.387   1.392   1.442   1.540
  1.568   1.601   1.655   1.770   1.836   1.902   1.912   1.943
  1.980   2.313   2.479   2.557   2.677   2.700   2.735   2.897
  2.964   4.651   4.745   4.783   4.848   4.853   4.956   4.967
  5.096   5.144   5.223   5.255   5.256   5.281   5.310   5.377
  5.383   5.425   5.429   5.478   5.536   5.573   5.853   5.915
  6.107   6.602   6.960   6.961   7.034   7.054   7.085   7.090
  7.094   7.151   7.197   7.261   7.265   7.449   7.572   7.593
  7.641   7.791   7.854   8.278   8.438   8.747  43.840  43.851
 43.903  43.915  43.924  43.979  43.988  43.992  44.016  44.026
 44.042  44.060  44.078  44.201  44.247  45.650  45.751  45.811
 45.879  45.922  45.944  45.962  46.863  47.717  50.019  50.247
 50.255
 
 Beta MOs
 -- Occupied --
-18.869 -18.708 -18.708  -1.172  -0.902  -0.554  -0.400  -0.386
 -0.384  -0.141  -0.130  -0.127
 -- Virtual --
  0.277   0.364   0.367   0.370   0.421   0.448   0.459   0.469
  0.491   0.521   0.535   0.598   0.613   0.640   0.688   1.200
  1.299   1.319   1.325   1.334   1.361   1.408   1.419   1.446
  1.546   1.584   1.620   1.665   1.780   1.849   1.908   1.928
  1.964   2.003   2.316   2.499   2.577   2.699   2.709   2.741
  2.902   2.970   4.677   4.762   4.787   4.861   4.876   4.970
  4.980   5.109   5.191   5.231   5.285   5.286   5.295   5.331
  5.400   5.404   5.438   5.448   5.500   5.551   5.592   5.864
  5.940   6.127   6.610   6.998   6.999   7.065   7.079   7.102
  7.120   7.124   7.175   7.238   7.280   7.298   7.454   7.594
  7.621   7.669   7.796   7.866   8.287   8.449   8.756  43.872
 43.882  43.934  43.935  43.943  43.998  43.999  44.008  44.022
 44.043  44.046  44.078  44.079  44.206  44.252  45.681  45.757
 45.816  45.900  45.927  45.967  45.971  46.869  47.724  50.027
 50.254  50.265
 --------------------------------------------------------------
 
          Ground-State Mulliken Net Atomic Charges

     Atom                 Charge (a.u.)    Spin (a.u.)
  --------------------------------------------------------
      1 O                    -0.564764       0.315827
      2 O                     0.129346       0.368178
      3 O                    -0.564582       0.315995
  --------------------------------------------------------
  Sum of atomic charges =    -1.000000
  Sum of spin   charges =     1.000000

 -----------------------------------------------------------------
                    Cartesian Multipole Moments
 -----------------------------------------------------------------
    Charge (ESU x 10^10)
                -4.8032
    Dipole Moment (Debye)
         X      -2.8374      Y      -0.0003      Z      -4.3645
       Tot       5.2057
    Quadrupole Moments (Debye-Ang)
        XX     -22.7582     XY      -0.0017     YY     -18.1269
        XZ      -5.4236     YZ       0.0002     ZZ     -28.0635
    Octapole Moments (Debye-Ang^2)
       XXX     -26.7017    XXY      -0.0020    XYY      -7.5804
       YYY      -0.0011    XXZ     -25.3569    XYZ      -0.0015
       YYZ     -18.3560    XZZ     -17.9397    YZZ       0.0005
       ZZZ     -77.2971
    Hexadecapole Moments (Debye-Ang^3)
      XXXX     -72.2936   XXXY      -0.0049   XXYY     -14.7273
      XYYY      -0.0025   YYYY     -17.3183   XXXZ     -46.4435
      XXYZ      -0.0023   XYYZ     -13.8595   YYYZ      -0.0005
      XXZZ     -56.4465   XYZZ      -0.0029   YYZZ     -36.6999
      XZZZ     -60.6572   YZZZ       0.0013   ZZZZ    -244.1629
 -----------------------------------------------------------------
 Total job time:  30.06s(wall), 29.60s(cpu) 
 Sun Jul  7 09:39:49 2013

        *************************************************************
        *                                                           *
        *  Thank you very much for using Q-Chem.  Have a nice day.  *
        *                                                           *
        *************************************************************


0 sent ACK to 0 
now end server 0 ... 
 
**********************************************************************
Job 2 of 3 
**********************************************************************
 
Process 0 of 1 is on cl209.stfx.acenet.ca - thread support 1
initial socket setup ...start
initial socket setup ...done 
now start server 0 ... 

cmd = /usr/bin/ssh clhead /usr/local/qchem/bin/get_hostid 1574710912 > /scratch/tmp/6063946.1.medium.q/qchem21798/lic.dat
                  Welcome to Q-Chem
     A Quantum Leap Into The Future Of Chemistry

 Y. Shao, L. Fusti-Molnar, Y. Jung, J. Kussmann, C. Ochsenfeld,
 S. T. Brown, A. T. B. Gilbert, L. V. Slipchenko,S. V. Levchenko,
 D. P. O'Neill, R. A. DiStasio Jr., R. C. Lochan, T. Wang,
 G. J. O. Beran, N. A. Besley, J. M. Herbert, C. Y. Lin,
 T. Van Voorhis, S. H. Chien, A. Sodt, R. P. Steele, 
 V. A. Rassolov, P. E. Maslen, P. P. Korambath, R. D. Adamson,
 B. Austin, J. Baker, E. F. C. Byrd, H. Dachsel, R. J. Doerksen,
 A. Dreuw, B. D. Dunietz, A. D. Dutoi, T. R. Furlani,
 S. R. Gwaltney, A. Heyden, S. Hirata, C.-P. Hsu, G. Kedziora,
 R. Z. Khaliullin, P. Klunzinger, A. M. Lee, M. S. Lee, W. Liang,
 I. Lotan, N. Nair, B. Peters, E. I. Proynov, P. A. Pieniazek, 
 Y. M. Rhee, J. Ritchie, E. Rosta, C. D. Sherrill, 
 A. C. Simmonett, J. E. Subotnik, H. L. Woodcock III,
 W. Zhang, A. T. Bell, A. K. Chakraborty, D. M. Chipman,
 F. J. Keil, A. Warshel, W. J. Hehre, H. F. Schaefer III,
 J. Kong, A. I. Krylov, P. M. W. Gill, M. Head-Gordon,
 Q-Chem, Version 3.1, Q-Chem, Inc., Pittsburgh, PA (2007).

 Additional authors for Version 3.1: 
 Z. Gan, Y. Zhao, N. E. Schultz, D. Truhlar, E. Epifanovsky and M. Oana.

 Additional authors for Version 3.2: 
 R. Baer, B. R. Brooks, D. Casanova, J.-D. Chai, C.-L. Cheng, 
 C. Cramer, D. Crittenden, A. Ghysels, G. Hawkins, E. G. Hohenstein, 
 C. Kelley, W. Kurlancheek, D. Liotard, E. Livshits, P. Manohar, 
 A. Marenich, D. Neuhauser, R. Olson, M. A. Rohrdanz, K. S. Thanthiriwatte, 
 A. J. W. Thom, V. Vanovschi, C. F. Williams, Q. Wu and Z.-Q. You. 


 Intel X86 Linux Version

 Q-chem begins on Sun Jul  7 09:39:52 2013  

 Parallel job on  1  processors
Processing $rem in /usr/local/qchem/config/preferences.

theFileMan(): MAXOPENFILES=974 MAX_SUB_FILE_NUM=16
Maximum size of a physical file is 2.0 GB, maximum size of a tmp-file is 32.0 GB


--------------------------------------------------------------
User input:
--------------------------------------------------------------

$molecule
0,1
O          0.01102        0.00000        0.02954
O          0.00996        0.00000        1.25840
O          1.09619        0.00000        1.83285
$end

$comment
neutral
$end

$xc_functional
C PBE   1.00
X wPBE  1.00
$end


$rem
SYMMETRY_DECOMPOSITION	0
LRC_DFT                 true
exchange 		general
BASIS                   g3large
omega			390
mem_static              760
max_scf_cycles          200
scf_final_print         1
sym_ignore              true
$end

--------------------------------------------------------------
 Writing REM_CC_EA            3
 ----------------------------------------------------
       Standard Nuclear Orientation (Angstroms)
    I     Atom         X            Y            Z
 ----------------------------------------------------
    1      O       0.011020     0.000000     0.029540
    2      O       0.009960     0.000000     1.258400
    3      O       1.096190     0.000000     1.832850
 ----------------------------------------------------
 Nuclear Repulsion Energy =    71.2135568726 hartrees
 There are       12 alpha and       12 beta electrons
 Requested basis set is G3large
 There are 30 shells and 126 basis functions

Total QAlloc Memory Limit   2000 MB
Mega-Array Size       743 MB
MEM_STATIC part       760 MB

                       Distance Matrix (Angstroms)
             O (  1)   O (  2)
   O (  2)  1.228860
   O (  3)  2.104643  1.228775
 
 A cutoff of  1.0D-08 yielded    435 shell pairs
 There are   7848 function pairs ( 10313 Cartesian)
Evaluating contribution to one-electron hamiltonian from nuclear
 Smallest overlap matrix eigenvalue = 5.23E-04
 Multipole matrices computed through 2nd order

  Scale SEOQF with 1.000000e-01/1.000000e+00/1.000000e-01

 Standard Electronic Orientation quadrupole field applied
 Nucleus-field energy     =    -0.0000000039 hartrees
 Guess from superposition of atomic densities
 Warning:  Energy on first SCF cycle will be non-variational
 Long-range K will be added via erf
 Coulomb attenuation parameter = 0.39 bohr**(-1)
 A restricted Kohn-Sham SCF calculation will be
 performed using Pulay DIIS extrapolation
 Exchange:  wPBE + LR-HF      Correlation:  PBE
 Using SG-1 standard quadrature grid
 SCF converges when DIIS error is below 1.0E-05
 Requested basis set is G3large
 There are 30 shells and 126 basis functions
 A cutoff of  1.0D-08 yielded    435 shell pairs
 There are   7848 function pairs ( 10313 Cartesian)
 ---------------------------------------
  Cycle       Energy         DIIS Error
 ---------------------------------------
    1    -225.6768977438      3.85E-02
    2    -225.1815963962      1.06E-02
    3    -225.0717730676      1.52E-02
    4    -225.3307939262      1.52E-03
    5    -225.3311674449      1.55E-03
    6    -225.3345749396      2.51E-04
    7    -225.3349699566      1.06E-04
    8    -225.3351612662      6.29E-05
    9    -225.3352551937      2.94E-05
   10    -225.3352783558      6.69E-06 Convergence criterion met
 ---------------------------------------
 One-Electron    Energy =  -450.0713290392
 Total Coulomb   Energy =   178.9189687252
 Alpha Exchange  Energy =    -2.4120216672
 Beta  Exchange  Energy =    -2.4120216672
 DFT   Exchange  Energy =   -19.7528674461
 DFT Correlation Energy =    -0.8195641300
 Nuclear Repu.   Energy =    71.2135568688
 Nuclear Attr.   Energy =  -675.0140443150
 Kinetic         Energy =   224.9427152758
 SCF time:  CPU 25.02 s  wall 25.43 s
 Final Alpha MO Eigenvalues
            1           2           3           4           5           6
    1 -19.2786941 -19.0753666 -19.0752949  -1.5388858  -1.2579245  -0.9064832
            7           8           9          10          11          12
    1  -0.7659386  -0.7436490  -0.7273932  -0.4840155  -0.4743448  -0.4636557
           13          14          15          16          17
    1  -0.0880560   0.1545488   0.1633347   0.1705820   0.1969063
 Analysis of SCF Wavefunction
 
 --------------------------------------------------------------
                    Orbital Energies (a.u.)
 --------------------------------------------------------------
 
 Alpha MOs
 -- Occupied --
-19.279 -19.075 -19.075  -1.539  -1.258  -0.906  -0.766  -0.744
 -0.727  -0.484  -0.474  -0.464
 -- Virtual --
 -0.088   0.155   0.163   0.171   0.197   0.222   0.255   0.264
  0.282   0.288   0.300   0.320   0.363   0.384   0.426   0.925
  1.005   1.020   1.027   1.053   1.079   1.109   1.119   1.167
  1.243   1.251   1.280   1.341   1.472   1.538   1.599   1.600
  1.634   1.677   1.998   2.158   2.243   2.361   2.373   2.431
  2.591   2.650   4.311   4.406   4.445   4.510   4.516   4.616
  4.621   4.756   4.810   4.892   4.923   4.927   4.953   4.975
  5.048   5.053   5.094   5.096   5.142   5.203   5.237   5.519
  5.576   5.768   6.260   6.616   6.619   6.701   6.721   6.750
  6.752   6.755   6.811   6.857   6.919   6.920   7.111   7.234
  7.258   7.303   7.453   7.507   7.933   8.093   8.399  43.460
 43.468  43.521  43.557  43.568  43.609  43.622  43.630  43.648
 43.668  43.668  43.702  43.718  43.837  43.879  45.273  45.371
 45.438  45.522  45.561  45.577  45.600  46.495  47.341  49.648
 49.876  49.888
 --------------------------------------------------------------
 
          Ground-State Mulliken Net Atomic Charges

     Atom                 Charge (a.u.)
  ----------------------------------------
      1 O                    -0.156863
      2 O                     0.313737
      3 O                    -0.156874
  ----------------------------------------
  Sum of atomic charges =     0.000000

 -----------------------------------------------------------------
                    Cartesian Multipole Moments
 -----------------------------------------------------------------
    Charge (ESU x 10^10)
                 0.0000
    Dipole Moment (Debye)
         X      -0.6655      Y       0.0000      Z       0.4007
       Tot       0.7768
    Quadrupole Moments (Debye-Ang)
        XX     -16.9221     XY      -0.0004     YY     -14.5726
        XZ      -1.1946     YZ       0.0000     ZZ     -16.2831
    Octapole Moments (Debye-Ang^2)
       XXX     -19.1783    XXY      -0.0004    XYY      -5.7306
       YYY       0.0000    XXZ     -17.2465    XYZ      -0.0003
       YYZ     -14.9762    XZZ      -8.3711    YZZ       0.0001
       ZZZ     -52.4322
    Hexadecapole Moments (Debye-Ang^3)
      XXXX     -51.9724   XXXY      -0.0009   XXYY     -10.0421
      XYYY      -0.0003   YYYY     -10.4016   XXXZ     -33.0029
      XXYZ      -0.0006   XYYZ     -10.4079   YYYZ      -0.0001
      XXZZ     -37.7203   XYZZ      -0.0007   YYZZ     -27.9695
      XZZZ     -37.3039   YZZZ       0.0001   ZZZZ    -177.5365
 -----------------------------------------------------------------
 Total job time:  25.56s(wall), 25.14s(cpu) 
 Sun Jul  7 09:40:18 2013

        *************************************************************
        *                                                           *
        *  Thank you very much for using Q-Chem.  Have a nice day.  *
        *                                                           *
        *************************************************************


0 sent ACK to 0 
now end server 0 ... 
 
**********************************************************************
Job 3 of 3 
**********************************************************************
 
Process 0 of 1 is on cl209.stfx.acenet.ca - thread support 1
initial socket setup ...start
initial socket setup ...done 
now start server 0 ... 

cmd = /usr/bin/ssh clhead /usr/local/qchem/bin/get_hostid 1659051642 > /scratch/tmp/6063946.1.medium.q/qchem21798/lic.dat
                  Welcome to Q-Chem
     A Quantum Leap Into The Future Of Chemistry

 Y. Shao, L. Fusti-Molnar, Y. Jung, J. Kussmann, C. Ochsenfeld,
 S. T. Brown, A. T. B. Gilbert, L. V. Slipchenko,S. V. Levchenko,
 D. P. O'Neill, R. A. DiStasio Jr., R. C. Lochan, T. Wang,
 G. J. O. Beran, N. A. Besley, J. M. Herbert, C. Y. Lin,
 T. Van Voorhis, S. H. Chien, A. Sodt, R. P. Steele, 
 V. A. Rassolov, P. E. Maslen, P. P. Korambath, R. D. Adamson,
 B. Austin, J. Baker, E. F. C. Byrd, H. Dachsel, R. J. Doerksen,
 A. Dreuw, B. D. Dunietz, A. D. Dutoi, T. R. Furlani,
 S. R. Gwaltney, A. Heyden, S. Hirata, C.-P. Hsu, G. Kedziora,
 R. Z. Khaliullin, P. Klunzinger, A. M. Lee, M. S. Lee, W. Liang,
 I. Lotan, N. Nair, B. Peters, E. I. Proynov, P. A. Pieniazek, 
 Y. M. Rhee, J. Ritchie, E. Rosta, C. D. Sherrill, 
 A. C. Simmonett, J. E. Subotnik, H. L. Woodcock III,
 W. Zhang, A. T. Bell, A. K. Chakraborty, D. M. Chipman,
 F. J. Keil, A. Warshel, W. J. Hehre, H. F. Schaefer III,
 J. Kong, A. I. Krylov, P. M. W. Gill, M. Head-Gordon,
 Q-Chem, Version 3.1, Q-Chem, Inc., Pittsburgh, PA (2007).

 Additional authors for Version 3.1: 
 Z. Gan, Y. Zhao, N. E. Schultz, D. Truhlar, E. Epifanovsky and M. Oana.

 Additional authors for Version 3.2: 
 R. Baer, B. R. Brooks, D. Casanova, J.-D. Chai, C.-L. Cheng, 
 C. Cramer, D. Crittenden, A. Ghysels, G. Hawkins, E. G. Hohenstein, 
 C. Kelley, W. Kurlancheek, D. Liotard, E. Livshits, P. Manohar, 
 A. Marenich, D. Neuhauser, R. Olson, M. A. Rohrdanz, K. S. Thanthiriwatte, 
 A. J. W. Thom, V. Vanovschi, C. F. Williams, Q. Wu and Z.-Q. You. 


 Intel X86 Linux Version

 Q-chem begins on Sun Jul  7 09:40:20 2013  

 Parallel job on  1  processors
Processing $rem in /usr/local/qchem/config/preferences.

theFileMan(): MAXOPENFILES=974 MAX_SUB_FILE_NUM=16
Maximum size of a physical file is 2.0 GB, maximum size of a tmp-file is 32.0 GB


--------------------------------------------------------------
User input:
--------------------------------------------------------------

$molecule
1,2
O          0.01102        0.00000        0.02954
O          0.00996        0.00000        1.25840
O          1.09619        0.00000        1.83285
$end

$comment
positive
$end

$xc_functional
C PBE   1.00
X wPBE  1.00
$end

$rem
SYMMETRY_DECOMPOSITION	0
LRC_DFT                 true
exchange 		general
BASIS                   g3large
omega			390
mem_static              760
max_scf_cycles          200
scf_final_print         1
sym_ignore              true
$end

--------------------------------------------------------------
 Writing REM_CC_EA            3
 ----------------------------------------------------
       Standard Nuclear Orientation (Angstroms)
    I     Atom         X            Y            Z
 ----------------------------------------------------
    1      O       0.011020     0.000000     0.029540
    2      O       0.009960     0.000000     1.258400
    3      O       1.096190     0.000000     1.832850
 ----------------------------------------------------
 Nuclear Repulsion Energy =    71.2135568726 hartrees
 There are       12 alpha and       11 beta electrons
 Requested basis set is G3large
 There are 30 shells and 126 basis functions

Total QAlloc Memory Limit   2000 MB
Mega-Array Size       743 MB
MEM_STATIC part       760 MB

                       Distance Matrix (Angstroms)
             O (  1)   O (  2)
   O (  2)  1.228860
   O (  3)  2.104643  1.228775
 
 A cutoff of  1.0D-08 yielded    435 shell pairs
 There are   7848 function pairs ( 10313 Cartesian)
Evaluating contribution to one-electron hamiltonian from nuclear
 Smallest overlap matrix eigenvalue = 5.23E-04
 Multipole matrices computed through 2nd order

  Scale SEOQF with 1.000000e-01/1.000000e+00/1.000000e-01

 Standard Electronic Orientation quadrupole field applied
 Nucleus-field energy     =    -0.0000000039 hartrees
 Guess from superposition of atomic densities
 Warning:  Energy on first SCF cycle will be non-variational
 Long-range K will be added via erf
 Coulomb attenuation parameter = 0.39 bohr**(-1)
 An unrestricted Kohn-Sham SCF calculation will be
 performed using Pulay DIIS extrapolation
 Exchange:  wPBE + LR-HF      Correlation:  PBE
 Using SG-1 standard quadrature grid
 SCF converges when DIIS error is below 1.0E-05
 Requested basis set is G3large
 There are 30 shells and 126 basis functions
 A cutoff of  1.0D-08 yielded    435 shell pairs
 There are   7848 function pairs ( 10313 Cartesian)
 Warning!  Inaccurate integrated density:
   Number of electrons =    23
   Numerical integral  =    23.999877269493
   Relative error      =     4.3472924761 %
 ---------------------------------------
  Cycle       Energy         DIIS Error
 ---------------------------------------
    1    -225.6768977438      3.85E-02
    2    -224.5953318024      1.22E-02
    3    -224.2718241762      2.08E-02
    4    -224.8310644665      3.92E-03
    5    -224.8496473093      1.98E-03
    6    -224.8568585636      6.24E-04
    7    -224.8588796361      2.22E-04
    8    -224.8604100657      1.05E-04
    9    -224.8611416786      6.96E-05
   10    -224.8618182433      4.83E-05
   11    -224.8626424058      3.76E-05
   12    -224.8633086660      3.86E-05
   13    -224.8642774200      4.90E-05
   14    -224.8650062252      5.68E-05
   15    -224.8649790274      6.08E-05
   16    -224.8657824970      5.64E-05
   17    -224.8659165164      2.89E-05
   18    -224.8659662907      1.98E-05
   19    -224.8659874735      5.05E-06 Convergence criterion met
 ---------------------------------------
 One-Electron    Energy =  -440.9604296823
 Total Coulomb   Energy =   169.9023509209
 Alpha Exchange  Energy =    -2.4381180731
 Beta  Exchange  Energy =    -2.2171668339
 DFT   Exchange  Energy =   -19.5907830881
 DFT Correlation Energy =    -0.7753975857
 Nuclear Repu.   Energy =    71.2135568688
 Nuclear Attr.   Energy =  -665.5379521231
 Kinetic         Energy =   224.5775224408
 <S^2> = 1.0777
 SCF time:  CPU 56.74 s  wall 57.62 s
 Final Alpha MO Eigenvalues
            1           2           3           4           5           6
    1 -19.6372191 -19.5551328 -19.4573082  -1.9232228  -1.6503276  -1.2882516
            7           8           9          10          11          12
    1  -1.1321385  -1.1292980  -1.0966260  -0.9287125  -0.8862711  -0.8154373
           13          14          15          16          17
    1  -0.4138200  -0.1603419  -0.0801225  -0.0700549  -0.0276365
 Final Beta MO Eigenvalues
            1           2           3           4           5           6
    1 -19.6300651 -19.5229340 -19.4689418  -1.9037278  -1.6270160  -1.2486864
            7           8           9          10          11          12
    1  -1.1089713  -1.0916946  -1.0715777  -0.8615941  -0.8209042  -0.4796333
           13          14          15          16
    1  -0.4321632  -0.1373369  -0.0733105  -0.0583740
 Analysis of SCF Wavefunction
 
 --------------------------------------------------------------
                    Orbital Energies (a.u.)
 --------------------------------------------------------------
 
 Alpha MOs
 -- Occupied --
-19.637 -19.555 -19.457  -1.923  -1.650  -1.288  -1.132  -1.129
 -1.097  -0.929  -0.886  -0.815
 -- Virtual --
 -0.414  -0.160  -0.080  -0.070  -0.028  -0.024   0.001   0.051
  0.053   0.056   0.067   0.079   0.139   0.169   0.213   0.625
  0.691   0.696   0.730   0.753   0.788   0.797   0.837   0.856
  0.910   0.923   0.937   1.011   1.133   1.201   1.230   1.260
  1.301   1.353   1.632   1.802   1.905   2.019   2.027   2.094
  2.266   2.304   3.941   4.037   4.060   4.140   4.152   4.234
  4.252   4.394   4.429   4.437   4.532   4.560   4.565   4.583
  4.650   4.679   4.702   4.744   4.777   4.822   4.868   5.128
  5.211   5.393   5.858   6.184   6.242   6.242   6.345   6.353
  6.367   6.372   6.450   6.488   6.534   6.543   6.691   6.851
  6.886   6.951   7.072   7.134   7.551   7.712   8.027  43.047
 43.083  43.097  43.127  43.173  43.192  43.207  43.216  43.234
 43.259  43.272  43.293  43.315  43.401  43.500  44.886  44.971
 45.019  45.089  45.119  45.198  45.200  46.088  46.952  49.237
 49.453  49.509
 
 Beta MOs
 -- Occupied --
-19.630 -19.523 -19.469  -1.904  -1.627  -1.249  -1.109  -1.092
 -1.072  -0.862  -0.821
 -- Virtual --
 -0.480  -0.432  -0.137  -0.073  -0.058  -0.027  -0.018   0.008
  0.053   0.056   0.061   0.068   0.079   0.140   0.172   0.214
  0.639   0.706   0.720   0.734   0.767   0.797   0.806   0.833
  0.877   0.920   0.934   0.943   1.024   1.162   1.218   1.261
  1.279   1.303   1.356   1.656   1.822   1.913   2.028   2.032
  2.110   2.273   2.320   3.954   4.044   4.085   4.160   4.169
  4.248   4.270   4.408   4.461   4.529   4.550   4.569   4.591
  4.618   4.685   4.690   4.731   4.740   4.787   4.841   4.875
  5.159   5.223   5.409   5.889   6.249   6.260   6.323   6.376
  6.376   6.382   6.389   6.446   6.505   6.547   6.566   6.742
  6.882   6.896   6.955   7.092   7.146   7.566   7.728   8.039
 43.101  43.114  43.144  43.163  43.164  43.210  43.227  43.229
 43.246  43.270  43.280  43.290  43.301  43.421  43.499  44.901
 44.992  45.046  45.102  45.153  45.187  45.204  46.098  46.958
 49.251  49.468  49.507
 --------------------------------------------------------------
 
          Ground-State Mulliken Net Atomic Charges

     Atom                 Charge (a.u.)    Spin (a.u.)
  --------------------------------------------------------
      1 O                     0.401263       1.239569
      2 O                     0.430259       0.229788
      3 O                     0.168478      -0.469357
  --------------------------------------------------------
  Sum of atomic charges =     1.000000
  Sum of spin   charges =     1.000000

 -----------------------------------------------------------------
                    Cartesian Multipole Moments
 -----------------------------------------------------------------
    Charge (ESU x 10^10)
                 4.8032
    Dipole Moment (Debye)
         X       1.1912      Y       0.0003      Z       4.3197
       Tot       4.4809
    Quadrupole Moments (Debye-Ang)
        XX     -11.7589     XY      -0.0020     YY     -12.7408
        XZ       2.2495     YZ       0.0018     ZZ      -6.9686
    Octapole Moments (Debye-Ang^2)
       XXX     -13.8636    XXY      -0.0022    XYY      -4.7365
       YYY       0.0002    XXZ     -11.1206    XYZ       0.0007
       YYZ     -13.0554    XZZ      -0.7618    YZZ       0.0075
       ZZZ     -33.0641
    Hexadecapole Moments (Debye-Ang^3)
      XXXX     -38.8950   XXXY      -0.0050   XXYY      -7.7451
      XYYY      -0.0012   YYYY      -7.7825   XXXZ     -23.5616
      XXYZ      -0.0013   XYYZ      -8.5647   YYYZ       0.0009
      XXZZ     -24.2455   XYZZ       0.0052   YYZZ     -23.4776
      XZZZ     -19.8214   YZZZ       0.0217   ZZZZ    -129.4022
 -----------------------------------------------------------------
 Total job time:  57.75s(wall), 56.87s(cpu) 
 Sun Jul  7 09:41:18 2013

        *************************************************************
        *                                                           *
        *  Thank you very much for using Q-Chem.  Have a nice day.  *
        *                                                           *
        *************************************************************


0 sent ACK to 0 
now end server 0 ... 
