Process 0 of 1 is on cl135 - thread support 1
initial socket setup ...start
initial socket setup ...done 
now start server 0 ... 

cmd = /usr/bin/ssh clhead /usr/local/qchem/bin/get_hostid 1113167691 > /tmp/1602190.1.medium.q/qchem27650/lic.dat

cmd = /usr/bin/ssh clhead /usr/local/qchem/bin/get_hostid 1113167691 > /tmp/1602190.1.medium.q/qchem27650/lic.dat

cmd = /usr/bin/ssh clhead /usr/local/qchem/bin/get_hostid 1113167691 > /tmp/1602190.1.medium.q/qchem27650/lic.dat

cmd = /usr/bin/ssh clhead /usr/local/qchem/bin/get_hostid 1113167691 > /tmp/1602190.1.medium.q/qchem27650/lic.dat

cmd = /usr/bin/ssh clhead /usr/local/qchem/bin/get_hostid 1113167691 > /tmp/1602190.1.medium.q/qchem27650/lic.dat
                  Welcome to Q-Chem
     A Quantum Leap Into The Future Of Chemistry

 Y. Shao, L. Fusti-Molnar, Y. Jung, J. Kussmann, C. Ochsenfeld,
 S. T. Brown, A. T. B. Gilbert, L. V. Slipchenko,S. V. Levchenko,
 D. P. O'Neill, R. A. DiStasio Jr., R. C. Lochan, T. Wang,
 G. J. O. Beran, N. A. Besley, J. M. Herbert, C. Y. Lin,
 T. Van Voorhis, S. H. Chien, A. Sodt, R. P. Steele, 
 V. A. Rassolov, P. E. Maslen, P. P. Korambath, R. D. Adamson,
 B. Austin, J. Baker, E. F. C. Byrd, H. Dachsel, R. J. Doerksen,
 A. Dreuw, B. D. Dunietz, A. D. Dutoi, T. R. Furlani,
 S. R. Gwaltney, A. Heyden, S. Hirata, C.-P. Hsu, G. Kedziora,
 R. Z. Khaliullin, P. Klunzinger, A. M. Lee, M. S. Lee, W. Liang,
 I. Lotan, N. Nair, B. Peters, E. I. Proynov, P. A. Pieniazek, 
 Y. M. Rhee, J. Ritchie, E. Rosta, C. D. Sherrill, 
 A. C. Simmonett, J. E. Subotnik, H. L. Woodcock III,
 W. Zhang, A. T. Bell, A. K. Chakraborty, D. M. Chipman,
 F. J. Keil, A. Warshel, W. J. Hehre, H. F. Schaefer III,
 J. Kong, A. I. Krylov, P. M. W. Gill, M. Head-Gordon,
 Q-Chem, Version 3.1, Q-Chem, Inc., Pittsburgh, PA (2007).

 Additional authors for Version 3.1: 
 Z. Gan, Y. Zhao, N. E. Schultz, D. Truhlar, E. Epifanovsky and M. Oana.

 Additional authors for Version 3.2: 
 R. Baer, B. R. Brooks, D. Casanova, J.-D. Chai, C.-L. Cheng, 
 C. Cramer, D. Crittenden, A. Ghysels, G. Hawkins, E. G. Hohenstein, 
 C. Kelley, W. Kurlancheek, D. Liotard, E. Livshits, P. Manohar, 
 A. Marenich, D. Neuhauser, R. Olson, M. A. Rohrdanz, K. S. Thanthiriwatte, 
 A. J. W. Thom, V. Vanovschi, C. F. Williams, Q. Wu and Z.-Q. You. 


 Intel X86 Linux Version

 Q-chem begins on Fri Mar 21 15:26:54 2014  

 Parallel job on  1  processors
Processing $rem in /usr/local/qchem/config/preferences.

theFileMan(): MAXOPENFILES=974 MAX_SUB_FILE_NUM=16
Maximum size of a physical file is 2.0 GB, maximum size of a tmp-file is 32.0 GB


--------------------------------------------------------------
User input:
--------------------------------------------------------------

$molecule
-1,2
Li         0.00000        0.00000        0.01317
H          0.00000        0.00000        1.60790
$end

$comment
negative
$end

$xc_functional
C PBE   1.00
X wPBE  1.00
$end

$rem
SYMMETRY_DECOMPOSITION	0
exchange 		general
LRC_DFT                 true
BASIS                   g3large
omega			600
mem_static              760
max_scf_cycles          200
scf_final_print         1
sym_ignore              true
$end

--------------------------------------------------------------
 Writing REM_CC_EA            2
 ----------------------------------------------------
       Standard Nuclear Orientation (Angstroms)
    I     Atom         X            Y            Z
 ----------------------------------------------------
    1      Li      0.000000     0.000000     0.013170
    2      H       0.000000     0.000000     1.607900
 ----------------------------------------------------
 Nuclear Repulsion Energy =     0.9954861528 hartrees
 There are        3 alpha and        2 beta electrons
 Requested basis set is G3large
 There are 16 shells and 52 basis functions

Total QAlloc Memory Limit   2000 MB
Mega-Array Size       743 MB
MEM_STATIC part       760 MB

                       Distance Matrix (Angstroms)
             Li(  1)
   H (  2)  1.594730
 
 A cutoff of  1.0D-08 yielded    136 shell pairs
 There are   1462 function pairs (  1834 Cartesian)
Evaluating contribution to one-electron hamiltonian from nuclear
 Smallest overlap matrix eigenvalue = 3.55E-03
 Multipole matrices computed through 2nd order

  Scale SEOQF with 1.000000e-02/1.000000e-02/1.000000e-02

 Standard Electronic Orientation quadrupole field applied
 Guess from superposition of atomic densities
 Warning:  Energy on first SCF cycle will be non-variational
 Long-range K will be added via erf
 Coulomb attenuation parameter = 0.6 bohr**(-1)
 An unrestricted Kohn-Sham SCF calculation will be
 performed using Pulay DIIS extrapolation
 Exchange:  wPBE + LR-HF      Correlation:  PBE
 Using SG-1 standard quadrature grid
 SCF converges when DIIS error is below 1.0E-05
 Requested basis set is G3large
 There are 16 shells and 52 basis functions
 A cutoff of  1.0D-08 yielded    136 shell pairs
 There are   1462 function pairs (  1834 Cartesian)
 Warning!  Inaccurate integrated density:
   Number of electrons =     5
   Numerical integral  =     4.012701451678
   Relative error      =   -19.7459709664 %
 ---------------------------------------
  Cycle       Energy         DIIS Error
 ---------------------------------------
    1      -7.7606987839      5.64E-03
    2      -7.9944634632      5.91E-03
    3      -8.0276637141      2.90E-03
    4      -8.0482095184      5.58E-04
 Warning!  Inaccurate integrated density:
   Number of electrons =     5
   Numerical integral  =     4.991748781096
   Relative error      =    -0.1650243781 %
    5      -8.0535581471      4.02E-04
 Warning!  Inaccurate integrated density:
   Number of electrons =     5
   Numerical integral  =     4.988325134844
   Relative error      =    -0.2334973031 %
    6      -8.0588329877      2.91E-04
 Warning!  Inaccurate integrated density:
   Number of electrons =     5
   Numerical integral  =     4.989139987817
   Relative error      =    -0.2172002437 %
    7      -8.0622439674      3.31E-04
 Warning!  Inaccurate integrated density:
   Number of electrons =     5
   Numerical integral  =     4.986694227013
   Relative error      =    -0.2661154597 %
    8      -8.0576710831      2.16E-04
 Warning!  Inaccurate integrated density:
   Number of electrons =     5
   Numerical integral  =     4.984963210370
   Relative error      =    -0.3007357926 %
    9      -8.0565457547      1.20E-04
 Warning!  Inaccurate integrated density:
   Number of electrons =     5
   Numerical integral  =     4.983418232466
   Relative error      =    -0.3316353507 %
   10      -8.0565808987      4.13E-05
 Warning!  Inaccurate integrated density:
   Number of electrons =     5
   Numerical integral  =     4.982936160026
   Relative error      =    -0.3412767995 %
   11      -8.0566049147      1.45E-05
 Warning!  Inaccurate integrated density:
   Number of electrons =     5
   Numerical integral  =     4.983044464822
   Relative error      =    -0.3391107036 %
   12      -8.0566069257      1.09E-05
 Warning!  Inaccurate integrated density:
   Number of electrons =     5
   Numerical integral  =     4.982960385676
   Relative error      =    -0.3407922865 %
   13      -8.0566101850      5.52E-06 Convergence criterion met
 ---------------------------------------
 One-Electron    Energy =   -12.8100851751
 Total Coulomb   Energy =     6.0263962977
 Alpha Exchange  Energy =    -0.5376446998
 Beta  Exchange  Energy =    -0.5001602499
 DFT   Exchange  Energy =    -1.1413151600
 DFT Correlation Energy =    -0.0892873507
 Nuclear Repu.   Energy =     0.9954861527
 Nuclear Attr.   Energy =   -20.7880319107
 Kinetic         Energy =     7.9779467356
 <S^2> = 0.7501
 SCF time:  CPU 7.16 s  wall 8.25 s
 Final Alpha MO Eigenvalues
            1           2           3           4           5           6
    1  -2.0790169  -0.2291735   0.0090477   0.0538838   0.0729531   0.0803081
            7           8
    1   0.0932861   0.1202703
 Final Beta MO Eigenvalues
            1           2           3           4           5           6
    1  -2.0789303  -0.2302071   0.0695616   0.0815062   0.0895343   0.0902109
            7
    1   0.1032912
 Analysis of SCF Wavefunction
 
 --------------------------------------------------------------
                    Orbital Energies (a.u.)
 --------------------------------------------------------------
 
 Alpha MOs
 -- Occupied --
 -2.079  -0.229   0.009
 -- Virtual --
  0.054   0.073   0.080   0.093   0.120   0.128   0.147   0.215
  0.239   0.240   0.242   0.332   0.367   0.367   0.372   0.374
  0.483   0.606   0.649   0.651   0.683   0.684   0.701   0.701
  0.703   0.704   0.740   0.937   1.193   1.195   1.313   1.385
  1.386   1.493   1.494   1.641   3.008   3.852   4.390   4.391
  4.513   7.080   7.080   7.362  20.273  20.301  21.398  21.403
 21.403
 
 Beta MOs
 -- Occupied --
 -2.079  -0.230
 -- Virtual --
  0.070   0.082   0.090   0.090   0.103   0.128   0.129   0.146
  0.215   0.238   0.239   0.243   0.331   0.367   0.367   0.372
  0.373   0.481   0.605   0.649   0.650   0.683   0.683   0.700
  0.700   0.703   0.703   0.739   0.936   1.193   1.194   1.313
  1.385   1.386   1.493   1.494   1.640   3.007   3.851   4.389
  4.390   4.512   7.080   7.080   7.362  20.273  20.301  21.398
 21.403  21.403
 --------------------------------------------------------------
 
          Ground-State Mulliken Net Atomic Charges

     Atom                 Charge (a.u.)    Spin (a.u.)
  --------------------------------------------------------
      1 Li                   -0.642260       1.011313
      2 H                    -0.357740      -0.011313
  --------------------------------------------------------
  Sum of atomic charges =    -1.000000
  Sum of spin   charges =     1.000000

 -----------------------------------------------------------------
                    Cartesian Multipole Moments
 -----------------------------------------------------------------
    Charge (ESU x 10^10)
                -4.8032
    Dipole Moment (Debye)
         X      -0.1061      Y      -0.1061      Z      -6.0340
       Tot       6.0359
    Quadrupole Moments (Debye-Ang)
        XX    -100.5360     XY     -47.6362     YY    -100.5070
        XZ       0.5126     YZ       0.5125     ZZ     -60.0018
    Octapole Moments (Debye-Ang^2)
       XXX      -4.6476    XXY      -1.5491    XYY      -1.5495
       YYY      -4.6463    XXZ      -7.4671    XYZ      -0.5310
       YYZ      -7.4668    XZZ      -1.5204    YZZ      -1.5200
       ZZZ     -28.8729
    Hexadecapole Moments (Debye-Ang^3)
      XXXX   -4217.9465   XXXY   -1401.6237   XXYY   -1405.7008
      XYYY   -1401.6237   YYYY   -4216.2658   XXXZ      17.3591
      XXYZ       5.7846   XYYZ       5.7864   YYYZ      17.3540
      XXZZ    -946.9113   XYZZ    -467.2100   YYZZ    -946.6312
      XZZZ      17.3748   YZZZ      17.3697   ZZZZ   -1472.9285
 -----------------------------------------------------------------
 Total job time:  8.34s(wall), 7.22s(cpu) 
 Fri Mar 21 15:27:02 2014

        *************************************************************
        *                                                           *
        *  Thank you very much for using Q-Chem.  Have a nice day.  *
        *                                                           *
        *************************************************************


0 sent ACK to 0 
now end server 0 ... 
 
**********************************************************************
Job 2 of 3 
**********************************************************************
 
Process 0 of 1 is on cl135 - thread support 1
initial socket setup ...start
initial socket setup ...done 
now start server 0 ... 

cmd = /usr/bin/ssh clhead /usr/local/qchem/bin/get_hostid 687689604 > /tmp/1602190.1.medium.q/qchem27650/lic.dat

cmd = /usr/bin/ssh clhead /usr/local/qchem/bin/get_hostid 687689604 > /tmp/1602190.1.medium.q/qchem27650/lic.dat

cmd = /usr/bin/ssh clhead /usr/local/qchem/bin/get_hostid 687689604 > /tmp/1602190.1.medium.q/qchem27650/lic.dat

cmd = /usr/bin/ssh clhead /usr/local/qchem/bin/get_hostid 687689604 > /tmp/1602190.1.medium.q/qchem27650/lic.dat

cmd = /usr/bin/ssh clhead /usr/local/qchem/bin/get_hostid 687689604 > /tmp/1602190.1.medium.q/qchem27650/lic.dat
                  Welcome to Q-Chem
     A Quantum Leap Into The Future Of Chemistry

 Y. Shao, L. Fusti-Molnar, Y. Jung, J. Kussmann, C. Ochsenfeld,
 S. T. Brown, A. T. B. Gilbert, L. V. Slipchenko,S. V. Levchenko,
 D. P. O'Neill, R. A. DiStasio Jr., R. C. Lochan, T. Wang,
 G. J. O. Beran, N. A. Besley, J. M. Herbert, C. Y. Lin,
 T. Van Voorhis, S. H. Chien, A. Sodt, R. P. Steele, 
 V. A. Rassolov, P. E. Maslen, P. P. Korambath, R. D. Adamson,
 B. Austin, J. Baker, E. F. C. Byrd, H. Dachsel, R. J. Doerksen,
 A. Dreuw, B. D. Dunietz, A. D. Dutoi, T. R. Furlani,
 S. R. Gwaltney, A. Heyden, S. Hirata, C.-P. Hsu, G. Kedziora,
 R. Z. Khaliullin, P. Klunzinger, A. M. Lee, M. S. Lee, W. Liang,
 I. Lotan, N. Nair, B. Peters, E. I. Proynov, P. A. Pieniazek, 
 Y. M. Rhee, J. Ritchie, E. Rosta, C. D. Sherrill, 
 A. C. Simmonett, J. E. Subotnik, H. L. Woodcock III,
 W. Zhang, A. T. Bell, A. K. Chakraborty, D. M. Chipman,
 F. J. Keil, A. Warshel, W. J. Hehre, H. F. Schaefer III,
 J. Kong, A. I. Krylov, P. M. W. Gill, M. Head-Gordon,
 Q-Chem, Version 3.1, Q-Chem, Inc., Pittsburgh, PA (2007).

 Additional authors for Version 3.1: 
 Z. Gan, Y. Zhao, N. E. Schultz, D. Truhlar, E. Epifanovsky and M. Oana.

 Additional authors for Version 3.2: 
 R. Baer, B. R. Brooks, D. Casanova, J.-D. Chai, C.-L. Cheng, 
 C. Cramer, D. Crittenden, A. Ghysels, G. Hawkins, E. G. Hohenstein, 
 C. Kelley, W. Kurlancheek, D. Liotard, E. Livshits, P. Manohar, 
 A. Marenich, D. Neuhauser, R. Olson, M. A. Rohrdanz, K. S. Thanthiriwatte, 
 A. J. W. Thom, V. Vanovschi, C. F. Williams, Q. Wu and Z.-Q. You. 


 Intel X86 Linux Version

 Q-chem begins on Fri Mar 21 15:27:06 2014  

 Parallel job on  1  processors
Processing $rem in /usr/local/qchem/config/preferences.

theFileMan(): MAXOPENFILES=974 MAX_SUB_FILE_NUM=16
Maximum size of a physical file is 2.0 GB, maximum size of a tmp-file is 32.0 GB


--------------------------------------------------------------
User input:
--------------------------------------------------------------

$molecule
0,1
Li         0.00000        0.00000        0.01317
H          0.00000        0.00000        1.60790
$end

$comment
neutral
$end

$xc_functional
C PBE   1.00
X wPBE  1.00
$end


$rem
SYMMETRY_DECOMPOSITION	0
LRC_DFT                 true
exchange 		general
BASIS                   g3large
omega			600
mem_static              760
max_scf_cycles          200
scf_final_print         1
sym_ignore              true
$end

--------------------------------------------------------------
 Writing REM_CC_EA            2
 ----------------------------------------------------
       Standard Nuclear Orientation (Angstroms)
    I     Atom         X            Y            Z
 ----------------------------------------------------
    1      Li      0.000000     0.000000     0.013170
    2      H       0.000000     0.000000     1.607900
 ----------------------------------------------------
 Nuclear Repulsion Energy =     0.9954861528 hartrees
 There are        2 alpha and        2 beta electrons
 Requested basis set is G3large
 There are 16 shells and 52 basis functions

Total QAlloc Memory Limit   2000 MB
Mega-Array Size       743 MB
MEM_STATIC part       760 MB

                       Distance Matrix (Angstroms)
             Li(  1)
   H (  2)  1.594730
 
 A cutoff of  1.0D-08 yielded    136 shell pairs
 There are   1462 function pairs (  1834 Cartesian)
Evaluating contribution to one-electron hamiltonian from nuclear
 Smallest overlap matrix eigenvalue = 3.55E-03
 Multipole matrices computed through 2nd order

  Scale SEOQF with 1.000000e-02/1.000000e-02/1.000000e-02

 Standard Electronic Orientation quadrupole field applied
 Guess from superposition of atomic densities
 Warning:  Energy on first SCF cycle will be non-variational
 Long-range K will be added via erf
 Coulomb attenuation parameter = 0.6 bohr**(-1)
 A restricted Kohn-Sham SCF calculation will be
 performed using Pulay DIIS extrapolation
 Exchange:  wPBE + LR-HF      Correlation:  PBE
 Using SG-1 standard quadrature grid
 SCF converges when DIIS error is below 1.0E-05
 Requested basis set is G3large
 There are 16 shells and 52 basis functions
 A cutoff of  1.0D-08 yielded    136 shell pairs
 There are   1462 function pairs (  1834 Cartesian)
 Warning!  Inaccurate integrated density:
   Number of electrons =     4
   Numerical integral  =     4.012701451678
   Relative error      =     0.3175362920 %
 ---------------------------------------
  Cycle       Energy         DIIS Error
 ---------------------------------------
    1      -7.7606987839      5.64E-03
    2      -8.0441294645      5.35E-03
    3      -8.0609090522      2.50E-03
    4      -8.0671945754      3.03E-04
    5      -8.0674292034      1.04E-04
    6      -8.0674645583      1.36E-05
    7      -8.0674649380      2.32E-06 Convergence criterion met
 ---------------------------------------
 One-Electron    Energy =   -12.4729336936
 Total Coulomb   Energy =     5.6366713559
 Alpha Exchange  Energy =    -0.5000328032
 Beta  Exchange  Energy =    -0.5000328032
 DFT   Exchange  Energy =    -1.1414928433
 DFT Correlation Energy =    -0.0851303034
 Nuclear Repu.   Energy =     0.9954861527
 Nuclear Attr.   Energy =   -20.4364798206
 Kinetic         Energy =     7.9635461270
 SCF time:  CPU 3.57 s  wall 4.10 s
 Final Alpha MO Eigenvalues
            1           2           3           4           5           6
    1  -2.1680153  -0.3165528  -0.0081188   0.0149119   0.0149120   0.0226154
            7
    1   0.0276679
 Analysis of SCF Wavefunction
 
 --------------------------------------------------------------
                    Orbital Energies (a.u.)
 --------------------------------------------------------------
 
 Alpha MOs
 -- Occupied --
 -2.168  -0.317
 -- Virtual --
 -0.008   0.015   0.015   0.023   0.028   0.054   0.054   0.077
  0.137   0.159   0.159   0.164   0.248   0.282   0.282   0.287
  0.287   0.398   0.520   0.563   0.563   0.597   0.597   0.612
  0.612   0.617   0.617   0.655   0.850   1.107   1.107   1.227
  1.296   1.296   1.406   1.406   1.553   2.922   3.763   4.304
  4.304   4.426   6.991   6.991   7.273  20.184  20.212  21.309
 21.314  21.314
 --------------------------------------------------------------
 
          Ground-State Mulliken Net Atomic Charges

     Atom                 Charge (a.u.)
  ----------------------------------------
      1 Li                    0.351380
      2 H                    -0.351380
  ----------------------------------------
  Sum of atomic charges =     0.000000

 -----------------------------------------------------------------
                    Cartesian Multipole Moments
 -----------------------------------------------------------------
    Charge (ESU x 10^10)
                 0.0000
    Dipole Moment (Debye)
         X       0.0000      Y       0.0000      Z      -5.9849
       Tot       5.9849
    Quadrupole Moments (Debye-Ang)
        XX      -5.1339     XY       0.0000     YY      -5.1339
        XZ       0.0000     YZ       0.0000     ZZ     -12.1045
    Octapole Moments (Debye-Ang^2)
       XXX       0.0000    XXY       0.0000    XYY       0.0000
       YYY       0.0000    XXZ      -6.2589    XYZ       0.0000
       YYZ      -6.2589    XZZ       0.0000    YZZ       0.0000
       ZZZ     -26.5762
    Hexadecapole Moments (Debye-Ang^3)
      XXXX     -10.9768   XXXY       0.0001   XXYY      -3.6589
      XYYY       0.0001   YYYY     -10.9768   XXXZ       0.0000
      XXYZ       0.0000   XYYZ       0.0000   YYYZ       0.0000
      XXZZ     -11.6711   XYZZ       0.0000   YYZZ     -11.6711
      XZZZ       0.0000   YZZZ       0.0000   ZZZZ     -67.9585
 -----------------------------------------------------------------
 Total job time:  4.19s(wall), 3.63s(cpu) 
 Fri Mar 21 15:27:11 2014

        *************************************************************
        *                                                           *
        *  Thank you very much for using Q-Chem.  Have a nice day.  *
        *                                                           *
        *************************************************************


0 sent ACK to 0 
now end server 0 ... 
 
**********************************************************************
Job 3 of 3 
**********************************************************************
 
Process 0 of 1 is on cl135 - thread support 1
initial socket setup ...start
initial socket setup ...done 
now start server 0 ... 

cmd = /usr/bin/ssh clhead /usr/local/qchem/bin/get_hostid 1167727891 > /tmp/1602190.1.medium.q/qchem27650/lic.dat

cmd = /usr/bin/ssh clhead /usr/local/qchem/bin/get_hostid 1167727891 > /tmp/1602190.1.medium.q/qchem27650/lic.dat

cmd = /usr/bin/ssh clhead /usr/local/qchem/bin/get_hostid 1167727891 > /tmp/1602190.1.medium.q/qchem27650/lic.dat

cmd = /usr/bin/ssh clhead /usr/local/qchem/bin/get_hostid 1167727891 > /tmp/1602190.1.medium.q/qchem27650/lic.dat

cmd = /usr/bin/ssh clhead /usr/local/qchem/bin/get_hostid 1167727891 > /tmp/1602190.1.medium.q/qchem27650/lic.dat
                  Welcome to Q-Chem
     A Quantum Leap Into The Future Of Chemistry

 Y. Shao, L. Fusti-Molnar, Y. Jung, J. Kussmann, C. Ochsenfeld,
 S. T. Brown, A. T. B. Gilbert, L. V. Slipchenko,S. V. Levchenko,
 D. P. O'Neill, R. A. DiStasio Jr., R. C. Lochan, T. Wang,
 G. J. O. Beran, N. A. Besley, J. M. Herbert, C. Y. Lin,
 T. Van Voorhis, S. H. Chien, A. Sodt, R. P. Steele, 
 V. A. Rassolov, P. E. Maslen, P. P. Korambath, R. D. Adamson,
 B. Austin, J. Baker, E. F. C. Byrd, H. Dachsel, R. J. Doerksen,
 A. Dreuw, B. D. Dunietz, A. D. Dutoi, T. R. Furlani,
 S. R. Gwaltney, A. Heyden, S. Hirata, C.-P. Hsu, G. Kedziora,
 R. Z. Khaliullin, P. Klunzinger, A. M. Lee, M. S. Lee, W. Liang,
 I. Lotan, N. Nair, B. Peters, E. I. Proynov, P. A. Pieniazek, 
 Y. M. Rhee, J. Ritchie, E. Rosta, C. D. Sherrill, 
 A. C. Simmonett, J. E. Subotnik, H. L. Woodcock III,
 W. Zhang, A. T. Bell, A. K. Chakraborty, D. M. Chipman,
 F. J. Keil, A. Warshel, W. J. Hehre, H. F. Schaefer III,
 J. Kong, A. I. Krylov, P. M. W. Gill, M. Head-Gordon,
 Q-Chem, Version 3.1, Q-Chem, Inc., Pittsburgh, PA (2007).

 Additional authors for Version 3.1: 
 Z. Gan, Y. Zhao, N. E. Schultz, D. Truhlar, E. Epifanovsky and M. Oana.

 Additional authors for Version 3.2: 
 R. Baer, B. R. Brooks, D. Casanova, J.-D. Chai, C.-L. Cheng, 
 C. Cramer, D. Crittenden, A. Ghysels, G. Hawkins, E. G. Hohenstein, 
 C. Kelley, W. Kurlancheek, D. Liotard, E. Livshits, P. Manohar, 
 A. Marenich, D. Neuhauser, R. Olson, M. A. Rohrdanz, K. S. Thanthiriwatte, 
 A. J. W. Thom, V. Vanovschi, C. F. Williams, Q. Wu and Z.-Q. You. 


 Intel X86 Linux Version

 Q-chem begins on Fri Mar 21 15:27:15 2014  

 Parallel job on  1  processors
Processing $rem in /usr/local/qchem/config/preferences.

theFileMan(): MAXOPENFILES=974 MAX_SUB_FILE_NUM=16
Maximum size of a physical file is 2.0 GB, maximum size of a tmp-file is 32.0 GB


--------------------------------------------------------------
User input:
--------------------------------------------------------------

$molecule
1,2
Li         0.00000        0.00000        0.01317
H          0.00000        0.00000        1.60790
$end

$comment
positive
$end

$xc_functional
C PBE   1.00
X wPBE  1.00
$end

$rem
SYMMETRY_DECOMPOSITION	0
LRC_DFT                 true
exchange 		general
BASIS                   g3large
omega			600
mem_static              760
max_scf_cycles          200
scf_final_print         1
sym_ignore              true
$end

--------------------------------------------------------------
 Writing REM_CC_EA            2
 ----------------------------------------------------
       Standard Nuclear Orientation (Angstroms)
    I     Atom         X            Y            Z
 ----------------------------------------------------
    1      Li      0.000000     0.000000     0.013170
    2      H       0.000000     0.000000     1.607900
 ----------------------------------------------------
 Nuclear Repulsion Energy =     0.9954861528 hartrees
 There are        2 alpha and        1 beta electrons
 Requested basis set is G3large
 There are 16 shells and 52 basis functions

Total QAlloc Memory Limit   2000 MB
Mega-Array Size       743 MB
MEM_STATIC part       760 MB

                       Distance Matrix (Angstroms)
             Li(  1)
   H (  2)  1.594730
 
 A cutoff of  1.0D-08 yielded    136 shell pairs
 There are   1462 function pairs (  1834 Cartesian)
Evaluating contribution to one-electron hamiltonian from nuclear
 Smallest overlap matrix eigenvalue = 3.55E-03
 Multipole matrices computed through 2nd order

  Scale SEOQF with 1.000000e-02/1.000000e-02/1.000000e-02

 Standard Electronic Orientation quadrupole field applied
 Guess from superposition of atomic densities
 Warning:  Energy on first SCF cycle will be non-variational
 Long-range K will be added via erf
 Coulomb attenuation parameter = 0.6 bohr**(-1)
 An unrestricted Kohn-Sham SCF calculation will be
 performed using Pulay DIIS extrapolation
 Exchange:  wPBE + LR-HF      Correlation:  PBE
 Using SG-1 standard quadrature grid
 SCF converges when DIIS error is below 1.0E-05
 Requested basis set is G3large
 There are 16 shells and 52 basis functions
 A cutoff of  1.0D-08 yielded    136 shell pairs
 There are   1462 function pairs (  1834 Cartesian)
 Warning!  Inaccurate integrated density:
   Number of electrons =     3
   Numerical integral  =     4.012701451678
   Relative error      =    33.7567150559 %
 ---------------------------------------
  Cycle       Energy         DIIS Error
 ---------------------------------------
    1      -7.7606987839      5.64E-03
    2      -7.7602230637      2.52E-03
    3      -7.7714155381      9.40E-04
    4      -7.7732072747      6.68E-05
    5      -7.7732148511      1.13E-05
    6      -7.7732150622      2.17E-06 Convergence criterion met
 ---------------------------------------
 One-Electron    Energy =   -11.0690390448
 Total Coulomb   Energy =     4.3212778206
 Alpha Exchange  Energy =    -0.5380653091
 Beta  Exchange  Energy =    -0.3077033107
 DFT   Exchange  Energy =    -1.1232740460
 DFT Correlation Energy =    -0.0518973250
 Nuclear Repu.   Energy =     0.9954861527
 Nuclear Attr.   Energy =   -18.8459150301
 Kinetic         Energy =     7.7768759854
 <S^2> = 0.7500
 SCF time:  CPU 3.25 s  wall 3.76 s
 Final Alpha MO Eigenvalues
            1           2           3           4           5           6
    1  -2.5031459  -0.8022274  -0.1732638  -0.1357501  -0.1357350  -0.0864133
            7
    1  -0.0684154
 Final Beta MO Eigenvalues
            1           2           3           4           5           6
    1  -2.4996689  -0.2107852  -0.1455477  -0.1269203  -0.1268803  -0.0767042
 Analysis of SCF Wavefunction
 
 --------------------------------------------------------------
                    Orbital Energies (a.u.)
 --------------------------------------------------------------
 
 Alpha MOs
 -- Occupied --
 -2.503  -0.802
 -- Virtual --
 -0.173  -0.136  -0.136  -0.086  -0.068  -0.058  -0.058  -0.050
 -0.026  -0.005  -0.005  -0.005   0.041   0.058   0.058   0.082
  0.082   0.198   0.242   0.310   0.310   0.356   0.357   0.357
  0.387   0.387   0.396   0.396   0.587   0.763   0.763   0.881
  1.022   1.022   1.091   1.091   1.243   2.423   3.393   3.784
  3.784   3.940   6.660   6.660   6.939  19.849  19.875  20.974
 20.977  20.977
 
 Beta MOs
 -- Occupied --
 -2.500
 -- Virtual --
 -0.211  -0.146  -0.127  -0.127  -0.077  -0.061  -0.056  -0.056
 -0.037  -0.013  -0.003  -0.001  -0.001   0.080   0.080   0.084
  0.084   0.103   0.203   0.296   0.312   0.312   0.389   0.390
  0.395   0.395   0.398   0.398   0.477   0.665   0.882   0.883
  1.023   1.024   1.057   1.175   1.176   1.287   2.816   3.484
  4.200   4.201   4.382   6.662   6.662   6.944  19.853  19.879
 20.974  20.977  20.977
 --------------------------------------------------------------
 
          Ground-State Mulliken Net Atomic Charges

     Atom                 Charge (a.u.)    Spin (a.u.)
  --------------------------------------------------------
      1 Li                    0.827197       0.171316
      2 H                     0.172803       0.828684
  --------------------------------------------------------
  Sum of atomic charges =     1.000000
  Sum of spin   charges =     1.000000

 -----------------------------------------------------------------
                    Cartesian Multipole Moments
 -----------------------------------------------------------------
    Charge (ESU x 10^10)
                 4.8032
    Dipole Moment (Debye)
         X       0.0000      Y       0.0000      Z       0.6073
       Tot       0.6073
    Quadrupole Moments (Debye-Ang)
        XX      -1.6089     XY       0.0000     YY      -1.6089
        XZ       0.0000     YZ       0.0000     ZZ       0.0776
    Octapole Moments (Debye-Ang^2)
       XXX       0.0000    XXY       0.0000    XYY       0.0000
       YYY       0.0000    XXZ      -1.7575    XYZ       0.0000
       YYZ      -1.7575    XZZ       0.0000    YZZ       0.0000
       ZZZ      -1.3619
    Hexadecapole Moments (Debye-Ang^3)
      XXXX      -1.5482   XXXY       0.0000   XXYY      -0.5161
      XYYY       0.0000   YYYY      -1.5482   XXXZ       0.0000
      XXYZ       0.0000   XYYZ       0.0000   YYYZ       0.0000
      XXZZ      -3.0453   XYZZ       0.0000   YYZZ      -3.0453
      XZZZ       0.0000   YZZZ       0.0000   ZZZZ      -8.8026
 -----------------------------------------------------------------
 Total job time:  3.84s(wall), 3.31s(cpu) 
 Fri Mar 21 15:27:18 2014

        *************************************************************
        *                                                           *
        *  Thank you very much for using Q-Chem.  Have a nice day.  *
        *                                                           *
        *************************************************************


0 sent ACK to 0 
now end server 0 ... 
