Process 0 of 1 is on cl202.stfx.acenet.ca - thread support 1
initial socket setup ...start
initial socket setup ...done 
now start server 0 ... 

cmd = /usr/bin/ssh clhead /usr/local/qchem/bin/get_hostid 1101353895 > /globalscratch/itamblyn/bnl/g297_b3lyp_neut_g03Large_worked/g2g71034/omega500/qchem10302/lic.dat
                  Welcome to Q-Chem
     A Quantum Leap Into The Future Of Chemistry

 Y. Shao, L. Fusti-Molnar, Y. Jung, J. Kussmann, C. Ochsenfeld,
 S. T. Brown, A. T. B. Gilbert, L. V. Slipchenko,S. V. Levchenko,
 D. P. O'Neill, R. A. DiStasio Jr., R. C. Lochan, T. Wang,
 G. J. O. Beran, N. A. Besley, J. M. Herbert, C. Y. Lin,
 T. Van Voorhis, S. H. Chien, A. Sodt, R. P. Steele, 
 V. A. Rassolov, P. E. Maslen, P. P. Korambath, R. D. Adamson,
 B. Austin, J. Baker, E. F. C. Byrd, H. Dachsel, R. J. Doerksen,
 A. Dreuw, B. D. Dunietz, A. D. Dutoi, T. R. Furlani,
 S. R. Gwaltney, A. Heyden, S. Hirata, C.-P. Hsu, G. Kedziora,
 R. Z. Khaliullin, P. Klunzinger, A. M. Lee, M. S. Lee, W. Liang,
 I. Lotan, N. Nair, B. Peters, E. I. Proynov, P. A. Pieniazek, 
 Y. M. Rhee, J. Ritchie, E. Rosta, C. D. Sherrill, 
 A. C. Simmonett, J. E. Subotnik, H. L. Woodcock III,
 W. Zhang, A. T. Bell, A. K. Chakraborty, D. M. Chipman,
 F. J. Keil, A. Warshel, W. J. Hehre, H. F. Schaefer III,
 J. Kong, A. I. Krylov, P. M. W. Gill, M. Head-Gordon,
 Q-Chem, Version 3.1, Q-Chem, Inc., Pittsburgh, PA (2007).

 Additional authors for Version 3.1: 
 Z. Gan, Y. Zhao, N. E. Schultz, D. Truhlar, E. Epifanovsky and M. Oana.

 Additional authors for Version 3.2: 
 R. Baer, B. R. Brooks, D. Casanova, J.-D. Chai, C.-L. Cheng, 
 C. Cramer, D. Crittenden, A. Ghysels, G. Hawkins, E. G. Hohenstein, 
 C. Kelley, W. Kurlancheek, D. Liotard, E. Livshits, P. Manohar, 
 A. Marenich, D. Neuhauser, R. Olson, M. A. Rohrdanz, K. S. Thanthiriwatte, 
 A. J. W. Thom, V. Vanovschi, C. F. Williams, Q. Wu and Z.-Q. You. 


 Intel X86 Linux Version

 Q-chem begins on Tue Apr 12 20:55:26 2011  

 Parallel job on  1  processors
Processing $rem in /usr/local/qchem/config/preferences.

theFileMan(): MAXOPENFILES=974 MAX_SUB_FILE_NUM=16
Maximum size of a physical file is 2.0 GB, maximum size of a tmp-file is 32.0 GB


--------------------------------------------------------------
User input:
--------------------------------------------------------------

$molecule
-1,1
N
O,1,r

r=1.15869834

$end

$comment
negative
$end

$xc_functional
   X HF 1.0
   X BNL 1.0
   C LYP 1.0
$end

$rem
SYMMETRY_DECOMPOSITION	0
exchange 		general
BASIS                   g3large
omega			500
separate_jk		true
mem_static              760
max_scf_cycles          200
scf_final_print         1
sym_ignore              true
$end

--------------------------------------------------------------
 Writing REM_CC_EA            2
 ----------------------------------------------------
       Standard Nuclear Orientation (Angstroms)
    I     Atom         X            Y            Z
 ----------------------------------------------------
    1      N       0.000000     0.000000     0.000000
    2      O       0.000000     0.000000     1.158698
 ----------------------------------------------------
 Nuclear Repulsion Energy =    25.5751844823 hartrees
 There are        8 alpha and        8 beta electrons
 Requested basis set is G3large
 There are 20 shells and 84 basis functions

Total QAlloc Memory Limit   2000 MB
Mega-Array Size       743 MB
MEM_STATIC part       760 MB

                       Distance Matrix (Angstroms)
             N (  1)
   O (  2)  1.158698
 
 A cutoff of  1.0D-08 yielded    206 shell pairs
 There are   3662 function pairs (  4809 Cartesian)
Evaluating contribution to one-electron hamiltonian from nuclear
 Smallest overlap matrix eigenvalue = 2.14E-03
 Multipole matrices computed through 2nd order

  Scale SEOQF with 1.000000e-01/1.000000e-01/1.000000e-01

 Standard Electronic Orientation quadrupole field applied
 Nucleus-field energy     =    -0.0000000012 hartrees
 Guess from superposition of atomic densities
 Warning:  Energy on first SCF cycle will be non-variational
 A restricted hybrid HF-DFT SCF calculation will be
 performed using Pulay DIIS extrapolation
 Exchange:     1.0000 Hartree-Fock + 1.0000 BNL
 Correlation:  1.0000 LYP
 Using SG-1 standard quadrature grid
 SCF converges when DIIS error is below 1.0E-05
 Warning!  Inaccurate integrated density:
   Number of electrons =    16
   Numerical integral  =    14.999983069313
   Relative error      =    -6.2501058168 %
 ---------------------------------------
  Cycle       Energy         DIIS Error
 ---------------------------------------
    1    -128.8496655565      5.03E-02
    2    -128.6651920113      7.45E-03
    3    -128.7006151412      6.05E-03
    4    -128.7220627041      8.59E-04
    5    -128.7224648585      5.23E-04
    6    -128.7226438778      2.52E-04
    7    -128.7226933626      3.80E-05
    8    -128.7226985478      1.23E-05
    9    -128.7226986568      3.31E-06 Convergence criterion met
 ---------------------------------------
 One-Electron    Energy =  -232.6012884442
 Total Coulomb   Energy =    92.7278478355
 Alpha Exchange  Energy =    -1.9299578415
 Beta  Exchange  Energy =    -1.9299578415
 DFT   Exchange  Energy =   -10.0053081356
 DFT Correlation Energy =    -0.5592187106
 Nuclear Repu.   Energy =    25.5751844811
 Nuclear Attr.   Energy =  -361.1645161899
 Kinetic         Energy =   128.5632277457
 SCF time:  CPU 8.38 s  wall 12.67 s
 Final Alpha MO Eigenvalues
            1           2           3           4           5           6
    1 -18.6069433 -13.8609621  -1.0481857  -0.4902123  -0.3207568  -0.3206286
            7           8           9          10          11          12
    1  -0.2881117   0.0265720   0.2894083   0.3039199   0.3443330   0.3668922
           13
    1   0.3750076
 Analysis of SCF Wavefunction
 
 --------------------------------------------------------------
                    Orbital Energies (a.u.)
 --------------------------------------------------------------
 
 Alpha MOs
 -- Occupied --
-18.607 -13.861  -1.048  -0.490  -0.321  -0.321  -0.288   0.027
 -- Virtual --
  0.289   0.304   0.344   0.367   0.375   0.437   0.474   0.478
  0.631   0.819   1.128   1.136   1.155   1.315   1.369   1.371
  1.399   1.410   1.419   1.568   1.584   1.865   1.990   1.991
  2.267   2.501   2.525   2.835   3.983   3.983   4.009   4.011
  4.081   4.121   4.155   4.381   4.410   5.021   5.053   5.085
  5.118   5.162   5.167   5.435   5.451   5.459   5.475   5.842
  5.917   5.920   7.092   7.121   7.146   7.146   7.529   7.555
  7.629   8.075  36.277  37.751  37.773  38.390  40.743  40.888
 40.960  40.978  41.055  43.936  44.020  44.110  44.126  44.244
 46.102  46.120  46.863  50.658
 --------------------------------------------------------------
 
          Ground-State Mulliken Net Atomic Charges

     Atom                 Charge (a.u.)
  ----------------------------------------
      1 N                    -0.836185
      2 O                    -0.163815
  ----------------------------------------
  Sum of atomic charges =    -1.000000

 -----------------------------------------------------------------
                    Cartesian Multipole Moments
 -----------------------------------------------------------------
    Charge (ESU x 10^10)
                -4.8032
    Dipole Moment (Debye)
         X       0.0008      Y       0.0009      Z      -1.1356
       Tot       1.1356
    Quadrupole Moments (Debye-Ang)
        XX     -14.5381     XY      -2.2277     YY     -15.5800
        XZ      -0.0011     YZ      -0.0014     ZZ     -18.3072
    Octapole Moments (Debye-Ang^2)
       XXX       0.0041    XXY       0.0017    XYY       0.0014
       YYY       0.0050    XXZ      -5.5695    XYZ       0.3118
       YYZ      -5.4235    XZZ      -0.0008    YZZ      -0.0010
       ZZZ     -25.1600
    Hexadecapole Moments (Debye-Ang^3)
      XXXX     -21.9586   XXXY      -4.3971   XXYY      -8.0033
      XYYY      -4.3957   YYYY     -26.0722   XXXZ      -0.0033
      XXYZ      -0.0014   XYYZ      -0.0011   YYYZ      -0.0042
      XXZZ     -15.6301   XYZZ      -2.5309   YYZZ     -16.8136
      XZZZ      -0.0050   YZZZ      -0.0062   ZZZZ     -77.5429
 -----------------------------------------------------------------
 Total job time:  13.15s(wall), 8.48s(cpu) 
 Tue Apr 12 20:55:39 2011

        *************************************************************
        *                                                           *
        *  Thank you very much for using Q-Chem.  Have a nice day.  *
        *                                                           *
        *************************************************************


0 sent ACK to 0 
now end server 0 ... 
 
**********************************************************************
Job 2 of 3 
**********************************************************************
 
Process 0 of 1 is on cl202.stfx.acenet.ca - thread support 1
initial socket setup ...start
initial socket setup ...done 
now start server 0 ... 

cmd = /usr/bin/ssh clhead /usr/local/qchem/bin/get_hostid 531424184 > /globalscratch/itamblyn/bnl/g297_b3lyp_neut_g03Large_worked/g2g71034/omega500/qchem10302/lic.dat
                  Welcome to Q-Chem
     A Quantum Leap Into The Future Of Chemistry

 Y. Shao, L. Fusti-Molnar, Y. Jung, J. Kussmann, C. Ochsenfeld,
 S. T. Brown, A. T. B. Gilbert, L. V. Slipchenko,S. V. Levchenko,
 D. P. O'Neill, R. A. DiStasio Jr., R. C. Lochan, T. Wang,
 G. J. O. Beran, N. A. Besley, J. M. Herbert, C. Y. Lin,
 T. Van Voorhis, S. H. Chien, A. Sodt, R. P. Steele, 
 V. A. Rassolov, P. E. Maslen, P. P. Korambath, R. D. Adamson,
 B. Austin, J. Baker, E. F. C. Byrd, H. Dachsel, R. J. Doerksen,
 A. Dreuw, B. D. Dunietz, A. D. Dutoi, T. R. Furlani,
 S. R. Gwaltney, A. Heyden, S. Hirata, C.-P. Hsu, G. Kedziora,
 R. Z. Khaliullin, P. Klunzinger, A. M. Lee, M. S. Lee, W. Liang,
 I. Lotan, N. Nair, B. Peters, E. I. Proynov, P. A. Pieniazek, 
 Y. M. Rhee, J. Ritchie, E. Rosta, C. D. Sherrill, 
 A. C. Simmonett, J. E. Subotnik, H. L. Woodcock III,
 W. Zhang, A. T. Bell, A. K. Chakraborty, D. M. Chipman,
 F. J. Keil, A. Warshel, W. J. Hehre, H. F. Schaefer III,
 J. Kong, A. I. Krylov, P. M. W. Gill, M. Head-Gordon,
 Q-Chem, Version 3.1, Q-Chem, Inc., Pittsburgh, PA (2007).

 Additional authors for Version 3.1: 
 Z. Gan, Y. Zhao, N. E. Schultz, D. Truhlar, E. Epifanovsky and M. Oana.

 Additional authors for Version 3.2: 
 R. Baer, B. R. Brooks, D. Casanova, J.-D. Chai, C.-L. Cheng, 
 C. Cramer, D. Crittenden, A. Ghysels, G. Hawkins, E. G. Hohenstein, 
 C. Kelley, W. Kurlancheek, D. Liotard, E. Livshits, P. Manohar, 
 A. Marenich, D. Neuhauser, R. Olson, M. A. Rohrdanz, K. S. Thanthiriwatte, 
 A. J. W. Thom, V. Vanovschi, C. F. Williams, Q. Wu and Z.-Q. You. 


 Intel X86 Linux Version

 Q-chem begins on Tue Apr 12 20:55:43 2011  

 Parallel job on  1  processors
Processing $rem in /usr/local/qchem/config/preferences.

theFileMan(): MAXOPENFILES=974 MAX_SUB_FILE_NUM=16
Maximum size of a physical file is 2.0 GB, maximum size of a tmp-file is 32.0 GB


--------------------------------------------------------------
User input:
--------------------------------------------------------------

$molecule
0,2
N
O,1,r

r=1.15869834

$end

$comment
neutral
$end

$xc_functional
   X HF 1.0
   X BNL 1.0
   C LYP 1.0
$end

$rem
SYMMETRY_DECOMPOSITION	0
exchange 		general
BASIS                   g3large
omega			500
separate_jk		true
mem_static              760
max_scf_cycles          200
scf_final_print         1
sym_ignore              true
$end

--------------------------------------------------------------
 Writing REM_CC_EA            2
 ----------------------------------------------------
       Standard Nuclear Orientation (Angstroms)
    I     Atom         X            Y            Z
 ----------------------------------------------------
    1      N       0.000000     0.000000     0.000000
    2      O       0.000000     0.000000     1.158698
 ----------------------------------------------------
 Nuclear Repulsion Energy =    25.5751844823 hartrees
 There are        8 alpha and        7 beta electrons
 Requested basis set is G3large
 There are 20 shells and 84 basis functions

Total QAlloc Memory Limit   2000 MB
Mega-Array Size       743 MB
MEM_STATIC part       760 MB

                       Distance Matrix (Angstroms)
             N (  1)
   O (  2)  1.158698
 
 A cutoff of  1.0D-08 yielded    206 shell pairs
 There are   3662 function pairs (  4809 Cartesian)
Evaluating contribution to one-electron hamiltonian from nuclear
 Smallest overlap matrix eigenvalue = 2.14E-03
 Multipole matrices computed through 2nd order

  Scale SEOQF with 1.000000e-01/1.000000e-01/1.000000e-01

 Standard Electronic Orientation quadrupole field applied
 Nucleus-field energy     =    -0.0000000012 hartrees
 Guess from superposition of atomic densities
 Warning:  Energy on first SCF cycle will be non-variational
 An unrestricted hybrid HF-DFT SCF calculation will be
 performed using Pulay DIIS extrapolation
 Exchange:     1.0000 Hartree-Fock + 1.0000 BNL
 Correlation:  1.0000 LYP
 Using SG-1 standard quadrature grid
 SCF converges when DIIS error is below 1.0E-05
 ---------------------------------------
  Cycle       Energy         DIIS Error
 ---------------------------------------
    1    -128.8496655565      5.03E-02
    2    -128.7387949219      5.63E-03
    3    -128.7539018595      4.30E-03
    4    -128.7632541419      1.82E-03
    5    -128.7653148673      2.66E-04
    6    -128.7654856566      8.11E-05
    7    -128.7655159533      2.57E-05
    8    -128.7655227261      5.95E-06 Convergence criterion met
 ---------------------------------------
 One-Electron    Energy =  -227.3510036775
 Total Coulomb   Energy =    87.1274515834
 Alpha Exchange  Energy =    -1.9725958115
 Beta  Exchange  Energy =    -1.7125556453
 DFT   Exchange  Energy =    -9.9047974626
 DFT Correlation Energy =    -0.5272061936
 Nuclear Repu.   Energy =    25.5751844811
 Nuclear Attr.   Energy =  -355.5718622857
 Kinetic         Energy =   128.2208586082
 <S^2> = 0.7529
 SCF time:  CPU 8.86 s  wall 11.97 s
 Final Alpha MO Eigenvalues
            1           2           3           4           5           6
    1 -18.9879395 -14.2584469  -1.4157359  -0.8508360  -0.7028667  -0.6678240
            7           8           9          10          11          12
    1  -0.6467253  -0.3717538  -0.0040901   0.0980566   0.1429790   0.1513464
           13
    1   0.1528140
 Final Beta MO Eigenvalues
            1           2           3           4           5           6
    1 -18.9772691 -14.2411312  -1.3950631  -0.8097299  -0.6555089  -0.6206170
            7           8           9          10          11          12
    1  -0.6185488   0.0126510   0.0480629   0.0977053   0.1430889   0.1526720
 Analysis of SCF Wavefunction
 
 --------------------------------------------------------------
                    Orbital Energies (a.u.)
 --------------------------------------------------------------
 
 Alpha MOs
 -- Occupied --
-18.988 -14.258  -1.416  -0.851  -0.703  -0.668  -0.647  -0.372
 -- Virtual --
 -0.004   0.098   0.143   0.151   0.153   0.233   0.261   0.262
  0.395   0.504   0.822   0.829   0.830   1.028   1.029   1.031
  1.091   1.113   1.116   1.230   1.238   1.560   1.655   1.655
  1.934   2.182   2.185   2.508   3.610   3.610   3.648   3.649
  3.716   3.719   3.793   4.031   4.037   4.651   4.700   4.703
  4.761   4.762   4.765   5.086   5.091   5.099   5.100   5.492
  5.561   5.562   6.737   6.742   6.771   6.772   7.182   7.187
  7.271   7.714  35.880  37.360  37.364  38.000  40.332  40.478
 40.569  40.569  40.659  43.547  43.631  43.736  43.736  43.863
 45.727  45.731  46.487  50.279
 
 Beta MOs
 -- Occupied --
-18.977 -14.241  -1.395  -0.810  -0.656  -0.621  -0.619
 -- Virtual --
  0.013   0.048   0.098   0.143   0.153   0.161   0.232   0.263
  0.270   0.397   0.522   0.833   0.838   0.864   1.035   1.054
  1.054   1.109   1.117   1.136   1.245   1.272   1.570   1.679
  1.679   1.949   2.187   2.210   2.521   3.647   3.647   3.671
  3.673   3.740   3.781   3.817   4.042   4.069   4.672   4.714
  4.748   4.780   4.822   4.828   5.097   5.118   5.124   5.136
  5.506   5.580   5.582   6.747   6.775   6.806   6.806   7.192
  7.219   7.286   7.732  35.903  37.372  37.395  38.011  40.372
 40.516  40.583  40.607  40.680  43.574  43.658  43.745  43.764
 43.880  45.734  45.753  46.494  50.292
 --------------------------------------------------------------
 
          Ground-State Mulliken Net Atomic Charges

     Atom                 Charge (a.u.)    Spin (a.u.)
  --------------------------------------------------------
      1 N                    -0.059210       0.718571
      2 O                     0.059210       0.281429
  --------------------------------------------------------
  Sum of atomic charges =     0.000000
  Sum of spin   charges =     1.000000

 -----------------------------------------------------------------
                    Cartesian Multipole Moments
 -----------------------------------------------------------------
    Charge (ESU x 10^10)
                 0.0000
    Dipole Moment (Debye)
         X      -0.0003      Y      -0.0002      Z       0.0479
       Tot       0.0479
    Quadrupole Moments (Debye-Ang)
        XX     -10.2958     XY      -0.5632     YY     -10.5593
        XZ       0.0004     YZ       0.0005     ZZ     -11.5450
    Octapole Moments (Debye-Ang^2)
       XXX      -0.0003    XXY      -0.0001    XYY      -0.0001
       YYY      -0.0004    XXZ      -5.7095    XYZ      -0.1399
       YYZ      -5.7749    XZZ       0.0002    YZZ       0.0003
       ZZZ     -18.7308
    Hexadecapole Moments (Debye-Ang^3)
      XXXX      -8.5626   XXXY      -0.4491   XXYY      -2.9241
      XYYY      -0.4490   YYYY      -8.9827   XXXZ       0.0006
      XXYZ       0.0002   XYYZ       0.0002   YYYZ       0.0006
      XXZZ      -9.8969   XYZZ      -0.5176   YYZZ     -10.1389
      XZZZ       0.0009   YZZZ       0.0011   ZZZZ     -52.2795
 -----------------------------------------------------------------
 Total job time:  13.12s(wall), 8.97s(cpu) 
 Tue Apr 12 20:55:56 2011

        *************************************************************
        *                                                           *
        *  Thank you very much for using Q-Chem.  Have a nice day.  *
        *                                                           *
        *************************************************************


0 sent ACK to 0 
now end server 0 ... 
 
**********************************************************************
Job 3 of 3 
**********************************************************************
 
Process 0 of 1 is on cl202.stfx.acenet.ca - thread support 1
initial socket setup ...start
initial socket setup ...done 
now start server 0 ... 

cmd = /usr/bin/ssh clhead /usr/local/qchem/bin/get_hostid 1028426399 > /globalscratch/itamblyn/bnl/g297_b3lyp_neut_g03Large_worked/g2g71034/omega500/qchem10302/lic.dat
                  Welcome to Q-Chem
     A Quantum Leap Into The Future Of Chemistry

 Y. Shao, L. Fusti-Molnar, Y. Jung, J. Kussmann, C. Ochsenfeld,
 S. T. Brown, A. T. B. Gilbert, L. V. Slipchenko,S. V. Levchenko,
 D. P. O'Neill, R. A. DiStasio Jr., R. C. Lochan, T. Wang,
 G. J. O. Beran, N. A. Besley, J. M. Herbert, C. Y. Lin,
 T. Van Voorhis, S. H. Chien, A. Sodt, R. P. Steele, 
 V. A. Rassolov, P. E. Maslen, P. P. Korambath, R. D. Adamson,
 B. Austin, J. Baker, E. F. C. Byrd, H. Dachsel, R. J. Doerksen,
 A. Dreuw, B. D. Dunietz, A. D. Dutoi, T. R. Furlani,
 S. R. Gwaltney, A. Heyden, S. Hirata, C.-P. Hsu, G. Kedziora,
 R. Z. Khaliullin, P. Klunzinger, A. M. Lee, M. S. Lee, W. Liang,
 I. Lotan, N. Nair, B. Peters, E. I. Proynov, P. A. Pieniazek, 
 Y. M. Rhee, J. Ritchie, E. Rosta, C. D. Sherrill, 
 A. C. Simmonett, J. E. Subotnik, H. L. Woodcock III,
 W. Zhang, A. T. Bell, A. K. Chakraborty, D. M. Chipman,
 F. J. Keil, A. Warshel, W. J. Hehre, H. F. Schaefer III,
 J. Kong, A. I. Krylov, P. M. W. Gill, M. Head-Gordon,
 Q-Chem, Version 3.1, Q-Chem, Inc., Pittsburgh, PA (2007).

 Additional authors for Version 3.1: 
 Z. Gan, Y. Zhao, N. E. Schultz, D. Truhlar, E. Epifanovsky and M. Oana.

 Additional authors for Version 3.2: 
 R. Baer, B. R. Brooks, D. Casanova, J.-D. Chai, C.-L. Cheng, 
 C. Cramer, D. Crittenden, A. Ghysels, G. Hawkins, E. G. Hohenstein, 
 C. Kelley, W. Kurlancheek, D. Liotard, E. Livshits, P. Manohar, 
 A. Marenich, D. Neuhauser, R. Olson, M. A. Rohrdanz, K. S. Thanthiriwatte, 
 A. J. W. Thom, V. Vanovschi, C. F. Williams, Q. Wu and Z.-Q. You. 


 Intel X86 Linux Version

 Q-chem begins on Tue Apr 12 20:55:59 2011  

 Parallel job on  1  processors
Processing $rem in /usr/local/qchem/config/preferences.

theFileMan(): MAXOPENFILES=974 MAX_SUB_FILE_NUM=16
Maximum size of a physical file is 2.0 GB, maximum size of a tmp-file is 32.0 GB


--------------------------------------------------------------
User input:
--------------------------------------------------------------

$molecule
1,1
N
O,1,r

r=1.15869834

$end

$comment
positive
$end

$xc_functional
   X HF 1.0
   X BNL 1.0
   C LYP 1.0
$end

$rem
SYMMETRY_DECOMPOSITION	0
exchange 		general
BASIS                   g3large
omega			500
separate_jk		true
mem_static              760
max_scf_cycles          200
scf_final_print         1
sym_ignore              true
$end

--------------------------------------------------------------
 Writing REM_CC_EA            2
 ----------------------------------------------------
       Standard Nuclear Orientation (Angstroms)
    I     Atom         X            Y            Z
 ----------------------------------------------------
    1      N       0.000000     0.000000     0.000000
    2      O       0.000000     0.000000     1.158698
 ----------------------------------------------------
 Nuclear Repulsion Energy =    25.5751844823 hartrees
 There are        7 alpha and        7 beta electrons
 Requested basis set is G3large
 There are 20 shells and 84 basis functions

Total QAlloc Memory Limit   2000 MB
Mega-Array Size       743 MB
MEM_STATIC part       760 MB

                       Distance Matrix (Angstroms)
             N (  1)
   O (  2)  1.158698
 
 A cutoff of  1.0D-08 yielded    206 shell pairs
 There are   3662 function pairs (  4809 Cartesian)
Evaluating contribution to one-electron hamiltonian from nuclear
 Smallest overlap matrix eigenvalue = 2.14E-03
 Multipole matrices computed through 2nd order

  Scale SEOQF with 1.000000e-01/1.000000e-01/1.000000e-01

 Standard Electronic Orientation quadrupole field applied
 Nucleus-field energy     =    -0.0000000012 hartrees
 Guess from superposition of atomic densities
 Warning:  Energy on first SCF cycle will be non-variational
 A restricted hybrid HF-DFT SCF calculation will be
 performed using Pulay DIIS extrapolation
 Exchange:     1.0000 Hartree-Fock + 1.0000 BNL
 Correlation:  1.0000 LYP
 Using SG-1 standard quadrature grid
 SCF converges when DIIS error is below 1.0E-05
 Warning!  Inaccurate integrated density:
   Number of electrons =    14
   Numerical integral  =    14.999983069313
   Relative error      =     7.1427362094 %
 ---------------------------------------
  Cycle       Energy         DIIS Error
 ---------------------------------------
    1    -128.8496655565      5.03E-02
    2    -128.2691900929      1.14E-02
    3    -128.3284481381      9.34E-03
    4    -128.3585236153      5.82E-03
    5    -128.3761597114      3.97E-04
    6    -128.3764121425      1.09E-04
    7    -128.3764523532      3.59E-05
    8    -128.3764574183      7.53E-06 Convergence criterion met
 ---------------------------------------
 One-Electron    Energy =  -220.7104914794
 Total Coulomb   Energy =    80.4000918934
 Alpha Exchange  Energy =    -1.7286966032
 Beta  Exchange  Energy =    -1.7286966032
 DFT   Exchange  Energy =    -9.6881463810
 DFT Correlation Energy =    -0.4957027260
 Nuclear Repu.   Energy =    25.5751844811
 Nuclear Attr.   Energy =  -348.1305395404
 Kinetic         Energy =   127.4200480610
 SCF time:  CPU 7.52 s  wall 10.39 s
 Final Alpha MO Eigenvalues
            1           2           3           4           5           6
    1 -19.4784447 -14.7731777  -1.8596520  -1.2546341  -1.0896308  -1.0896278
            7           8           9          10          11          12
    1  -1.0607996  -0.4086394  -0.4086377  -0.1255491  -0.0716060  -0.0689443
 Analysis of SCF Wavefunction
 
 --------------------------------------------------------------
                    Orbital Energies (a.u.)
 --------------------------------------------------------------
 
 Alpha MOs
 -- Occupied --
-19.478 -14.773  -1.860  -1.255  -1.090  -1.090  -1.061
 -- Virtual --
 -0.409  -0.409  -0.126  -0.072  -0.069  -0.069   0.010   0.042
  0.042   0.119   0.153   0.489   0.502   0.502   0.654   0.654
  0.709   0.746   0.783   0.783   0.856   0.856   1.212   1.277
  1.277   1.561   1.807   1.807   2.125   3.201   3.201   3.235
  3.235   3.288   3.288   3.376   3.608   3.608   4.207   4.277
  4.277   4.325   4.325   4.352   4.664   4.664   4.682   4.682
  5.069   5.141   5.141   6.301   6.301   6.334   6.334   6.758
  6.758   6.835   7.278  35.376  36.851  36.851  37.491  39.827
 39.973  40.063  40.063  40.153  43.066  43.151  43.255  43.255
 43.382  45.242  45.242  46.002  49.795
 --------------------------------------------------------------
 
          Ground-State Mulliken Net Atomic Charges

     Atom                 Charge (a.u.)
  ----------------------------------------
      1 N                     0.468670
      2 O                     0.531330
  ----------------------------------------
  Sum of atomic charges =     1.000000

 -----------------------------------------------------------------
                    Cartesian Multipole Moments
 -----------------------------------------------------------------
    Charge (ESU x 10^10)
                 4.8032
    Dipole Moment (Debye)
         X      -0.0001      Y       0.0000      Z       2.3193
       Tot       2.3193
    Quadrupole Moments (Debye-Ang)
        XX      -8.1524     XY       0.0000     YY      -8.1524
        XZ       0.0000     YZ       0.0000     ZZ      -6.0011
    Octapole Moments (Debye-Ang^2)
       XXX       0.0000    XXY       0.0000    XYY       0.0000
       YYY       0.0000    XXZ      -4.8216    XYZ      -0.0002
       YYZ      -4.8217    XZZ      -0.0001    YZZ       0.0000
       ZZZ     -11.4471
    Hexadecapole Moments (Debye-Ang^3)
      XXXX      -5.3760   XXXY       0.0000   XXYY      -1.7920
      XYYY       0.0000   YYYY      -5.3760   XXXZ       0.0000
      XXYZ       0.0000   XYYZ       0.0000   YYYZ       0.0000
      XXZZ      -7.3788   XYZZ      -0.0002   YYZZ      -7.3788
      XZZZ      -0.0002   YZZZ      -0.0001   ZZZZ     -35.9555
 -----------------------------------------------------------------
 Total job time:  11.06s(wall), 7.62s(cpu) 
 Tue Apr 12 20:56:10 2011

        *************************************************************
        *                                                           *
        *  Thank you very much for using Q-Chem.  Have a nice day.  *
        *                                                           *
        *************************************************************


0 sent ACK to 0 
now end server 0 ... 
