Process 0 of 1 is on cl085.stfx.acenet.ca - thread support 1
initial socket setup ...start
initial socket setup ...done 
now start server 0 ... 

cmd = /usr/bin/ssh clhead /usr/local/qchem/bin/get_hostid 275146118 > /scratch/tmp/5955790.1.short.q/qchem28260/lic.dat
                  Welcome to Q-Chem
     A Quantum Leap Into The Future Of Chemistry

 Y. Shao, L. Fusti-Molnar, Y. Jung, J. Kussmann, C. Ochsenfeld,
 S. T. Brown, A. T. B. Gilbert, L. V. Slipchenko,S. V. Levchenko,
 D. P. O'Neill, R. A. DiStasio Jr., R. C. Lochan, T. Wang,
 G. J. O. Beran, N. A. Besley, J. M. Herbert, C. Y. Lin,
 T. Van Voorhis, S. H. Chien, A. Sodt, R. P. Steele, 
 V. A. Rassolov, P. E. Maslen, P. P. Korambath, R. D. Adamson,
 B. Austin, J. Baker, E. F. C. Byrd, H. Dachsel, R. J. Doerksen,
 A. Dreuw, B. D. Dunietz, A. D. Dutoi, T. R. Furlani,
 S. R. Gwaltney, A. Heyden, S. Hirata, C.-P. Hsu, G. Kedziora,
 R. Z. Khaliullin, P. Klunzinger, A. M. Lee, M. S. Lee, W. Liang,
 I. Lotan, N. Nair, B. Peters, E. I. Proynov, P. A. Pieniazek, 
 Y. M. Rhee, J. Ritchie, E. Rosta, C. D. Sherrill, 
 A. C. Simmonett, J. E. Subotnik, H. L. Woodcock III,
 W. Zhang, A. T. Bell, A. K. Chakraborty, D. M. Chipman,
 F. J. Keil, A. Warshel, W. J. Hehre, H. F. Schaefer III,
 J. Kong, A. I. Krylov, P. M. W. Gill, M. Head-Gordon,
 Q-Chem, Version 3.1, Q-Chem, Inc., Pittsburgh, PA (2007).

 Additional authors for Version 3.1: 
 Z. Gan, Y. Zhao, N. E. Schultz, D. Truhlar, E. Epifanovsky and M. Oana.

 Additional authors for Version 3.2: 
 R. Baer, B. R. Brooks, D. Casanova, J.-D. Chai, C.-L. Cheng, 
 C. Cramer, D. Crittenden, A. Ghysels, G. Hawkins, E. G. Hohenstein, 
 C. Kelley, W. Kurlancheek, D. Liotard, E. Livshits, P. Manohar, 
 A. Marenich, D. Neuhauser, R. Olson, M. A. Rohrdanz, K. S. Thanthiriwatte, 
 A. J. W. Thom, V. Vanovschi, C. F. Williams, Q. Wu and Z.-Q. You. 


 Intel X86 Linux Version

 Q-chem begins on Tue Apr 30 21:22:49 2013  

 Parallel job on  1  processors
Processing $rem in /usr/local/qchem/config/preferences.

theFileMan(): MAXOPENFILES=974 MAX_SUB_FILE_NUM=16
Maximum size of a physical file is 2.0 GB, maximum size of a tmp-file is 32.0 GB


--------------------------------------------------------------
User input:
--------------------------------------------------------------

$molecule
-1,2
C
S,1,CS

CS=1.54765317

$end

$comment
negative
$end

$xc_functional
C PBE   1.00
X wPBE  1.00
$end

$rem
SYMMETRY_DECOMPOSITION	0
exchange 		general
LRC_DFT                 true
BASIS                   g3large
omega			250
mem_static              760
max_scf_cycles          200
scf_final_print         1
sym_ignore              true
$end

--------------------------------------------------------------
 Writing REM_CC_EA            2
 ----------------------------------------------------
       Standard Nuclear Orientation (Angstroms)
    I     Atom         X            Y            Z
 ----------------------------------------------------
    1      C       0.000000     0.000000     0.000000
    2      S       0.000000     0.000000     1.547653
 ----------------------------------------------------
 Nuclear Repulsion Energy =    32.8245457196 hartrees
 There are       12 alpha and       11 beta electrons
 Requested basis set is G3large
 There are 29 shells and 108 basis functions

Total QAlloc Memory Limit   2000 MB
Mega-Array Size       743 MB
MEM_STATIC part       760 MB

                       Distance Matrix (Angstroms)
             C (  1)
   S (  2)  1.547653
 
 A cutoff of  1.0D-08 yielded    423 shell pairs
 There are   5944 function pairs (  8263 Cartesian)
Evaluating contribution to one-electron hamiltonian from nuclear
 Smallest overlap matrix eigenvalue = 6.74E-04
 Multipole matrices computed through 2nd order

  Scale SEOQF with 1.000000e-01/1.000000e-01/1.000000e-01

 Standard Electronic Orientation quadrupole field applied
 Nucleus-field energy     =    -0.0000000041 hartrees
 Guess from superposition of atomic densities
 Warning:  Energy on first SCF cycle will be non-variational
 Long-range K will be added via erf
 Coulomb attenuation parameter = 0.25 bohr**(-1)
 An unrestricted Kohn-Sham SCF calculation will be
 performed using Pulay DIIS extrapolation
 Exchange:  wPBE + LR-HF      Correlation:  PBE
 Using SG-1 standard quadrature grid
 SCF converges when DIIS error is below 1.0E-05
 Requested basis set is G3large
 There are 29 shells and 108 basis functions
 A cutoff of  1.0D-08 yielded    423 shell pairs
 There are   5944 function pairs (  8263 Cartesian)
 Warning!  Inaccurate integrated density:
   Number of electrons =    23
   Numerical integral  =    21.999986000584
   Relative error      =    -4.3478869540 %
 ---------------------------------------
  Cycle       Energy         DIIS Error
 ---------------------------------------
    1    -436.1321845354      3.22E-02
    2    -435.9786528688      4.67E-03
    3    -436.0117257967      4.53E-03
    4    -436.0459746679      1.11E-03
    5    -436.0487155169      4.31E-04
    6    -436.0498167787      1.52E-04
    7    -436.0502274994      6.63E-05
    8    -436.0503342339      2.20E-05
    9    -436.0503504001      8.62E-06 Convergence criterion met
 ---------------------------------------
 One-Electron    Energy =  -671.5763075692
 Total Coulomb   Energy =   233.7352051839
 Alpha Exchange  Energy =    -1.5950938057
 Beta  Exchange  Energy =    -1.4687262288
 DFT   Exchange  Energy =   -27.1515403991
 DFT Correlation Energy =    -0.8184332968
 Nuclear Repu.   Energy =    32.8245457155
 Nuclear Attr.   Energy = -1107.1512894186
 Kinetic         Energy =   435.5749818495
 <S^2> = 0.7558
 SCF time:  CPU 25.81 s  wall 27.90 s
 Final Alpha MO Eigenvalues
            1           2           3           4           5           6
    1 -87.9477558  -9.8183047  -7.5855832  -5.6030714  -5.6011476  -5.5996940
            7           8           9          10          11          12
    1  -0.6351251  -0.3453625  -0.1907421  -0.1801415  -0.1350730   0.0084651
           13          14          15          16          17
    1   0.2138595   0.2149543   0.2296931   0.2498715   0.2502382
 Final Beta MO Eigenvalues
            1           2           3           4           5           6
    1 -87.9471248  -9.8086864  -7.5848856  -5.6028086  -5.6008798  -5.5974102
            7           8           9          10          11          12
    1  -0.6249389  -0.3206937  -0.1766397  -0.1556373  -0.1190341   0.2163099
           13          14          15          16
    1   0.2226129   0.2320212   0.2397762   0.2511066
 Analysis of SCF Wavefunction
 
 --------------------------------------------------------------
                    Orbital Energies (a.u.)
 --------------------------------------------------------------
 
 Alpha MOs
 -- Occupied --
-87.948  -9.818  -7.586  -5.603  -5.601  -5.600  -0.635  -0.345
 -0.191  -0.180  -0.135   0.008
 -- Virtual --
  0.214   0.215   0.230   0.250   0.250   0.289   0.305   0.314
  0.386   0.435   0.502   0.503   0.568   0.594   0.604   0.669
  0.672   0.714   0.836   0.844   0.895   0.975   0.977   1.023
  1.153   1.154   1.155   1.156   1.225   1.252   1.253   1.304
  1.337   1.338   1.341   1.342   1.617   1.622   1.623   1.740
  2.089   2.092   2.306   3.017   3.025   3.125   3.125   3.156
  3.159   3.194   3.196   3.281   3.457   3.612   3.617   3.740
  3.740   3.795   3.796   3.854   3.862   4.023   4.204   4.205
  4.549   4.793   4.796   5.189   5.193   5.603   8.639  17.247
 17.250  17.724  23.511  23.592  23.683  23.790  23.792  24.180
 27.435  27.440  27.994  31.053  31.053  31.061  31.061  31.086
 31.089  31.128  40.977  41.075  41.254  41.288  41.290 189.176
 
 Beta MOs
 -- Occupied --
-87.947  -9.809  -7.585  -5.603  -5.601  -5.597  -0.625  -0.321
 -0.177  -0.156  -0.119
 -- Virtual --
  0.216   0.223   0.232   0.240   0.251   0.259   0.290   0.318
  0.335   0.391   0.442   0.510   0.510   0.574   0.607   0.620
  0.669   0.682   0.721   0.852   0.875   0.903   1.001   1.002
  1.037   1.157   1.162   1.163   1.172   1.233   1.260   1.260
  1.312   1.339   1.357   1.357   1.358   1.625   1.633   1.642
  1.746   2.090   2.105   2.310   3.036   3.070   3.162   3.171
  3.171   3.183   3.219   3.222   3.300   3.467   3.667   3.667
  3.749   3.749   3.804   3.804   3.868   3.898   4.036   4.206
  4.222   4.556   4.796   4.799   5.189   5.201   5.606   8.641
 17.247  17.254  17.724  23.517  23.594  23.685  23.790  23.794
 24.185  27.447  27.463  28.000  31.054  31.054  31.061  31.061
 31.086  31.089  31.129  40.999  41.085  41.275  41.294  41.308
189.177
 --------------------------------------------------------------
 
          Ground-State Mulliken Net Atomic Charges

     Atom                 Charge (a.u.)    Spin (a.u.)
  --------------------------------------------------------
      1 C                    -0.500045       0.765412
      2 S                    -0.499955       0.234588
  --------------------------------------------------------
  Sum of atomic charges =    -1.000000
  Sum of spin   charges =     1.000000

 -----------------------------------------------------------------
                    Cartesian Multipole Moments
 -----------------------------------------------------------------
    Charge (ESU x 10^10)
                -4.8032
    Dipole Moment (Debye)
         X       0.0000      Y      -0.0001      Z      -2.3917
       Tot       2.3917
    Quadrupole Moments (Debye-Ang)
        XX     -24.4601     XY      -1.7114     YY     -24.4790
        XZ       0.0000     YZ      -0.0003     ZZ     -31.6920
    Octapole Moments (Debye-Ang^2)
       XXX      -0.0002    XXY      -0.0001    XYY      -0.0001
       YYY      -0.0002    XXZ     -24.5237    XYZ      -1.8009
       YYZ     -24.5436    XZZ      -0.0003    YZZ      -0.0006
       ZZZ     -81.3819
    Hexadecapole Moments (Debye-Ang^3)
      XXXX     -47.6002   XXXY      -4.2916   XXYY     -15.8816
      XYYY      -4.2916   YYYY     -47.6948   XXXZ      -0.0005
      XXYZ      -0.0003   XYYZ      -0.0002   YYYZ      -0.0009
      XXZZ     -58.8757   XYZZ      -6.7664   YYZZ     -58.9504
      XZZZ      -0.0013   YZZZ      -0.0022   ZZZZ    -296.6180
 -----------------------------------------------------------------
 Total job time:  28.04s(wall), 25.93s(cpu) 
 Tue Apr 30 21:23:17 2013

        *************************************************************
        *                                                           *
        *  Thank you very much for using Q-Chem.  Have a nice day.  *
        *                                                           *
        *************************************************************


0 sent ACK to 0 
now end server 0 ... 
 
**********************************************************************
Job 2 of 3 
**********************************************************************
 
Process 0 of 1 is on cl085.stfx.acenet.ca - thread support 1
initial socket setup ...start
initial socket setup ...done 
now start server 0 ... 

cmd = /usr/bin/ssh clhead /usr/local/qchem/bin/get_hostid 1586235140 > /scratch/tmp/5955790.1.short.q/qchem28260/lic.dat
                  Welcome to Q-Chem
     A Quantum Leap Into The Future Of Chemistry

 Y. Shao, L. Fusti-Molnar, Y. Jung, J. Kussmann, C. Ochsenfeld,
 S. T. Brown, A. T. B. Gilbert, L. V. Slipchenko,S. V. Levchenko,
 D. P. O'Neill, R. A. DiStasio Jr., R. C. Lochan, T. Wang,
 G. J. O. Beran, N. A. Besley, J. M. Herbert, C. Y. Lin,
 T. Van Voorhis, S. H. Chien, A. Sodt, R. P. Steele, 
 V. A. Rassolov, P. E. Maslen, P. P. Korambath, R. D. Adamson,
 B. Austin, J. Baker, E. F. C. Byrd, H. Dachsel, R. J. Doerksen,
 A. Dreuw, B. D. Dunietz, A. D. Dutoi, T. R. Furlani,
 S. R. Gwaltney, A. Heyden, S. Hirata, C.-P. Hsu, G. Kedziora,
 R. Z. Khaliullin, P. Klunzinger, A. M. Lee, M. S. Lee, W. Liang,
 I. Lotan, N. Nair, B. Peters, E. I. Proynov, P. A. Pieniazek, 
 Y. M. Rhee, J. Ritchie, E. Rosta, C. D. Sherrill, 
 A. C. Simmonett, J. E. Subotnik, H. L. Woodcock III,
 W. Zhang, A. T. Bell, A. K. Chakraborty, D. M. Chipman,
 F. J. Keil, A. Warshel, W. J. Hehre, H. F. Schaefer III,
 J. Kong, A. I. Krylov, P. M. W. Gill, M. Head-Gordon,
 Q-Chem, Version 3.1, Q-Chem, Inc., Pittsburgh, PA (2007).

 Additional authors for Version 3.1: 
 Z. Gan, Y. Zhao, N. E. Schultz, D. Truhlar, E. Epifanovsky and M. Oana.

 Additional authors for Version 3.2: 
 R. Baer, B. R. Brooks, D. Casanova, J.-D. Chai, C.-L. Cheng, 
 C. Cramer, D. Crittenden, A. Ghysels, G. Hawkins, E. G. Hohenstein, 
 C. Kelley, W. Kurlancheek, D. Liotard, E. Livshits, P. Manohar, 
 A. Marenich, D. Neuhauser, R. Olson, M. A. Rohrdanz, K. S. Thanthiriwatte, 
 A. J. W. Thom, V. Vanovschi, C. F. Williams, Q. Wu and Z.-Q. You. 


 Intel X86 Linux Version

 Q-chem begins on Tue Apr 30 21:23:20 2013  

 Parallel job on  1  processors
Processing $rem in /usr/local/qchem/config/preferences.

theFileMan(): MAXOPENFILES=974 MAX_SUB_FILE_NUM=16
Maximum size of a physical file is 2.0 GB, maximum size of a tmp-file is 32.0 GB


--------------------------------------------------------------
User input:
--------------------------------------------------------------

$molecule
0,1
C
S,1,CS

CS=1.54765317

$end

$comment
neutral
$end

$xc_functional
C PBE   1.00
X wPBE  1.00
$end


$rem
SYMMETRY_DECOMPOSITION	0
LRC_DFT                 true
exchange 		general
BASIS                   g3large
omega			250
mem_static              760
max_scf_cycles          200
scf_final_print         1
sym_ignore              true
$end

--------------------------------------------------------------
 Writing REM_CC_EA            2
 ----------------------------------------------------
       Standard Nuclear Orientation (Angstroms)
    I     Atom         X            Y            Z
 ----------------------------------------------------
    1      C       0.000000     0.000000     0.000000
    2      S       0.000000     0.000000     1.547653
 ----------------------------------------------------
 Nuclear Repulsion Energy =    32.8245457196 hartrees
 There are       11 alpha and       11 beta electrons
 Requested basis set is G3large
 There are 29 shells and 108 basis functions

Total QAlloc Memory Limit   2000 MB
Mega-Array Size       743 MB
MEM_STATIC part       760 MB

                       Distance Matrix (Angstroms)
             C (  1)
   S (  2)  1.547653
 
 A cutoff of  1.0D-08 yielded    423 shell pairs
 There are   5944 function pairs (  8263 Cartesian)
Evaluating contribution to one-electron hamiltonian from nuclear
 Smallest overlap matrix eigenvalue = 6.74E-04
 Multipole matrices computed through 2nd order

  Scale SEOQF with 1.000000e-01/1.000000e-01/1.000000e-01

 Standard Electronic Orientation quadrupole field applied
 Nucleus-field energy     =    -0.0000000041 hartrees
 Guess from superposition of atomic densities
 Warning:  Energy on first SCF cycle will be non-variational
 Long-range K will be added via erf
 Coulomb attenuation parameter = 0.25 bohr**(-1)
 A restricted Kohn-Sham SCF calculation will be
 performed using Pulay DIIS extrapolation
 Exchange:  wPBE + LR-HF      Correlation:  PBE
 Using SG-1 standard quadrature grid
 SCF converges when DIIS error is below 1.0E-05
 Requested basis set is G3large
 There are 29 shells and 108 basis functions
 A cutoff of  1.0D-08 yielded    423 shell pairs
 There are   5944 function pairs (  8263 Cartesian)
 ---------------------------------------
  Cycle       Energy         DIIS Error
 ---------------------------------------
    1    -436.1321845354      3.22E-02
    2    -436.0210470480      2.20E-03
    3    -436.0321552918      2.19E-03
    4    -436.0399277129      8.83E-04
    5    -436.0425231978      2.18E-04
    6    -436.0430043815      6.57E-05
    7    -436.0430442734      2.01E-05
    8    -436.0430449017      4.08E-06 Convergence criterion met
 ---------------------------------------
 One-Electron    Energy =  -665.4772776471
 Total Coulomb   Energy =   227.3793600485
 Alpha Exchange  Energy =    -1.4756519007
 Beta  Exchange  Energy =    -1.4756519007
 DFT   Exchange  Energy =   -27.0257772729
 DFT Correlation Energy =    -0.7925919443
 Nuclear Repu.   Energy =    32.8245457155
 Nuclear Attr.   Energy = -1100.8600655834
 Kinetic         Energy =   435.3827879363
 SCF time:  CPU 19.72 s  wall 22.25 s
 Final Alpha MO Eigenvalues
            1           2           3           4           5           6
    1 -88.2303440 -10.1250151  -7.8685020  -5.8846249  -5.8846239  -5.8830890
            7           8           9          10          11          12
    1  -0.9084571  -0.6068346  -0.4411656  -0.4411633  -0.3938617  -0.0253788
           13          14          15          16
    1  -0.0253761   0.0652750   0.0719148   0.0958942
 Analysis of SCF Wavefunction
 
 --------------------------------------------------------------
                    Orbital Energies (a.u.)
 --------------------------------------------------------------
 
 Alpha MOs
 -- Occupied --
-88.230 -10.125  -7.869  -5.885  -5.885  -5.883  -0.908  -0.607
 -0.441  -0.441  -0.394
 -- Virtual --
 -0.025  -0.025   0.065   0.072   0.096   0.096   0.131   0.151
  0.151   0.194   0.230   0.268   0.268   0.373   0.374   0.374
  0.457   0.457   0.497   0.624   0.624   0.663   0.739   0.739
  0.790   0.911   0.911   0.918   0.918   0.976   0.994   0.994
  1.074   1.087   1.087   1.104   1.104   1.371   1.384   1.384
  1.494   1.835   1.835   2.045   2.754   2.754   2.863   2.863
  2.885   2.885   2.929   2.929   3.011   3.183   3.350   3.350
  3.467   3.467   3.521   3.521   3.589   3.589   3.754   3.931
  3.931   4.276   4.514   4.516   4.913   4.913   5.326   8.361
 16.968  16.968  17.443  23.218  23.309  23.400  23.509  23.509
 23.888  27.135  27.135  27.689  30.769  30.769  30.778  30.778
 30.805  30.805  30.846  40.673  40.769  40.949  40.983  40.983
188.894
 --------------------------------------------------------------
 
          Ground-State Mulliken Net Atomic Charges

     Atom                 Charge (a.u.)
  ----------------------------------------
      1 C                    -0.037364
      2 S                     0.037364
  ----------------------------------------
  Sum of atomic charges =     0.000000

 -----------------------------------------------------------------
                    Cartesian Multipole Moments
 -----------------------------------------------------------------
    Charge (ESU x 10^10)
                 0.0000
    Dipole Moment (Debye)
         X       0.0001      Y      -0.0001      Z       1.9788
       Tot       1.9788
    Quadrupole Moments (Debye-Ang)
        XX     -18.2872     XY       0.0000     YY     -18.2872
        XZ       0.0001     YZ      -0.0001     ZZ     -16.1170
    Octapole Moments (Debye-Ang^2)
       XXX       0.0001    XXY       0.0000    XYY       0.0000
       YYY      -0.0001    XXZ     -18.4031    XYZ       0.0002
       YYZ     -18.4031    XZZ       0.0001    YZZ      -0.0001
       ZZZ     -48.8442
    Hexadecapole Moments (Debye-Ang^3)
      XXXX     -23.2744   XXXY       0.0000   XXYY      -7.7582
      XYYY       0.0000   YYYY     -23.2744   XXXZ       0.0001
      XXYZ       0.0000   XYYZ       0.0000   YYYZ      -0.0001
      XXZZ     -36.2927   XYZZ       0.0005   YYZZ     -36.2927
      XZZZ       0.0001   YZZZ      -0.0001   ZZZZ    -184.1608
 -----------------------------------------------------------------
 Total job time:  22.37s(wall), 19.83s(cpu) 
 Tue Apr 30 21:23:42 2013

        *************************************************************
        *                                                           *
        *  Thank you very much for using Q-Chem.  Have a nice day.  *
        *                                                           *
        *************************************************************


0 sent ACK to 0 
now end server 0 ... 
 
**********************************************************************
Job 3 of 3 
**********************************************************************
 
Process 0 of 1 is on cl085.stfx.acenet.ca - thread support 1
initial socket setup ...start
initial socket setup ...done 
now start server 0 ... 

cmd = /usr/bin/ssh clhead /usr/local/qchem/bin/get_hostid 429011544 > /scratch/tmp/5955790.1.short.q/qchem28260/lic.dat
                  Welcome to Q-Chem
     A Quantum Leap Into The Future Of Chemistry

 Y. Shao, L. Fusti-Molnar, Y. Jung, J. Kussmann, C. Ochsenfeld,
 S. T. Brown, A. T. B. Gilbert, L. V. Slipchenko,S. V. Levchenko,
 D. P. O'Neill, R. A. DiStasio Jr., R. C. Lochan, T. Wang,
 G. J. O. Beran, N. A. Besley, J. M. Herbert, C. Y. Lin,
 T. Van Voorhis, S. H. Chien, A. Sodt, R. P. Steele, 
 V. A. Rassolov, P. E. Maslen, P. P. Korambath, R. D. Adamson,
 B. Austin, J. Baker, E. F. C. Byrd, H. Dachsel, R. J. Doerksen,
 A. Dreuw, B. D. Dunietz, A. D. Dutoi, T. R. Furlani,
 S. R. Gwaltney, A. Heyden, S. Hirata, C.-P. Hsu, G. Kedziora,
 R. Z. Khaliullin, P. Klunzinger, A. M. Lee, M. S. Lee, W. Liang,
 I. Lotan, N. Nair, B. Peters, E. I. Proynov, P. A. Pieniazek, 
 Y. M. Rhee, J. Ritchie, E. Rosta, C. D. Sherrill, 
 A. C. Simmonett, J. E. Subotnik, H. L. Woodcock III,
 W. Zhang, A. T. Bell, A. K. Chakraborty, D. M. Chipman,
 F. J. Keil, A. Warshel, W. J. Hehre, H. F. Schaefer III,
 J. Kong, A. I. Krylov, P. M. W. Gill, M. Head-Gordon,
 Q-Chem, Version 3.1, Q-Chem, Inc., Pittsburgh, PA (2007).

 Additional authors for Version 3.1: 
 Z. Gan, Y. Zhao, N. E. Schultz, D. Truhlar, E. Epifanovsky and M. Oana.

 Additional authors for Version 3.2: 
 R. Baer, B. R. Brooks, D. Casanova, J.-D. Chai, C.-L. Cheng, 
 C. Cramer, D. Crittenden, A. Ghysels, G. Hawkins, E. G. Hohenstein, 
 C. Kelley, W. Kurlancheek, D. Liotard, E. Livshits, P. Manohar, 
 A. Marenich, D. Neuhauser, R. Olson, M. A. Rohrdanz, K. S. Thanthiriwatte, 
 A. J. W. Thom, V. Vanovschi, C. F. Williams, Q. Wu and Z.-Q. You. 


 Intel X86 Linux Version

 Q-chem begins on Tue Apr 30 21:23:45 2013  

 Parallel job on  1  processors
Processing $rem in /usr/local/qchem/config/preferences.

theFileMan(): MAXOPENFILES=974 MAX_SUB_FILE_NUM=16
Maximum size of a physical file is 2.0 GB, maximum size of a tmp-file is 32.0 GB


--------------------------------------------------------------
User input:
--------------------------------------------------------------

$molecule
1,2
C
S,1,CS

CS=1.54765317

$end

$comment
positive
$end

$xc_functional
C PBE   1.00
X wPBE  1.00
$end

$rem
SYMMETRY_DECOMPOSITION	0
LRC_DFT                 true
exchange 		general
BASIS                   g3large
omega			250
mem_static              760
max_scf_cycles          200
scf_final_print         1
sym_ignore              true
$end

--------------------------------------------------------------
 Writing REM_CC_EA            2
 ----------------------------------------------------
       Standard Nuclear Orientation (Angstroms)
    I     Atom         X            Y            Z
 ----------------------------------------------------
    1      C       0.000000     0.000000     0.000000
    2      S       0.000000     0.000000     1.547653
 ----------------------------------------------------
 Nuclear Repulsion Energy =    32.8245457196 hartrees
 There are       11 alpha and       10 beta electrons
 Requested basis set is G3large
 There are 29 shells and 108 basis functions

Total QAlloc Memory Limit   2000 MB
Mega-Array Size       743 MB
MEM_STATIC part       760 MB

                       Distance Matrix (Angstroms)
             C (  1)
   S (  2)  1.547653
 
 A cutoff of  1.0D-08 yielded    423 shell pairs
 There are   5944 function pairs (  8263 Cartesian)
Evaluating contribution to one-electron hamiltonian from nuclear
 Smallest overlap matrix eigenvalue = 6.74E-04
 Multipole matrices computed through 2nd order

  Scale SEOQF with 1.000000e-01/1.000000e-01/1.000000e-01

 Standard Electronic Orientation quadrupole field applied
 Nucleus-field energy     =    -0.0000000041 hartrees
 Guess from superposition of atomic densities
 Warning:  Energy on first SCF cycle will be non-variational
 Long-range K will be added via erf
 Coulomb attenuation parameter = 0.25 bohr**(-1)
 An unrestricted Kohn-Sham SCF calculation will be
 performed using Pulay DIIS extrapolation
 Exchange:  wPBE + LR-HF      Correlation:  PBE
 Using SG-1 standard quadrature grid
 SCF converges when DIIS error is below 1.0E-05
 Requested basis set is G3large
 There are 29 shells and 108 basis functions
 A cutoff of  1.0D-08 yielded    423 shell pairs
 There are   5944 function pairs (  8263 Cartesian)
 Warning!  Inaccurate integrated density:
   Number of electrons =    21
   Numerical integral  =    21.999986000584
   Relative error      =     4.7618380980 %
 ---------------------------------------
  Cycle       Energy         DIIS Error
 ---------------------------------------
    1    -436.1321845354      3.22E-02
    2    -435.5518473886      4.33E-03
    3    -435.5719994859      5.17E-03
    4    -435.6108487898      2.07E-03
    5    -435.6187012863      4.46E-04
    6    -435.6205357101      1.84E-04
    7    -435.6213609644      5.81E-05
    8    -435.6216567115      1.99E-05
    9    -435.6217975145      1.60E-05
   10    -435.6219274540      9.77E-06 Convergence criterion met
 ---------------------------------------
 One-Electron    Energy =  -658.1116104356
 Total Coulomb   Energy =   220.1186520855
 Alpha Exchange  Energy =    -1.4816892290
 Beta  Exchange  Energy =    -1.3480990981
 DFT   Exchange  Energy =   -26.8713955567
 DFT Correlation Energy =    -0.7523309355
 Nuclear Repu.   Energy =    32.8245457155
 Nuclear Attr.   Energy = -1092.9697120075
 Kinetic         Energy =   434.8581015719
 <S^2> = 0.8088
 SCF time:  CPU 27.95 s  wall 29.92 s
 Final Alpha MO Eigenvalues
            1           2           3           4           5           6
    1 -88.5796637 -10.5118336  -8.2090132  -6.2283098  -6.2239989  -6.2239944
            7           8           9          10          11          12
    1  -1.2297218  -0.9340951  -0.7825210  -0.7479094  -0.7478810  -0.3412113
           13          14          15          16
    1  -0.3411772  -0.1394873  -0.1051446  -0.0676889
 Final Beta MO Eigenvalues
            1           2           3           4           5           6
    1 -88.5801266 -10.4905961  -8.2093916  -6.2263450  -6.2263385  -6.2252184
            7           8           9          10          11          12
    1  -1.2152024  -0.8927016  -0.7386767  -0.7386462  -0.4359244  -0.3107157
           13          14          15
    1  -0.3106754  -0.1317197  -0.0990709
 Analysis of SCF Wavefunction
 
 --------------------------------------------------------------
                    Orbital Energies (a.u.)
 --------------------------------------------------------------
 
 Alpha MOs
 -- Occupied --
-88.580 -10.512  -8.209  -6.228  -6.224  -6.224  -1.230  -0.934
 -0.783  -0.748  -0.748
 -- Virtual --
 -0.341  -0.341  -0.139  -0.105  -0.068  -0.068  -0.058  -0.019
 -0.016  -0.016   0.020   0.020   0.042   0.103   0.103   0.175
  0.239   0.240   0.240   0.362   0.362   0.374   0.453   0.453
  0.521   0.629   0.629   0.673   0.673   0.680   0.714   0.714
  0.797   0.797   0.816   0.832   0.832   1.092   1.098   1.098
  1.171   1.553   1.553   1.745   2.412   2.412   2.521   2.521
  2.544   2.544   2.591   2.591   2.658   2.821   2.969   2.969
  3.167   3.167   3.187   3.187   3.207   3.207   3.361   3.597
  3.597   3.915   4.193   4.196   4.580   4.580   4.990   8.031
 16.632  16.632  17.099  22.850  22.972  23.063  23.167  23.167
 23.529  26.753  26.753  27.292  30.432  30.432  30.438  30.438
 30.463  30.463  30.504  40.293  40.374  40.570  40.593  40.593
188.547
 
 Beta MOs
 -- Occupied --
-88.580 -10.491  -8.209  -6.226  -6.226  -6.225  -1.215  -0.893
 -0.739  -0.739
 -- Virtual --
 -0.436  -0.311  -0.311  -0.132  -0.099  -0.067  -0.067  -0.048
 -0.013  -0.013  -0.008   0.010   0.010   0.050   0.119   0.119
  0.177   0.237   0.237   0.264   0.383   0.383   0.414   0.474
  0.474   0.541   0.649   0.649   0.663   0.663   0.703   0.703
  0.708   0.814   0.814   0.828   0.846   0.846   1.100   1.126
  1.126   1.230   1.550   1.550   1.763   2.447   2.447   2.570
  2.570   2.582   2.582   2.638   2.638   2.716   2.878   3.047
  3.047   3.147   3.147   3.207   3.207   3.305   3.305   3.475
  3.620   3.620   3.968   4.188   4.191   4.593   4.593   5.006
  8.034  16.628  16.628  17.106  22.867  22.968  23.059  23.168
 23.168  23.541  26.774  26.774  27.332  30.430  30.430  30.437
 30.437  30.463  30.463  30.505  40.312  40.413  40.588  40.625
 40.625 188.546
 --------------------------------------------------------------
 
          Ground-State Mulliken Net Atomic Charges

     Atom                 Charge (a.u.)    Spin (a.u.)
  --------------------------------------------------------
      1 C                     0.553537       1.104723
      2 S                     0.446463      -0.104723
  --------------------------------------------------------
  Sum of atomic charges =     1.000000
  Sum of spin   charges =     1.000000

 -----------------------------------------------------------------
                    Cartesian Multipole Moments
 -----------------------------------------------------------------
    Charge (ESU x 10^10)
                 4.8032
    Dipole Moment (Debye)
         X       0.0005      Y      -0.0006      Z       4.7526
       Tot       4.7526
    Quadrupole Moments (Debye-Ang)
        XX     -15.0771     XY       0.0000     YY     -15.0771
        XZ       0.0002     YZ      -0.0002     ZZ      -4.3070
    Octapole Moments (Debye-Ang^2)
       XXX       0.0006    XXY      -0.0002    XYY       0.0002
       YYY      -0.0007    XXZ     -15.7008    XYZ      -0.0001
       YYZ     -15.7008    XZZ       0.0011    YZZ      -0.0012
       ZZZ     -27.5234
    Hexadecapole Moments (Debye-Ang^3)
      XXXX     -15.8241   XXXY       0.0000   XXYY      -5.2747
      XYYY       0.0000   YYYY     -15.8241   XXXZ       0.0003
      XXYZ      -0.0001   XYYZ       0.0001   YYYZ      -0.0003
      XXZZ     -27.9777   XYZZ      -0.0001   YYZZ     -27.9777
      XZZZ       0.0024   YZZZ      -0.0027   ZZZZ    -120.2932
 -----------------------------------------------------------------
 Total job time:  30.05s(wall), 28.07s(cpu) 
 Tue Apr 30 21:24:15 2013

        *************************************************************
        *                                                           *
        *  Thank you very much for using Q-Chem.  Have a nice day.  *
        *                                                           *
        *************************************************************


0 sent ACK to 0 
now end server 0 ... 
