Process 0 of 1 is on cl054.stfx.acenet.ca - thread support 1
initial socket setup ...start
initial socket setup ...done 
now start server 0 ... 

cmd = /usr/bin/ssh clhead /usr/local/qchem/bin/get_hostid 504599297 > /scratch/tmp/6022254.1.short.q/qchem9562/lic.dat
                  Welcome to Q-Chem
     A Quantum Leap Into The Future Of Chemistry

 Y. Shao, L. Fusti-Molnar, Y. Jung, J. Kussmann, C. Ochsenfeld,
 S. T. Brown, A. T. B. Gilbert, L. V. Slipchenko,S. V. Levchenko,
 D. P. O'Neill, R. A. DiStasio Jr., R. C. Lochan, T. Wang,
 G. J. O. Beran, N. A. Besley, J. M. Herbert, C. Y. Lin,
 T. Van Voorhis, S. H. Chien, A. Sodt, R. P. Steele, 
 V. A. Rassolov, P. E. Maslen, P. P. Korambath, R. D. Adamson,
 B. Austin, J. Baker, E. F. C. Byrd, H. Dachsel, R. J. Doerksen,
 A. Dreuw, B. D. Dunietz, A. D. Dutoi, T. R. Furlani,
 S. R. Gwaltney, A. Heyden, S. Hirata, C.-P. Hsu, G. Kedziora,
 R. Z. Khaliullin, P. Klunzinger, A. M. Lee, M. S. Lee, W. Liang,
 I. Lotan, N. Nair, B. Peters, E. I. Proynov, P. A. Pieniazek, 
 Y. M. Rhee, J. Ritchie, E. Rosta, C. D. Sherrill, 
 A. C. Simmonett, J. E. Subotnik, H. L. Woodcock III,
 W. Zhang, A. T. Bell, A. K. Chakraborty, D. M. Chipman,
 F. J. Keil, A. Warshel, W. J. Hehre, H. F. Schaefer III,
 J. Kong, A. I. Krylov, P. M. W. Gill, M. Head-Gordon,
 Q-Chem, Version 3.1, Q-Chem, Inc., Pittsburgh, PA (2007).

 Additional authors for Version 3.1: 
 Z. Gan, Y. Zhao, N. E. Schultz, D. Truhlar, E. Epifanovsky and M. Oana.

 Additional authors for Version 3.2: 
 R. Baer, B. R. Brooks, D. Casanova, J.-D. Chai, C.-L. Cheng, 
 C. Cramer, D. Crittenden, A. Ghysels, G. Hawkins, E. G. Hohenstein, 
 C. Kelley, W. Kurlancheek, D. Liotard, E. Livshits, P. Manohar, 
 A. Marenich, D. Neuhauser, R. Olson, M. A. Rohrdanz, K. S. Thanthiriwatte, 
 A. J. W. Thom, V. Vanovschi, C. F. Williams, Q. Wu and Z.-Q. You. 


 Intel X86 Linux Version

 Q-chem begins on Wed May 29 17:05:22 2013  

 Parallel job on  1  processors
Processing $rem in /usr/local/qchem/config/preferences.

theFileMan(): MAXOPENFILES=974 MAX_SUB_FILE_NUM=16
Maximum size of a physical file is 2.0 GB, maximum size of a tmp-file is 32.0 GB


--------------------------------------------------------------
User input:
--------------------------------------------------------------

$molecule
-1,2
Si        -0.00010        0.00000        0.00114
Cl         0.00026        0.00000        2.01269
Cl         1.89604        0.00000       -0.67105
Cl        -0.94810        1.64179       -0.67139
Cl        -0.94810       -1.64179       -0.67139
$end

$comment
negative
$end

$xc_functional
C PBE   1.00
X wPBE  1.00
$end

$rem
SYMMETRY_DECOMPOSITION	0
exchange 		general
LRC_DFT                 true
BASIS                   g3large
omega			360
mem_static              760
max_scf_cycles          200
scf_final_print         1
sym_ignore              true
$end

--------------------------------------------------------------
 Writing REM_CC_EA            5
 ----------------------------------------------------
       Standard Nuclear Orientation (Angstroms)
    I     Atom         X            Y            Z
 ----------------------------------------------------
    1      Si     -0.000100     0.000000     0.001140
    2      Cl      0.000260     0.000000     2.012690
    3      Cl      1.896040     0.000000    -0.671050
    4      Cl     -0.948100     1.641790    -0.671390
    5      Cl     -0.948100    -1.641790    -0.671390
 ----------------------------------------------------
 Nuclear Repulsion Energy =   529.7647965386 hartrees
 There are       42 alpha and       41 beta electrons
 Requested basis set is G3large
 There are 95 shells and 330 basis functions

Total QAlloc Memory Limit   2000 MB
Mega-Array Size       743 MB
MEM_STATIC part       760 MB

                       Distance Matrix (Angstroms)
             Si(  1)   Cl(  2)   Cl(  3)   Cl(  4)
   Cl(  2)  2.011550
   Cl(  3)  2.011762  3.285794
   Cl(  4)  2.011585  3.286205  3.283993
   Cl(  5)  2.011585  3.286205  3.283993  3.283580
 
 A cutoff of  1.0D-08 yielded   3472 shell pairs
 There are  43435 function pairs ( 61990 Cartesian)
Evaluating contribution to one-electron hamiltonian from nuclear
 Smallest overlap matrix eigenvalue = 2.86E-04
 Multipole matrices computed through 2nd order

  Scale SEOQF with 1.000000e-01/1.000000e-01/1.000000e-01

 Standard Electronic Orientation quadrupole field applied
 Guess from superposition of atomic densities
 Warning:  Energy on first SCF cycle will be non-variational
 Long-range K will be added via erf
 Coulomb attenuation parameter = 0.36 bohr**(-1)
 An unrestricted Kohn-Sham SCF calculation will be
 performed using Pulay DIIS extrapolation
 Exchange:  wPBE + LR-HF      Correlation:  PBE
 Using SG-1 standard quadrature grid
 SCF converges when DIIS error is below 1.0E-05
 Requested basis set is G3large
 There are 95 shells and 330 basis functions
 A cutoff of  1.0D-08 yielded   3472 shell pairs
 There are  43435 function pairs ( 61990 Cartesian)
 Warning!  Inaccurate integrated density:
   Number of electrons =    83
   Numerical integral  =    82.000036172147
   Relative error      =    -1.2047756962 %
 ---------------------------------------
  Cycle       Energy         DIIS Error
 ---------------------------------------
    1   -2130.6655222046      1.93E-02
    2   -2129.7517824588      1.90E-03
    3   -2129.7946932712      1.41E-03
    4   -2129.8128494331      2.46E-04
    5   -2129.8144779243      9.97E-05
    6   -2129.8154864985      7.39E-05
    7   -2129.8163797073      5.26E-05
    8   -2129.8176818868      4.27E-05
    9   -2129.8190511391      2.36E-05
   10   -2129.8196406800      1.05E-05
   11   -2129.8197088870      1.48E-05
   12   -2129.8197926423      9.70E-06 Convergence criterion met
 ---------------------------------------
 One-Electron    Energy = -4011.5306952116
 Total Coulomb   Energy =  1485.4483979763
 Alpha Exchange  Energy =    -7.8586278511
 Beta  Exchange  Energy =    -7.7846416477
 DFT   Exchange  Energy =  -114.6345857290
 DFT Correlation Energy =    -3.2244367177
 Nuclear Repu.   Energy =   529.7647965386
 Nuclear Attr.   Energy = -6138.9282643901
 Kinetic         Energy =  2127.3975691785
 <S^2> = 0.7512
 SCF time:  CPU 853.43 s  wall 854.92 s
 Final Alpha MO Eigenvalues
            1           2           3           4           5           6
    1-100.7324790-100.7324333-100.7324140-100.7323288 -65.5783221  -9.2568196
            7           8           9          10          11          12
    1  -9.2567965  -9.2567644  -9.2566790  -7.0736250  -7.0735716  -7.0735528
           13          14          15          16          17          18
    1  -7.0733509  -7.0675685  -7.0675541  -7.0675130  -7.0674956  -7.0674885
           19          20          21          22          23          24
    1  -7.0674562  -7.0674544  -7.0674334  -5.2272498  -3.6317895  -3.6317648
           25          26          27          28          29          30
    1  -3.6317600  -0.8869190  -0.8323946  -0.8323726  -0.8323557  -0.5335473
           31          32          33          34          35          36
    1  -0.4237932  -0.4237773  -0.4237716  -0.3517290  -0.3517051  -0.3365453
           37          38          39          40          41          42
    1  -0.3364200  -0.3363899  -0.3034871  -0.3034787  -0.3034625   0.0307672
           43          44          45          46          47
    1   0.1596054   0.1596391   0.1597354   0.1880502   0.2122076
 Final Beta MO Eigenvalues
            1           2           3           4           5           6
    1-100.7321448-100.7320985-100.7320761-100.7319877 -65.5775297  -9.2564550
            7           8           9          10          11          12
    1  -9.2564315  -9.2563967  -9.2563065  -7.0730577  -7.0729974  -7.0729722
           13          14          15          16          17          18
    1  -7.0727495  -7.0672593  -7.0672503  -7.0672009  -7.0671824  -7.0671706
           19          20          21          22          23          24
    1  -7.0671465  -7.0671450  -7.0671125  -5.2261678  -3.6306634  -3.6306389
           25          26          27          28          29          30
    1  -3.6306358  -0.8843667  -0.8300918  -0.8300611  -0.8300324  -0.5278867
           31          32          33          34          35          36
    1  -0.4214810  -0.4214557  -0.4214470  -0.3508209  -0.3507991  -0.3340299
           37          38          39          40          41          42
    1  -0.3339281  -0.3338966  -0.3027994  -0.3027854  -0.3027765   0.1453277
           43          44          45          46
    1   0.1726093   0.1727547   0.1728168   0.2036469
 Analysis of SCF Wavefunction
 
 --------------------------------------------------------------
                    Orbital Energies (a.u.)
 --------------------------------------------------------------
 
 Alpha MOs
 -- Occupied --
*******-100.732-100.732-100.732 -65.578  -9.257  -9.257  -9.257
 -9.257  -7.074  -7.074  -7.074  -7.073  -7.068  -7.068  -7.068
 -7.067  -7.067  -7.067  -7.067  -7.067  -5.227  -3.632  -3.632
 -3.632  -0.887  -0.832  -0.832  -0.832  -0.534  -0.424  -0.424
 -0.424  -0.352  -0.352  -0.337  -0.336  -0.336  -0.303  -0.303
 -0.303   0.031
 -- Virtual --
  0.160   0.160   0.160   0.188   0.212   0.212   0.212   0.240
  0.240   0.251   0.251   0.252   0.276   0.276   0.276   0.276
  0.304   0.304   0.304   0.308   0.316   0.317   0.317   0.369
  0.369   0.423   0.423   0.423   0.489   0.489   0.489   0.519
  0.519   0.519   0.534   0.535   0.548   0.548   0.549   0.591
  0.591   0.591   0.610   0.664   0.664   0.664   0.689   0.689
  0.690   0.721   0.721   0.721   0.802   0.814   0.814   0.814
  0.816   0.816   0.816   0.857   0.857   0.857   0.916   0.916
  1.005   1.019   1.020   1.020   1.038   1.038   1.075   1.075
  1.075   1.133   1.134   1.134   1.287   1.287   1.287   1.301
  1.301   1.301   1.314   1.314   1.327   1.327   1.327   1.340
  1.340   1.341   1.352   1.401   1.404   1.404   1.404   1.431
  1.431   1.432   1.458   1.458   1.458   1.459   1.459   1.553
  1.554   1.554   1.577   1.577   1.578   1.742   1.742   1.743
  1.751   1.754   1.755   1.755   1.818   1.818   1.819   1.840
  1.840   1.840   1.903   1.903   1.904   1.954   1.955   2.065
  2.189   2.189   2.189   2.436   2.436   2.436   2.457   2.458
  2.458   2.478   2.478   2.478   2.581   2.582   2.582   2.694
  2.695   2.695   2.784   2.785   2.785   2.885   3.952   3.953
  4.102   4.103   4.105   4.578   4.583   4.583   4.583   4.584
  4.584   4.584   4.608   4.608   4.621   4.688   4.688   4.689
  4.697   4.697   4.697   4.710   4.710   4.763   4.790   4.790
  4.790   4.793   4.793   4.793   4.807   4.808   4.808   5.250
  5.251   5.253   5.254   5.254   5.266   5.267   5.268   5.350
  5.351   5.351   5.430   5.431   5.431   5.458   5.470   5.471
  5.654   5.655   5.656   6.593  10.009  10.009  10.010  10.158
 11.792  11.793  11.793  17.694  17.768  17.777  17.851  17.908
 20.707  20.707  20.739  20.739  20.739  20.813  20.813  20.813
 20.997  20.997  20.997  21.036  22.226  22.228  22.234  22.236
 22.236  22.238  22.248  27.211  27.214  27.220  27.233  27.258
 27.275  27.289  27.289  27.297  27.305  27.318  27.331  27.334
 27.336  27.341  27.363  27.382  27.384  27.414  27.414  36.923
 36.923  36.923  36.924  36.924  36.924  36.925  36.927  36.927
 36.929  36.935  36.936  36.937  36.937  36.938  36.939  36.940
 36.941  36.947  36.948  36.950  36.950  36.951  36.951  36.951
 36.952  36.952  36.952 141.547 215.917 215.917 215.917 216.096
 
 Beta MOs
 -- Occupied --
*******-100.732-100.732-100.732 -65.578  -9.256  -9.256  -9.256
 -9.256  -7.073  -7.073  -7.073  -7.073  -7.067  -7.067  -7.067
 -7.067  -7.067  -7.067  -7.067  -7.067  -5.226  -3.631  -3.631
 -3.631  -0.884  -0.830  -0.830  -0.830  -0.528  -0.421  -0.421
 -0.421  -0.351  -0.351  -0.334  -0.334  -0.334  -0.303  -0.303
 -0.303
 -- Virtual --
  0.145   0.173   0.173   0.173   0.204   0.218   0.218   0.218
  0.242   0.242   0.256   0.256   0.256   0.277   0.277   0.277
  0.287   0.304   0.304   0.304   0.309   0.318   0.318   0.318
  0.370   0.370   0.425   0.425   0.425   0.488   0.489   0.489
  0.520   0.520   0.520   0.535   0.535   0.551   0.551   0.552
  0.592   0.592   0.592   0.613   0.665   0.665   0.665   0.690
  0.690   0.690   0.724   0.724   0.724   0.806   0.814   0.814
  0.814   0.818   0.818   0.818   0.858   0.858   0.858   0.920
  0.920   1.006   1.020   1.021   1.021   1.038   1.038   1.076
  1.076   1.076   1.136   1.136   1.136   1.288   1.288   1.289
  1.303   1.303   1.303   1.316   1.316   1.328   1.328   1.328
  1.342   1.342   1.343   1.354   1.402   1.406   1.406   1.406
  1.433   1.433   1.433   1.459   1.459   1.459   1.460   1.460
  1.555   1.555   1.555   1.579   1.579   1.579   1.743   1.743
  1.744   1.752   1.756   1.757   1.757   1.819   1.819   1.819
  1.840   1.840   1.841   1.905   1.905   1.906   1.955   1.955
  2.067   2.191   2.191   2.191   2.437   2.437   2.442   2.458
  2.459   2.459   2.484   2.484   2.484   2.582   2.582   2.582
  2.700   2.700   2.700   2.786   2.787   2.787   2.887   3.954
  3.955   4.103   4.105   4.107   4.580   4.584   4.585   4.585
  4.586   4.586   4.586   4.610   4.610   4.623   4.690   4.690
  4.691   4.699   4.699   4.699   4.712   4.712   4.765   4.792
  4.792   4.792   4.795   4.795   4.795   4.809   4.810   4.810
  5.251   5.251   5.253   5.254   5.255   5.266   5.267   5.269
  5.351   5.351   5.351   5.431   5.431   5.432   5.459   5.471
  5.471   5.655   5.656   5.657   6.595  10.010  10.010  10.010
 10.158  11.794  11.794  11.794  17.695  17.770  17.778  17.853
 17.910  20.707  20.707  20.739  20.740  20.740  20.813  20.813
 20.814  20.998  20.998  20.998  21.037  22.227  22.229  22.234
 22.237  22.237  22.239  22.249  27.212  27.214  27.220  27.234
 27.258  27.276  27.289  27.289  27.298  27.306  27.318  27.331
 27.335  27.336  27.341  27.364  27.383  27.385  27.415  27.415
 36.923  36.923  36.924  36.924  36.924  36.925  36.926  36.927
 36.927  36.929  36.935  36.936  36.937  36.938  36.938  36.940
 36.940  36.942  36.947  36.948  36.950  36.951  36.951  36.951
 36.951  36.952  36.952  36.953 141.548 215.917 215.917 215.918
216.097
 --------------------------------------------------------------
 
          Ground-State Mulliken Net Atomic Charges

     Atom                 Charge (a.u.)    Spin (a.u.)
  --------------------------------------------------------
      1 Si                   -2.781932       4.519631
      2 Cl                    0.452928      -0.886073
      3 Cl                    0.443244      -0.878050
      4 Cl                    0.442395      -0.877024
      5 Cl                    0.443366      -0.878485
  --------------------------------------------------------
  Sum of atomic charges =    -1.000000
  Sum of spin   charges =     1.000000

 -----------------------------------------------------------------
                    Cartesian Multipole Moments
 -----------------------------------------------------------------
    Charge (ESU x 10^10)
                -4.8032
    Dipole Moment (Debye)
         X      -0.0168      Y       0.0018      Z      -0.0605
       Tot       0.0628
    Quadrupole Moments (Debye-Ang)
        XX     -88.4869     XY      -0.0012     YY     -88.5355
        XZ      -0.0032     YZ      -0.0010     ZZ     -88.5824
    Octapole Moments (Debye-Ang^2)
       XXX      -3.0378    XXY       0.0097    XYY       2.7393
       YYY       0.0297    XXZ       1.7901    XYZ       0.0057
       YYZ       1.8169    XZZ      -0.0904    YZZ       0.0060
       ZZZ      -5.0889
    Hexadecapole Moments (Debye-Ang^3)
      XXXX    -798.4419   XXXY      -0.0169   XXYY    -266.2200
      XYYY      -0.0004   YYYY    -799.1696   XXXZ       6.4555
      XXYZ      -0.0004   XYYZ      -6.5133   YYYZ      -0.0015
      XXZZ    -262.0511   XYZZ      -0.0043   YYZZ    -262.1752
      XZZZ      -0.1060   YZZZ      -0.0160   ZZZZ    -805.8797
 -----------------------------------------------------------------
 Total job time:  855.63s(wall), 854.12s(cpu) 
 Wed May 29 17:19:37 2013

        *************************************************************
        *                                                           *
        *  Thank you very much for using Q-Chem.  Have a nice day.  *
        *                                                           *
        *************************************************************


0 sent ACK to 0 
now end server 0 ... 
 
**********************************************************************
Job 2 of 3 
**********************************************************************
 
Process 0 of 1 is on cl054.stfx.acenet.ca - thread support 1
initial socket setup ...start
initial socket setup ...done 
now start server 0 ... 

cmd = /usr/bin/ssh clhead /usr/local/qchem/bin/get_hostid 2005825808 > /scratch/tmp/6022254.1.short.q/qchem9562/lic.dat
                  Welcome to Q-Chem
     A Quantum Leap Into The Future Of Chemistry

 Y. Shao, L. Fusti-Molnar, Y. Jung, J. Kussmann, C. Ochsenfeld,
 S. T. Brown, A. T. B. Gilbert, L. V. Slipchenko,S. V. Levchenko,
 D. P. O'Neill, R. A. DiStasio Jr., R. C. Lochan, T. Wang,
 G. J. O. Beran, N. A. Besley, J. M. Herbert, C. Y. Lin,
 T. Van Voorhis, S. H. Chien, A. Sodt, R. P. Steele, 
 V. A. Rassolov, P. E. Maslen, P. P. Korambath, R. D. Adamson,
 B. Austin, J. Baker, E. F. C. Byrd, H. Dachsel, R. J. Doerksen,
 A. Dreuw, B. D. Dunietz, A. D. Dutoi, T. R. Furlani,
 S. R. Gwaltney, A. Heyden, S. Hirata, C.-P. Hsu, G. Kedziora,
 R. Z. Khaliullin, P. Klunzinger, A. M. Lee, M. S. Lee, W. Liang,
 I. Lotan, N. Nair, B. Peters, E. I. Proynov, P. A. Pieniazek, 
 Y. M. Rhee, J. Ritchie, E. Rosta, C. D. Sherrill, 
 A. C. Simmonett, J. E. Subotnik, H. L. Woodcock III,
 W. Zhang, A. T. Bell, A. K. Chakraborty, D. M. Chipman,
 F. J. Keil, A. Warshel, W. J. Hehre, H. F. Schaefer III,
 J. Kong, A. I. Krylov, P. M. W. Gill, M. Head-Gordon,
 Q-Chem, Version 3.1, Q-Chem, Inc., Pittsburgh, PA (2007).

 Additional authors for Version 3.1: 
 Z. Gan, Y. Zhao, N. E. Schultz, D. Truhlar, E. Epifanovsky and M. Oana.

 Additional authors for Version 3.2: 
 R. Baer, B. R. Brooks, D. Casanova, J.-D. Chai, C.-L. Cheng, 
 C. Cramer, D. Crittenden, A. Ghysels, G. Hawkins, E. G. Hohenstein, 
 C. Kelley, W. Kurlancheek, D. Liotard, E. Livshits, P. Manohar, 
 A. Marenich, D. Neuhauser, R. Olson, M. A. Rohrdanz, K. S. Thanthiriwatte, 
 A. J. W. Thom, V. Vanovschi, C. F. Williams, Q. Wu and Z.-Q. You. 


 Intel X86 Linux Version

 Q-chem begins on Wed May 29 17:19:40 2013  

 Parallel job on  1  processors
Processing $rem in /usr/local/qchem/config/preferences.

theFileMan(): MAXOPENFILES=974 MAX_SUB_FILE_NUM=16
Maximum size of a physical file is 2.0 GB, maximum size of a tmp-file is 32.0 GB


--------------------------------------------------------------
User input:
--------------------------------------------------------------

$molecule
0,1
Si        -0.00010        0.00000        0.00114
Cl         0.00026        0.00000        2.01269
Cl         1.89604        0.00000       -0.67105
Cl        -0.94810        1.64179       -0.67139
Cl        -0.94810       -1.64179       -0.67139
$end

$comment
neutral
$end

$xc_functional
C PBE   1.00
X wPBE  1.00
$end


$rem
SYMMETRY_DECOMPOSITION	0
LRC_DFT                 true
exchange 		general
BASIS                   g3large
omega			360
mem_static              760
max_scf_cycles          200
scf_final_print         1
sym_ignore              true
$end

--------------------------------------------------------------
 Writing REM_CC_EA            5
 ----------------------------------------------------
       Standard Nuclear Orientation (Angstroms)
    I     Atom         X            Y            Z
 ----------------------------------------------------
    1      Si     -0.000100     0.000000     0.001140
    2      Cl      0.000260     0.000000     2.012690
    3      Cl      1.896040     0.000000    -0.671050
    4      Cl     -0.948100     1.641790    -0.671390
    5      Cl     -0.948100    -1.641790    -0.671390
 ----------------------------------------------------
 Nuclear Repulsion Energy =   529.7647965386 hartrees
 There are       41 alpha and       41 beta electrons
 Requested basis set is G3large
 There are 95 shells and 330 basis functions

Total QAlloc Memory Limit   2000 MB
Mega-Array Size       743 MB
MEM_STATIC part       760 MB

                       Distance Matrix (Angstroms)
             Si(  1)   Cl(  2)   Cl(  3)   Cl(  4)
   Cl(  2)  2.011550
   Cl(  3)  2.011762  3.285794
   Cl(  4)  2.011585  3.286205  3.283993
   Cl(  5)  2.011585  3.286205  3.283993  3.283580
 
 A cutoff of  1.0D-08 yielded   3472 shell pairs
 There are  43435 function pairs ( 61990 Cartesian)
Evaluating contribution to one-electron hamiltonian from nuclear
 Smallest overlap matrix eigenvalue = 2.86E-04
 Multipole matrices computed through 2nd order

  Scale SEOQF with 1.000000e-01/1.000000e-01/1.000000e-01

 Standard Electronic Orientation quadrupole field applied
 Guess from superposition of atomic densities
 Warning:  Energy on first SCF cycle will be non-variational
 Long-range K will be added via erf
 Coulomb attenuation parameter = 0.36 bohr**(-1)
 A restricted Kohn-Sham SCF calculation will be
 performed using Pulay DIIS extrapolation
 Exchange:  wPBE + LR-HF      Correlation:  PBE
 Using SG-1 standard quadrature grid
 SCF converges when DIIS error is below 1.0E-05
 Requested basis set is G3large
 There are 95 shells and 330 basis functions
 A cutoff of  1.0D-08 yielded   3472 shell pairs
 There are  43435 function pairs ( 61990 Cartesian)
 ---------------------------------------
  Cycle       Energy         DIIS Error
 ---------------------------------------
    1   -2130.6655222046      1.93E-02
    2   -2129.7793506802      2.22E-03
    3   -2129.8017810398      2.20E-03
    4   -2129.8546862047      1.69E-04
    5   -2129.8551133807      6.17E-05
    6   -2129.8551824417      2.13E-05
    7   -2129.8551859719      4.26E-06 Convergence criterion met
 ---------------------------------------
 One-Electron    Energy = -3999.4130413862
 Total Coulomb   Energy =  1473.1743507141
 Alpha Exchange  Energy =    -7.7878034766
 Beta  Exchange  Energy =    -7.7878034766
 DFT   Exchange  Energy =  -114.5936895808
 DFT Correlation Energy =    -3.2119953043
 Nuclear Repu.   Energy =   529.7647965386
 Nuclear Attr.   Energy = -6126.4200468497
 Kinetic         Energy =  2127.0070054635
 SCF time:  CPU 399.74 s  wall 400.37 s
 Final Alpha MO Eigenvalues
            1           2           3           4           5           6
    1-100.8809830-100.8808522-100.8807439-100.8806672 -65.7398557  -9.4046003
            7           8           9          10          11          12
    1  -9.4044413  -9.4043780  -9.4043090  -7.2214880  -7.2214717  -7.2213489
           13          14          15          16          17          18
    1  -7.2213427  -7.2153130  -7.2153106  -7.2151168  -7.2150702  -7.2150237
           19          20          21          22          23          24
    1  -7.2149994  -7.2149821  -7.2148909  -5.3864961  -3.7910892  -3.7910606
           25          26          27          28          29          30
    1  -3.7910534  -1.0326633  -0.9769165  -0.9767157  -0.9766912  -0.6754218
           31          32          33          34          35          36
    1  -0.5681149  -0.5680011  -0.5679858  -0.4955615  -0.4955421  -0.4788577
           37          38          39          40          41          42
    1  -0.4787592  -0.4787356  -0.4471634  -0.4471553  -0.4470276   0.0391693
           43          44          45          46
    1   0.0684561   0.0721082   0.0721142   0.0721203
 Analysis of SCF Wavefunction
 
 --------------------------------------------------------------
                    Orbital Energies (a.u.)
 --------------------------------------------------------------
 
 Alpha MOs
 -- Occupied --
*******-100.881-100.881-100.881 -65.740  -9.405  -9.404  -9.404
 -9.404  -7.221  -7.221  -7.221  -7.221  -7.215  -7.215  -7.215
 -7.215  -7.215  -7.215  -7.215  -7.215  -5.386  -3.791  -3.791
 -3.791  -1.033  -0.977  -0.977  -0.977  -0.675  -0.568  -0.568
 -0.568  -0.496  -0.496  -0.479  -0.479  -0.479  -0.447  -0.447
 -0.447
 -- Virtual --
  0.039   0.068   0.072   0.072   0.072   0.094   0.094   0.094
  0.132   0.132   0.133   0.135   0.135   0.169   0.171   0.171
  0.171   0.187   0.187   0.187   0.195   0.211   0.211   0.211
  0.227   0.227   0.288   0.289   0.289   0.360   0.360   0.360
  0.380   0.380   0.380   0.396   0.396   0.423   0.423   0.423
  0.456   0.456   0.456   0.481   0.535   0.535   0.535   0.559
  0.559   0.567   0.585   0.585   0.585   0.664   0.678   0.678
  0.678   0.678   0.678   0.679   0.724   0.724   0.725   0.772
  0.772   0.863   0.880   0.880   0.880   0.901   0.901   0.939
  0.939   0.939   0.992   0.992   0.992   1.146   1.146   1.146
  1.160   1.160   1.160   1.174   1.174   1.186   1.186   1.186
  1.201   1.201   1.201   1.213   1.261   1.262   1.263   1.263
  1.292   1.292   1.293   1.316   1.316   1.316   1.317   1.317
  1.411   1.412   1.412   1.438   1.438   1.438   1.600   1.600
  1.601   1.615   1.615   1.615   1.616   1.676   1.676   1.677
  1.700   1.701   1.701   1.762   1.762   1.763   1.813   1.813
  1.922   2.045   2.045   2.045   2.289   2.293   2.293   2.315
  2.316   2.316   2.331   2.332   2.332   2.440   2.440   2.440
  2.548   2.549   2.549   2.640   2.640   2.640   2.741   3.798
  3.799   3.949   3.951   3.953   4.434   4.439   4.439   4.439
  4.440   4.440   4.440   4.463   4.463   4.477   4.543   4.543
  4.544   4.552   4.552   4.553   4.565   4.565   4.618   4.645
  4.645   4.646   4.648   4.648   4.648   4.663   4.664   4.664
  5.104   5.105   5.107   5.108   5.108   5.120   5.121   5.122
  5.204   5.205   5.205   5.284   5.285   5.285   5.311   5.325
  5.325   5.507   5.508   5.509   6.438   9.864   9.864   9.864
 10.012  11.634  11.635  11.635  17.535  17.610  17.618  17.692
 17.750  20.559  20.560  20.592  20.592  20.592  20.666  20.666
 20.666  20.850  20.850  20.850  20.888  22.066  22.068  22.074
 22.076  22.076  22.078  22.088  27.063  27.067  27.073  27.086
 27.110  27.128  27.141  27.141  27.150  27.158  27.170  27.183
 27.187  27.188  27.193  27.215  27.234  27.237  27.266  27.267
 36.775  36.775  36.776  36.776  36.777  36.777  36.778  36.779
 36.779  36.781  36.787  36.788  36.789  36.790  36.790  36.792
 36.792  36.794  36.799  36.800  36.802  36.802  36.803  36.803
 36.803  36.804  36.804  36.804 141.386 215.769 215.769 215.769
215.948
 --------------------------------------------------------------
 
          Ground-State Mulliken Net Atomic Charges

     Atom                 Charge (a.u.)
  ----------------------------------------
      1 Si                    1.644860
      2 Cl                   -0.410894
      3 Cl                   -0.411213
      4 Cl                   -0.411498
      5 Cl                   -0.411255
  ----------------------------------------
  Sum of atomic charges =     0.000000

 -----------------------------------------------------------------
                    Cartesian Multipole Moments
 -----------------------------------------------------------------
    Charge (ESU x 10^10)
                 0.0000
    Dipole Moment (Debye)
         X      -0.0003      Y      -0.0014      Z       0.0080
       Tot       0.0081
    Quadrupole Moments (Debye-Ang)
        XX     -61.9739     XY       0.0005     YY     -61.9696
        XZ       0.0019     YZ       0.0012     ZZ     -61.9535
    Octapole Moments (Debye-Ang^2)
       XXX       2.2405    XXY      -0.0024    XYY      -2.2474
       YYY      -0.0073    XXZ      -1.5936    XYZ      -0.0007
       YYZ      -1.6003    XZZ      -0.0018    YZZ      -0.0020
       ZZZ       3.2168
    Hexadecapole Moments (Debye-Ang^3)
      XXXX    -458.5587   XXXY      -0.0025   XXYY    -152.8291
      XYYY       0.0018   YYYY    -458.3997   XXXZ      -4.7736
      XXYZ       0.0012   XYYZ       4.7243   YYYZ       0.0035
      XXZZ    -156.2652   XYZZ      -0.0005   YYZZ    -156.2350
      XZZZ      -0.0324   YZZZ      -0.0005   ZZZZ    -455.7427
 -----------------------------------------------------------------
 Total job time:  401.05s(wall), 400.41s(cpu) 
 Wed May 29 17:26:21 2013

        *************************************************************
        *                                                           *
        *  Thank you very much for using Q-Chem.  Have a nice day.  *
        *                                                           *
        *************************************************************


0 sent ACK to 0 
now end server 0 ... 
 
**********************************************************************
Job 3 of 3 
**********************************************************************
 
Process 0 of 1 is on cl054.stfx.acenet.ca - thread support 1
initial socket setup ...start
initial socket setup ...done 
now start server 0 ... 

cmd = /usr/bin/ssh clhead /usr/local/qchem/bin/get_hostid 487838231 > /scratch/tmp/6022254.1.short.q/qchem9562/lic.dat
                  Welcome to Q-Chem
     A Quantum Leap Into The Future Of Chemistry

 Y. Shao, L. Fusti-Molnar, Y. Jung, J. Kussmann, C. Ochsenfeld,
 S. T. Brown, A. T. B. Gilbert, L. V. Slipchenko,S. V. Levchenko,
 D. P. O'Neill, R. A. DiStasio Jr., R. C. Lochan, T. Wang,
 G. J. O. Beran, N. A. Besley, J. M. Herbert, C. Y. Lin,
 T. Van Voorhis, S. H. Chien, A. Sodt, R. P. Steele, 
 V. A. Rassolov, P. E. Maslen, P. P. Korambath, R. D. Adamson,
 B. Austin, J. Baker, E. F. C. Byrd, H. Dachsel, R. J. Doerksen,
 A. Dreuw, B. D. Dunietz, A. D. Dutoi, T. R. Furlani,
 S. R. Gwaltney, A. Heyden, S. Hirata, C.-P. Hsu, G. Kedziora,
 R. Z. Khaliullin, P. Klunzinger, A. M. Lee, M. S. Lee, W. Liang,
 I. Lotan, N. Nair, B. Peters, E. I. Proynov, P. A. Pieniazek, 
 Y. M. Rhee, J. Ritchie, E. Rosta, C. D. Sherrill, 
 A. C. Simmonett, J. E. Subotnik, H. L. Woodcock III,
 W. Zhang, A. T. Bell, A. K. Chakraborty, D. M. Chipman,
 F. J. Keil, A. Warshel, W. J. Hehre, H. F. Schaefer III,
 J. Kong, A. I. Krylov, P. M. W. Gill, M. Head-Gordon,
 Q-Chem, Version 3.1, Q-Chem, Inc., Pittsburgh, PA (2007).

 Additional authors for Version 3.1: 
 Z. Gan, Y. Zhao, N. E. Schultz, D. Truhlar, E. Epifanovsky and M. Oana.

 Additional authors for Version 3.2: 
 R. Baer, B. R. Brooks, D. Casanova, J.-D. Chai, C.-L. Cheng, 
 C. Cramer, D. Crittenden, A. Ghysels, G. Hawkins, E. G. Hohenstein, 
 C. Kelley, W. Kurlancheek, D. Liotard, E. Livshits, P. Manohar, 
 A. Marenich, D. Neuhauser, R. Olson, M. A. Rohrdanz, K. S. Thanthiriwatte, 
 A. J. W. Thom, V. Vanovschi, C. F. Williams, Q. Wu and Z.-Q. You. 


 Intel X86 Linux Version

 Q-chem begins on Wed May 29 17:26:25 2013  

 Parallel job on  1  processors
Processing $rem in /usr/local/qchem/config/preferences.

theFileMan(): MAXOPENFILES=974 MAX_SUB_FILE_NUM=16
Maximum size of a physical file is 2.0 GB, maximum size of a tmp-file is 32.0 GB


--------------------------------------------------------------
User input:
--------------------------------------------------------------

$molecule
1,2
Si        -0.00010        0.00000        0.00114
Cl         0.00026        0.00000        2.01269
Cl         1.89604        0.00000       -0.67105
Cl        -0.94810        1.64179       -0.67139
Cl        -0.94810       -1.64179       -0.67139
$end

$comment
positive
$end

$xc_functional
C PBE   1.00
X wPBE  1.00
$end

$rem
SYMMETRY_DECOMPOSITION	0
LRC_DFT                 true
exchange 		general
BASIS                   g3large
omega			360
mem_static              760
max_scf_cycles          200
scf_final_print         1
sym_ignore              true
$end

--------------------------------------------------------------
 Writing REM_CC_EA            5
 ----------------------------------------------------
       Standard Nuclear Orientation (Angstroms)
    I     Atom         X            Y            Z
 ----------------------------------------------------
    1      Si     -0.000100     0.000000     0.001140
    2      Cl      0.000260     0.000000     2.012690
    3      Cl      1.896040     0.000000    -0.671050
    4      Cl     -0.948100     1.641790    -0.671390
    5      Cl     -0.948100    -1.641790    -0.671390
 ----------------------------------------------------
 Nuclear Repulsion Energy =   529.7647965386 hartrees
 There are       41 alpha and       40 beta electrons
 Requested basis set is G3large
 There are 95 shells and 330 basis functions

Total QAlloc Memory Limit   2000 MB
Mega-Array Size       743 MB
MEM_STATIC part       760 MB

                       Distance Matrix (Angstroms)
             Si(  1)   Cl(  2)   Cl(  3)   Cl(  4)
   Cl(  2)  2.011550
   Cl(  3)  2.011762  3.285794
   Cl(  4)  2.011585  3.286205  3.283993
   Cl(  5)  2.011585  3.286205  3.283993  3.283580
 
 A cutoff of  1.0D-08 yielded   3472 shell pairs
 There are  43435 function pairs ( 61990 Cartesian)
Evaluating contribution to one-electron hamiltonian from nuclear
 Smallest overlap matrix eigenvalue = 2.86E-04
 Multipole matrices computed through 2nd order

  Scale SEOQF with 1.000000e-01/1.000000e-01/1.000000e-01

 Standard Electronic Orientation quadrupole field applied
 Guess from superposition of atomic densities
 Warning:  Energy on first SCF cycle will be non-variational
 Long-range K will be added via erf
 Coulomb attenuation parameter = 0.36 bohr**(-1)
 An unrestricted Kohn-Sham SCF calculation will be
 performed using Pulay DIIS extrapolation
 Exchange:  wPBE + LR-HF      Correlation:  PBE
 Using SG-1 standard quadrature grid
 SCF converges when DIIS error is below 1.0E-05
 Requested basis set is G3large
 There are 95 shells and 330 basis functions
 A cutoff of  1.0D-08 yielded   3472 shell pairs
 There are  43435 function pairs ( 61990 Cartesian)
 Warning!  Inaccurate integrated density:
   Number of electrons =    81
   Numerical integral  =    82.000036172147
   Relative error      =     1.2346125582 %
 ---------------------------------------
  Cycle       Energy         DIIS Error
 ---------------------------------------
    1   -2130.6655222046      1.93E-02
    2   -2129.2882653275      2.52E-03
    3   -2129.3281721510      2.58E-03
    4   -2129.4046539831      2.39E-04
    5   -2129.4059655753      9.92E-05
    6   -2129.4064567946      4.06E-05
    7   -2129.4067456394      3.34E-05
    8   -2129.4069104509      2.10E-05
    9   -2129.4071107907      1.56E-05
   10   -2129.4071773553      8.27E-06 Convergence criterion met
 ---------------------------------------
 One-Electron    Energy = -3981.6062322075
 Total Coulomb   Energy =  1455.4128272248
 Alpha Exchange  Energy =    -7.8031842528
 Beta  Exchange  Energy =    -7.5749355520
 DFT   Exchange  Energy =  -114.4282822659
 DFT Correlation Energy =    -3.1721668405
 Nuclear Repu.   Energy =   529.7647965386
 Nuclear Attr.   Energy = -6108.1777295829
 Kinetic         Energy =  2126.5714973754
 <S^2> = 0.7626
 SCF time:  CPU 676.95 s  wall 677.63 s
 Final Alpha MO Eigenvalues
            1           2           3           4           5           6
    1-101.1358783-101.1326825-101.1124986-101.0572558 -65.9434743  -9.6563342
            7           8           9          10          11          12
    1  -9.6532120  -9.6335407  -9.5795603  -7.4745033  -7.4710577  -7.4709238
           13          14          15          16          17          18
    1  -7.4680895  -7.4644694  -7.4612951  -7.4496014  -7.4489999  -7.4422857
           19          20          21          22          23          24
    1  -7.3971622  -7.3903264  -7.3899362  -5.5901881  -3.9952991  -3.9949996
           25          26          27          28          29          30
    1  -3.9938805  -1.2565116  -1.2168630  -1.2028502  -1.1573988  -0.8865733
           31          32          33          34          35          36
    1  -0.7899679  -0.7858684  -0.7634311  -0.7281433  -0.7210877  -0.7017242
           37          38          39          40          41          42
    1  -0.6890930  -0.6866816  -0.6811919  -0.6372472  -0.6340922  -0.1423530
           43          44          45          46
    1  -0.1036420  -0.1023719  -0.1004352  -0.0889467
 Final Beta MO Eigenvalues
            1           2           3           4           5           6
    1-101.1332100-101.1301296-101.1105701-101.0572113 -65.9435970  -9.6539760
            7           8           9          10          11          12
    1  -9.6509584  -9.6318423  -9.5795226  -7.4695792  -7.4675457  -7.4667000
           13          14          15          16          17          18
    1  -7.4642612  -7.4626465  -7.4598008  -7.4479997  -7.4445439  -7.4410431
           19          20          21          22          23          24
    1  -7.3971611  -7.3901603  -7.3899373  -5.5903871  -3.9956012  -3.9952828
           25          26          27          28          29          30
    1  -3.9940219  -1.2447962  -1.1962753  -1.1868458  -1.1555338  -0.8816003
           31          32          33          34          35          36
    1  -0.7796923  -0.7723445  -0.7610288  -0.6997047  -0.6879172  -0.6791512
           37          38          39          40          41          42
    1  -0.6571080  -0.6568151  -0.6314481  -0.6291468  -0.4486410  -0.1389162
           43          44          45
    1  -0.1011666  -0.0977331  -0.0971460
 Analysis of SCF Wavefunction
 
 --------------------------------------------------------------
                    Orbital Energies (a.u.)
 --------------------------------------------------------------
 
 Alpha MOs
 -- Occupied --
*******-101.133-101.112-101.057 -65.943  -9.656  -9.653  -9.634
 -9.580  -7.475  -7.471  -7.471  -7.468  -7.464  -7.461  -7.450
 -7.449  -7.442  -7.397  -7.390  -7.390  -5.590  -3.995  -3.995
 -3.994  -1.257  -1.217  -1.203  -1.157  -0.887  -0.790  -0.786
 -0.763  -0.728  -0.721  -0.702  -0.689  -0.687  -0.681  -0.637
 -0.634
 -- Virtual --
 -0.142  -0.104  -0.102  -0.100  -0.089  -0.051  -0.051  -0.048
 -0.011  -0.010  -0.005  -0.005  -0.004   0.017   0.022   0.026
  0.035   0.036   0.037   0.041   0.043   0.045   0.064   0.076
  0.078   0.082   0.109   0.111   0.119   0.171   0.177   0.185
  0.187   0.189   0.193   0.213   0.215   0.250   0.253   0.253
  0.261   0.273   0.278   0.309   0.359   0.359   0.367   0.384
  0.385   0.399   0.399   0.401   0.411   0.476   0.481   0.483
  0.488   0.490   0.501   0.505   0.549   0.549   0.553   0.577
  0.578   0.667   0.689   0.691   0.696   0.710   0.712   0.752
  0.755   0.757   0.793   0.797   0.807   0.933   0.938   0.946
  0.954   0.958   0.970   0.972   0.974   0.978   0.983   0.989
  0.991   1.013   1.016   1.017   1.049   1.056   1.058   1.081
  1.088   1.093   1.098   1.102   1.104   1.124   1.125   1.129
  1.203   1.207   1.223   1.243   1.246   1.247   1.384   1.401
  1.405   1.412   1.415   1.421   1.440   1.470   1.480   1.483
  1.505   1.506   1.515   1.555   1.567   1.571   1.618   1.620
  1.722   1.839   1.843   1.858   2.077   2.079   2.082   2.091
  2.117   2.118   2.129   2.130   2.132   2.229   2.239   2.240
  2.337   2.349   2.351   2.421   2.428   2.450   2.539   3.593
  3.594   3.742   3.745   3.754   4.185   4.186   4.191   4.198
  4.208   4.224   4.236   4.237   4.254   4.279   4.308   4.313
  4.315   4.331   4.333   4.343   4.348   4.349   4.389   4.410
  4.420   4.421   4.432   4.450   4.450   4.454   4.461   4.463
  4.858   4.864   4.867   4.876   4.888   4.890   4.921   4.924
  4.972   4.992   4.996   5.045   5.065   5.076   5.092   5.116
  5.120   5.272   5.283   5.319   6.234   9.619   9.631   9.669
  9.798  11.430  11.431  11.433  17.332  17.406  17.414  17.489
 17.546  20.321  20.322  20.341  20.370  20.372  20.427  20.459
 20.462  20.603  20.613  20.637  20.690  21.863  21.865  21.870
 21.872  21.873  21.875  21.885  26.811  26.826  26.837  26.871
 26.890  26.892  26.905  26.914  26.928  26.933  26.938  26.942
 26.952  26.973  26.985  26.987  27.005  27.020  27.028  27.087
 36.523  36.523  36.527  36.528  36.534  36.535  36.538  36.542
 36.543  36.545  36.547  36.549  36.549  36.552  36.554  36.555
 36.563  36.564  36.567  36.571  36.573  36.604  36.607  36.615
 36.617  36.621  36.623  36.624 141.182 215.516 215.529 215.570
215.726
 
 Beta MOs
 -- Occupied --
*******-101.130-101.111-101.057 -65.944  -9.654  -9.651  -9.632
 -9.580  -7.470  -7.468  -7.467  -7.464  -7.463  -7.460  -7.448
 -7.445  -7.441  -7.397  -7.390  -7.390  -5.590  -3.996  -3.995
 -3.994  -1.245  -1.196  -1.187  -1.156  -0.882  -0.780  -0.772
 -0.761  -0.700  -0.688  -0.679  -0.657  -0.657  -0.631  -0.629
 -- Virtual --
 -0.449  -0.139  -0.101  -0.098  -0.097  -0.089  -0.050  -0.050
 -0.048  -0.009  -0.009  -0.005  -0.004  -0.004   0.018   0.029
  0.031   0.038   0.038   0.039   0.042   0.044   0.045   0.064
  0.080   0.080   0.082   0.114   0.115   0.120   0.186   0.188
  0.191   0.194   0.195   0.197   0.218   0.219   0.254   0.255
  0.262   0.268   0.278   0.282   0.309   0.365   0.365   0.368
  0.389   0.389   0.401   0.402   0.403   0.411   0.478   0.488
  0.491   0.493   0.493   0.504   0.507   0.552   0.552   0.553
  0.578   0.578   0.668   0.689   0.692   0.699   0.715   0.715
  0.755   0.758   0.759   0.796   0.799   0.808   0.944   0.948
  0.954   0.960   0.964   0.976   0.978   0.980   0.986   0.989
  0.995   0.999   1.018   1.021   1.022   1.055   1.062   1.068
  1.084   1.092   1.100   1.106   1.109   1.113   1.129   1.130
  1.133   1.209   1.212   1.225   1.249   1.250   1.250   1.393
  1.405   1.409   1.419   1.420   1.425   1.441   1.478   1.483
  1.485   1.512   1.513   1.516   1.561   1.571   1.575   1.622
  1.623   1.725   1.841   1.845   1.860   2.081   2.086   2.088
  2.107   2.123   2.123   2.128   2.128   2.130   2.233   2.246
  2.248   2.340   2.348   2.350   2.425   2.431   2.451   2.540
  3.593   3.594   3.742   3.746   3.754   4.208   4.210   4.214
  4.219   4.225   4.240   4.250   4.250   4.259   4.283   4.322
  4.328   4.332   4.335   4.340   4.345   4.356   4.358   4.403
  4.421   4.426   4.431   4.441   4.453   4.454   4.456   4.466
  4.469   4.865   4.871   4.873   4.882   4.893   4.895   4.924
  4.926   4.974   4.995   4.999   5.051   5.066   5.077   5.094
  5.118   5.121   5.275   5.285   5.319   6.234   9.624   9.635
  9.671   9.800  11.430  11.430  11.433  17.332  17.405  17.414
 17.488  17.546  20.325  20.329  20.351  20.374  20.377  20.430
 20.462  20.465  20.605  20.614  20.639  20.690  21.862  21.865
 21.870  21.872  21.873  21.875  21.885  26.817  26.832  26.841
 26.874  26.893  26.896  26.908  26.917  26.930  26.935  26.942
 26.945  26.954  26.976  26.986  26.988  27.008  27.021  27.029
 27.087  36.525  36.526  36.530  36.530  36.536  36.537  36.540
 36.544  36.545  36.547  36.548  36.550  36.551  36.552  36.554
 36.556  36.564  36.566  36.569  36.572  36.574  36.604  36.607
 36.615  36.617  36.621  36.623  36.624 141.182 215.519 215.532
215.572 215.728
 --------------------------------------------------------------
 
          Ground-State Mulliken Net Atomic Charges

     Atom                 Charge (a.u.)    Spin (a.u.)
  --------------------------------------------------------
      1 Si                    1.594857      -0.086399
      2 Cl                   -0.083754       0.400986
      3 Cl                   -0.141482       0.290456
      4 Cl                   -0.089684       0.385676
      5 Cl                   -0.279938       0.009281
  --------------------------------------------------------
  Sum of atomic charges =     1.000000
  Sum of spin   charges =     1.000000

 -----------------------------------------------------------------
                    Cartesian Multipole Moments
 -----------------------------------------------------------------
    Charge (ESU x 10^10)
                 4.8032
    Dipole Moment (Debye)
         X       0.4134      Y       1.5204      Z       0.8432
       Tot       1.7870
    Quadrupole Moments (Debye-Ang)
        XX     -50.3547     XY      -2.1267     YY     -51.4198
        XZ      -0.4428     YZ      -1.4470     ZZ     -48.4491
    Octapole Moments (Debye-Ang^2)
       XXX      11.2896    XXY       1.8534    XYY      -9.2622
       YYY       5.5475    XXZ      -5.9345    XYZ      -0.0993
       YYZ      -6.0509    XZZ       0.5468    YZZ       1.9171
       ZZZ      17.0974
    Hexadecapole Moments (Debye-Ang^3)
      XXXX    -395.2625   XXXY      -6.0760   XXYY    -132.3347
      XYYY      -5.9209   YYYY    -402.1142   XXXZ     -11.1692
      XXYZ      -1.2611   XYYZ       9.2388   YYYZ      -3.8098
      XXZZ    -136.7391   XYZZ      -2.6185   YYZZ    -137.1181
      XZZZ      -1.2043   YZZZ      -4.9969   ZZZZ    -377.8650
 -----------------------------------------------------------------
 Total job time:  678.32s(wall), 677.62s(cpu) 
 Wed May 29 17:37:43 2013

        *************************************************************
        *                                                           *
        *  Thank you very much for using Q-Chem.  Have a nice day.  *
        *                                                           *
        *************************************************************


0 sent ACK to 0 
now end server 0 ... 
