Process 0 of 1 is on cl226.stfx.acenet.ca - thread support 1
initial socket setup ...start
initial socket setup ...done 
now start server 0 ... 

cmd = /usr/bin/ssh clhead /usr/local/qchem/bin/get_hostid 299080872 > /scratch/tmp/6063744.1.long.q/qchem19999/lic.dat
                  Welcome to Q-Chem
     A Quantum Leap Into The Future Of Chemistry

 Y. Shao, L. Fusti-Molnar, Y. Jung, J. Kussmann, C. Ochsenfeld,
 S. T. Brown, A. T. B. Gilbert, L. V. Slipchenko,S. V. Levchenko,
 D. P. O'Neill, R. A. DiStasio Jr., R. C. Lochan, T. Wang,
 G. J. O. Beran, N. A. Besley, J. M. Herbert, C. Y. Lin,
 T. Van Voorhis, S. H. Chien, A. Sodt, R. P. Steele, 
 V. A. Rassolov, P. E. Maslen, P. P. Korambath, R. D. Adamson,
 B. Austin, J. Baker, E. F. C. Byrd, H. Dachsel, R. J. Doerksen,
 A. Dreuw, B. D. Dunietz, A. D. Dutoi, T. R. Furlani,
 S. R. Gwaltney, A. Heyden, S. Hirata, C.-P. Hsu, G. Kedziora,
 R. Z. Khaliullin, P. Klunzinger, A. M. Lee, M. S. Lee, W. Liang,
 I. Lotan, N. Nair, B. Peters, E. I. Proynov, P. A. Pieniazek, 
 Y. M. Rhee, J. Ritchie, E. Rosta, C. D. Sherrill, 
 A. C. Simmonett, J. E. Subotnik, H. L. Woodcock III,
 W. Zhang, A. T. Bell, A. K. Chakraborty, D. M. Chipman,
 F. J. Keil, A. Warshel, W. J. Hehre, H. F. Schaefer III,
 J. Kong, A. I. Krylov, P. M. W. Gill, M. Head-Gordon,
 Q-Chem, Version 3.1, Q-Chem, Inc., Pittsburgh, PA (2007).

 Additional authors for Version 3.1: 
 Z. Gan, Y. Zhao, N. E. Schultz, D. Truhlar, E. Epifanovsky and M. Oana.

 Additional authors for Version 3.2: 
 R. Baer, B. R. Brooks, D. Casanova, J.-D. Chai, C.-L. Cheng, 
 C. Cramer, D. Crittenden, A. Ghysels, G. Hawkins, E. G. Hohenstein, 
 C. Kelley, W. Kurlancheek, D. Liotard, E. Livshits, P. Manohar, 
 A. Marenich, D. Neuhauser, R. Olson, M. A. Rohrdanz, K. S. Thanthiriwatte, 
 A. J. W. Thom, V. Vanovschi, C. F. Williams, Q. Wu and Z.-Q. You. 


 Intel X86 Linux Version

 Q-chem begins on Sun Jul  7 08:40:49 2013  

 Parallel job on  1  processors
Processing $rem in /usr/local/qchem/config/preferences.

theFileMan(): MAXOPENFILES=974 MAX_SUB_FILE_NUM=16
Maximum size of a physical file is 2.0 GB, maximum size of a tmp-file is 32.0 GB


--------------------------------------------------------------
User input:
--------------------------------------------------------------

$molecule
-1,2
C         -0.00199        0.00000        0.00717
C          0.00183        0.00000        1.31937
F          1.13163        0.00000       -0.70826
H         -0.88054        0.00000       -0.62880
H          0.92723        0.00000        1.88041
H         -0.93959        0.00000        1.85049
$end

$comment
negative
$end

$xc_functional
C PBE   1.00
X wPBE  1.00
$end

$rem
SYMMETRY_DECOMPOSITION	0
exchange 		general
LRC_DFT                 true
BASIS                   g3large
omega			700
mem_static              760
max_scf_cycles          200
scf_final_print         1
sym_ignore              true
$end

--------------------------------------------------------------
 Writing REM_CC_EA            6
 ----------------------------------------------------
       Standard Nuclear Orientation (Angstroms)
    I     Atom         X            Y            Z
 ----------------------------------------------------
    1      C      -0.001990     0.000000     0.007170
    2      C       0.001830     0.000000     1.319370
    3      F       1.131630     0.000000    -0.708260
    4      H      -0.880540     0.000000    -0.628800
    5      H       0.927230     0.000000     1.880410
    6      H      -0.939590     0.000000     1.850490
 ----------------------------------------------------
 Nuclear Repulsion Energy =    67.7967727849 hartrees
 There are       13 alpha and       12 beta electrons
 Requested basis set is G3large
 There are 48 shells and 156 basis functions

Total QAlloc Memory Limit   2000 MB
Mega-Array Size       743 MB
MEM_STATIC part       760 MB

                       Distance Matrix (Angstroms)
             C (  1)   C (  2)   F (  3)   H (  4)   H (  5)
   C (  2)  1.312206
   F (  3)  1.340498  2.321149
   H (  4)  1.084577  2.138678  2.013738
   H (  5)  2.091047  1.082188  2.596727  3.092599
   H (  6)  2.068072  1.080907  3.291983  2.479993  1.867060
 
 A cutoff of  1.0D-08 yielded   1115 shell pairs
 There are  11879 function pairs ( 14831 Cartesian)
Evaluating contribution to one-electron hamiltonian from nuclear
 Smallest overlap matrix eigenvalue = 1.04E-04
 Multipole matrices computed through 2nd order

  Scale SEOQF with 1.000000e-01/1.000000e-01/1.000000e-01

 Standard Electronic Orientation quadrupole field applied
 Nucleus-field energy     =    -0.0000000019 hartrees
 Guess from superposition of atomic densities
 Warning:  Energy on first SCF cycle will be non-variational
 Long-range K will be added via erf
 Coulomb attenuation parameter = 0.7 bohr**(-1)
 An unrestricted Kohn-Sham SCF calculation will be
 performed using Pulay DIIS extrapolation
 Exchange:  wPBE + LR-HF      Correlation:  PBE
 Using SG-1 standard quadrature grid
 SCF converges when DIIS error is below 1.0E-05
 Requested basis set is G3large
 There are 48 shells and 156 basis functions
 A cutoff of  1.0D-08 yielded   1115 shell pairs
 There are  11879 function pairs ( 14831 Cartesian)
 Warning!  Inaccurate integrated density:
   Number of electrons =    25
   Numerical integral  =    23.999812481250
   Relative error      =    -4.0007500750 %
 ---------------------------------------
  Cycle       Energy         DIIS Error
 ---------------------------------------
    1    -178.4669779147      3.56E-02
    2    -177.6165747886      4.97E-03
    3    -177.6826488977      3.24E-03
    4    -177.7072489761      4.57E-04
    5    -177.7095233625      2.46E-04
    6    -177.7103501105      1.39E-04
    7    -177.7108706984      7.68E-05
    8    -177.7115664463      7.24E-05
    9    -177.7118246471      7.38E-05
   10    -177.7112662885      6.80E-05
   11    -177.7108287841      6.13E-05
   12    -177.7107768847      3.73E-05
   13    -177.7108994912      1.40E-05
   14    -177.7109243821      9.27E-06 Convergence criterion met
 ---------------------------------------
 One-Electron    Energy =  -383.4464293638
 Total Coulomb   Energy =   160.5029349080
 Alpha Exchange  Energy =    -3.9177735992
 Beta  Exchange  Energy =    -3.7062695002
 DFT   Exchange  Energy =   -14.1266631133
 DFT Correlation Energy =    -0.8134964966
 Nuclear Repu.   Energy =    67.7967727830
 Nuclear Attr.   Energy =  -560.8898556741
 Kinetic         Energy =   177.4434263103
 <S^2> = 0.7593
 SCF time:  CPU 92.86 s  wall 93.66 s
 Final Alpha MO Eigenvalues
            1           2           3           4           5           6
    1 -24.3990412 -10.0789941 -10.0113956  -1.2527790  -0.7715248  -0.5901679
            7           8           9          10          11          12
    1  -0.4946793  -0.4519344  -0.4379490  -0.3465964  -0.3163967  -0.2092197
           13          14          15          16          17          18
    1   0.0568184   0.1730820   0.1813381   0.1872429   0.2540702   0.2723446
 Final Beta MO Eigenvalues
            1           2           3           4           5           6
    1 -24.3980082 -10.0708954 -10.0099829  -1.2488634  -0.7590444  -0.5741054
            7           8           9          10          11          12
    1  -0.4907479  -0.4327238  -0.4303211  -0.3450898  -0.3126199  -0.1508543
           13          14          15          16          17
    1   0.1741720   0.1845838   0.1883774   0.2552433   0.2729744
 Analysis of SCF Wavefunction
 
 --------------------------------------------------------------
                    Orbital Energies (a.u.)
 --------------------------------------------------------------
 
 Alpha MOs
 -- Occupied --
-24.399 -10.079 -10.011  -1.253  -0.772  -0.590  -0.495  -0.452
 -0.438  -0.347  -0.316  -0.209   0.057
 -- Virtual --
  0.173   0.181   0.187   0.254   0.272   0.284   0.313   0.325
  0.338   0.351   0.355   0.429   0.449   0.479   0.529   0.533
  0.601   0.628   0.651   0.708   0.792   0.803   0.836   0.849
  0.891   0.897   0.926   0.955   0.994   1.001   1.022   1.075
  1.111   1.150   1.248   1.271   1.350   1.373   1.421   1.507
  1.532   1.558   1.632   1.685   1.727   1.741   1.752   1.770
  1.809   1.876   1.904   2.009   2.115   2.341   2.474   2.585
  2.630   2.854   2.873   2.944   3.073   3.083   3.130   3.156
  3.191   3.223   3.273   3.318   3.410   3.504   3.532   3.544
  3.567   3.571   3.627   3.674   3.686   3.802   3.882   3.890
  4.003   4.015   4.064   4.147   4.196   4.204   4.413   4.448
  4.551   4.582   4.660   4.819   4.836   4.904   5.104   5.124
  5.549   5.671   5.767   6.005   6.356   6.638   6.758   7.063
  7.074   7.154   7.184   7.243   7.518   7.778   8.028   9.538
  9.591   9.916  10.092  10.374  24.375  25.213  27.607  27.803
 28.440  28.594  28.642  28.751  41.231  41.332  41.401  41.489
 41.493  41.564  41.643  41.650  41.720  41.757  50.523  50.541
 50.683  50.719  50.854  56.003  56.067  56.509  67.031
 
 Beta MOs
 -- Occupied --
-24.398 -10.071 -10.010  -1.249  -0.759  -0.574  -0.491  -0.433
 -0.430  -0.345  -0.313  -0.151
 -- Virtual --
  0.174   0.185   0.188   0.255   0.273   0.280   0.286   0.314
  0.343   0.353   0.365   0.418   0.432   0.452   0.486   0.535
  0.536   0.602   0.630   0.657   0.713   0.796   0.817   0.852
  0.857   0.902   0.903   0.956   0.962   0.999   1.028   1.034
  1.083   1.115   1.171   1.252   1.273   1.358   1.384   1.424
  1.511   1.550   1.564   1.635   1.695   1.731   1.743   1.758
  1.773   1.812   1.881   1.908   2.015   2.119   2.343   2.479
  2.589   2.640   2.858   2.879   2.948   3.089   3.104   3.140
  3.160   3.208   3.228   3.288   3.333   3.418   3.508   3.543
  3.553   3.574   3.591   3.635   3.681   3.709   3.814   3.886
  3.910   4.009   4.021   4.081   4.155   4.201   4.217   4.416
  4.456   4.556   4.583   4.664   4.826   4.839   4.908   5.104
  5.141   5.555   5.675   5.769   6.005   6.359   6.643   6.759
  7.066   7.077   7.155   7.185   7.245   7.522   7.779   8.030
  9.543   9.596   9.921  10.092  10.375  24.380  25.218  27.621
 27.814  28.444  28.596  28.646  28.754  41.237  41.343  41.405
 41.502  41.504  41.568  41.649  41.652  41.723  41.758  50.527
 50.545  50.686  50.719  50.854  56.006  56.068  56.509  67.032
 --------------------------------------------------------------
 
          Ground-State Mulliken Net Atomic Charges

     Atom                 Charge (a.u.)    Spin (a.u.)
  --------------------------------------------------------
      1 C                    -0.091063       0.370761
      2 C                    -0.931887       0.750211
      3 F                    -0.201748      -0.011226
      4 H                     0.064698      -0.050525
      5 H                     0.104706      -0.035155
      6 H                     0.055295      -0.024066
  --------------------------------------------------------
  Sum of atomic charges =    -1.000000
  Sum of spin   charges =     1.000000

 -----------------------------------------------------------------
                    Cartesian Multipole Moments
 -----------------------------------------------------------------
    Charge (ESU x 10^10)
                -4.8032
    Dipole Moment (Debye)
         X      -1.3227      Y      -0.3426      Z      -3.9030
       Tot       4.1352
    Quadrupole Moments (Debye-Ang)
        XX     -23.4282     XY       0.2667     YY     -29.8432
        XZ       1.3525     YZ      -0.3355     ZZ     -33.0706
    Octapole Moments (Debye-Ang^2)
       XXX     -17.3958    XXY      -0.9041    XYY      -4.1748
       YYY      -2.2197    XXZ      -8.7566    XYZ       0.1960
       YYZ     -22.9716    XZZ      -5.5530    YZZ      -3.1185
       ZZZ     -50.5262
    Hexadecapole Moments (Debye-Ang^3)
      XXXX     -87.1881   XXXY       1.7412   XXYY     -28.7810
      XYYY       1.4639   YYYY     -85.2926   XXXZ      12.1439
      XXYZ      -0.8236   XYYZ       2.8101   YYYZ      -1.8266
      XXZZ     -49.5464   XYZZ       1.8805   YYZZ     -77.5461
      XZZZ      11.7380   YZZZ      -6.6409   ZZZZ    -245.4892
 -----------------------------------------------------------------
 Total job time:  93.84s(wall), 93.03s(cpu) 
 Sun Jul  7 08:42:23 2013

        *************************************************************
        *                                                           *
        *  Thank you very much for using Q-Chem.  Have a nice day.  *
        *                                                           *
        *************************************************************


0 sent ACK to 0 
now end server 0 ... 
 
**********************************************************************
Job 2 of 3 
**********************************************************************
 
Process 0 of 1 is on cl226.stfx.acenet.ca - thread support 1
initial socket setup ...start
initial socket setup ...done 
now start server 0 ... 

cmd = /usr/bin/ssh clhead /usr/local/qchem/bin/get_hostid 864284169 > /scratch/tmp/6063744.1.long.q/qchem19999/lic.dat
                  Welcome to Q-Chem
     A Quantum Leap Into The Future Of Chemistry

 Y. Shao, L. Fusti-Molnar, Y. Jung, J. Kussmann, C. Ochsenfeld,
 S. T. Brown, A. T. B. Gilbert, L. V. Slipchenko,S. V. Levchenko,
 D. P. O'Neill, R. A. DiStasio Jr., R. C. Lochan, T. Wang,
 G. J. O. Beran, N. A. Besley, J. M. Herbert, C. Y. Lin,
 T. Van Voorhis, S. H. Chien, A. Sodt, R. P. Steele, 
 V. A. Rassolov, P. E. Maslen, P. P. Korambath, R. D. Adamson,
 B. Austin, J. Baker, E. F. C. Byrd, H. Dachsel, R. J. Doerksen,
 A. Dreuw, B. D. Dunietz, A. D. Dutoi, T. R. Furlani,
 S. R. Gwaltney, A. Heyden, S. Hirata, C.-P. Hsu, G. Kedziora,
 R. Z. Khaliullin, P. Klunzinger, A. M. Lee, M. S. Lee, W. Liang,
 I. Lotan, N. Nair, B. Peters, E. I. Proynov, P. A. Pieniazek, 
 Y. M. Rhee, J. Ritchie, E. Rosta, C. D. Sherrill, 
 A. C. Simmonett, J. E. Subotnik, H. L. Woodcock III,
 W. Zhang, A. T. Bell, A. K. Chakraborty, D. M. Chipman,
 F. J. Keil, A. Warshel, W. J. Hehre, H. F. Schaefer III,
 J. Kong, A. I. Krylov, P. M. W. Gill, M. Head-Gordon,
 Q-Chem, Version 3.1, Q-Chem, Inc., Pittsburgh, PA (2007).

 Additional authors for Version 3.1: 
 Z. Gan, Y. Zhao, N. E. Schultz, D. Truhlar, E. Epifanovsky and M. Oana.

 Additional authors for Version 3.2: 
 R. Baer, B. R. Brooks, D. Casanova, J.-D. Chai, C.-L. Cheng, 
 C. Cramer, D. Crittenden, A. Ghysels, G. Hawkins, E. G. Hohenstein, 
 C. Kelley, W. Kurlancheek, D. Liotard, E. Livshits, P. Manohar, 
 A. Marenich, D. Neuhauser, R. Olson, M. A. Rohrdanz, K. S. Thanthiriwatte, 
 A. J. W. Thom, V. Vanovschi, C. F. Williams, Q. Wu and Z.-Q. You. 


 Intel X86 Linux Version

 Q-chem begins on Sun Jul  7 08:42:26 2013  

 Parallel job on  1  processors
Processing $rem in /usr/local/qchem/config/preferences.

theFileMan(): MAXOPENFILES=974 MAX_SUB_FILE_NUM=16
Maximum size of a physical file is 2.0 GB, maximum size of a tmp-file is 32.0 GB


--------------------------------------------------------------
User input:
--------------------------------------------------------------

$molecule
0,1
C         -0.00199        0.00000        0.00717
C          0.00183        0.00000        1.31937
F          1.13163        0.00000       -0.70826
H         -0.88054        0.00000       -0.62880
H          0.92723        0.00000        1.88041
H         -0.93959        0.00000        1.85049
$end

$comment
neutral
$end

$xc_functional
C PBE   1.00
X wPBE  1.00
$end


$rem
SYMMETRY_DECOMPOSITION	0
LRC_DFT                 true
exchange 		general
BASIS                   g3large
omega			700
mem_static              760
max_scf_cycles          200
scf_final_print         1
sym_ignore              true
$end

--------------------------------------------------------------
 Writing REM_CC_EA            6
 ----------------------------------------------------
       Standard Nuclear Orientation (Angstroms)
    I     Atom         X            Y            Z
 ----------------------------------------------------
    1      C      -0.001990     0.000000     0.007170
    2      C       0.001830     0.000000     1.319370
    3      F       1.131630     0.000000    -0.708260
    4      H      -0.880540     0.000000    -0.628800
    5      H       0.927230     0.000000     1.880410
    6      H      -0.939590     0.000000     1.850490
 ----------------------------------------------------
 Nuclear Repulsion Energy =    67.7967727849 hartrees
 There are       12 alpha and       12 beta electrons
 Requested basis set is G3large
 There are 48 shells and 156 basis functions

Total QAlloc Memory Limit   2000 MB
Mega-Array Size       743 MB
MEM_STATIC part       760 MB

                       Distance Matrix (Angstroms)
             C (  1)   C (  2)   F (  3)   H (  4)   H (  5)
   C (  2)  1.312206
   F (  3)  1.340498  2.321149
   H (  4)  1.084577  2.138678  2.013738
   H (  5)  2.091047  1.082188  2.596727  3.092599
   H (  6)  2.068072  1.080907  3.291983  2.479993  1.867060
 
 A cutoff of  1.0D-08 yielded   1115 shell pairs
 There are  11879 function pairs ( 14831 Cartesian)
Evaluating contribution to one-electron hamiltonian from nuclear
 Smallest overlap matrix eigenvalue = 1.04E-04
 Multipole matrices computed through 2nd order

  Scale SEOQF with 1.000000e-01/1.000000e-01/1.000000e-01

 Standard Electronic Orientation quadrupole field applied
 Nucleus-field energy     =    -0.0000000019 hartrees
 Guess from superposition of atomic densities
 Warning:  Energy on first SCF cycle will be non-variational
 Long-range K will be added via erf
 Coulomb attenuation parameter = 0.7 bohr**(-1)
 A restricted Kohn-Sham SCF calculation will be
 performed using Pulay DIIS extrapolation
 Exchange:  wPBE + LR-HF      Correlation:  PBE
 Using SG-1 standard quadrature grid
 SCF converges when DIIS error is below 1.0E-05
 Requested basis set is G3large
 There are 48 shells and 156 basis functions
 A cutoff of  1.0D-08 yielded   1115 shell pairs
 There are  11879 function pairs ( 14831 Cartesian)
 ---------------------------------------
  Cycle       Energy         DIIS Error
 ---------------------------------------
    1    -178.4669779147      3.56E-02
    2    -177.7299854025      4.30E-03
    3    -177.7690425939      2.84E-03
    4    -177.7842817600      5.85E-04
    5    -177.7856581526      1.88E-04
    6    -177.7858424898      7.82E-05
    7    -177.7858691530      1.79E-05
    8    -177.7858718221      4.83E-06 Convergence criterion met
 ---------------------------------------
 One-Electron    Energy =  -377.7424232170
 Total Coulomb   Energy =   154.4880305092
 Alpha Exchange  Energy =    -3.7290244973
 Beta  Exchange  Energy =    -3.7290244973
 DFT   Exchange  Energy =   -14.0805641894
 DFT Correlation Energy =    -0.7896387135
 Nuclear Repu.   Energy =    67.7967727830
 Nuclear Attr.   Energy =  -554.8902464827
 Kinetic         Energy =   177.1478232657
 SCF time:  CPU 42.38 s  wall 42.73 s
 Final Alpha MO Eigenvalues
            1           2           3           4           5           6
    1 -24.6259433 -10.3604825 -10.2697337  -1.4788641  -1.0185863  -0.8198607
            7           8           9          10          11          12
    1  -0.7282819  -0.6753459  -0.6648108  -0.5854392  -0.5545387  -0.4177553
           13          14          15          16          17
    1   0.0442455   0.0573983   0.0663012   0.0908746   0.1166989
 Analysis of SCF Wavefunction
 
 --------------------------------------------------------------
                    Orbital Energies (a.u.)
 --------------------------------------------------------------
 
 Alpha MOs
 -- Occupied --
-24.626 -10.360 -10.270  -1.479  -1.019  -0.820  -0.728  -0.675
 -0.665  -0.585  -0.555  -0.418
 -- Virtual --
  0.044   0.057   0.066   0.091   0.117   0.118   0.136   0.172
  0.177   0.186   0.200   0.211   0.244   0.258   0.296   0.356
  0.364   0.429   0.447   0.469   0.512   0.581   0.594   0.620
  0.631   0.668   0.693   0.719   0.746   0.779   0.787   0.808
  0.851   0.896   0.929   1.030   1.051   1.130   1.151   1.202
  1.289   1.306   1.338   1.426   1.459   1.521   1.526   1.527
  1.561   1.593   1.653   1.680   1.783   1.893   2.127   2.255
  2.362   2.402   2.622   2.636   2.705   2.824   2.841   2.878
  2.914   2.941   2.990   3.024   3.070   3.161   3.258   3.286
  3.296   3.322   3.323   3.383   3.426   3.438   3.557   3.639
  3.648   3.760   3.771   3.811   3.898   3.951   3.957   4.175
  4.208   4.306   4.336   4.414   4.572   4.592   4.653   4.860
  4.869   5.299   5.425   5.521   5.761   6.109   6.419   6.539
  6.845   6.856   6.932   6.962   7.020   7.292   7.550   7.796
  9.318   9.371   9.694   9.870  10.152  24.107  24.945  27.336
 27.538  28.163  28.333  28.369  28.488  40.959  41.052  41.142
 41.210  41.218  41.305  41.375  41.378  41.453  41.492  50.299
 50.317  50.457  50.492  50.627  55.777  55.842  56.282  66.805
 --------------------------------------------------------------
 
          Ground-State Mulliken Net Atomic Charges

     Atom                 Charge (a.u.)
  ----------------------------------------
      1 C                    -0.051704
      2 C                    -0.148490
      3 F                    -0.142422
      4 H                     0.136737
      5 H                     0.119288
      6 H                     0.086591
  ----------------------------------------
  Sum of atomic charges =     0.000000

 -----------------------------------------------------------------
                    Cartesian Multipole Moments
 -----------------------------------------------------------------
    Charge (ESU x 10^10)
                 0.0000
    Dipole Moment (Debye)
         X      -1.3830      Y      -0.0002      Z       0.8140
       Tot       1.6048
    Quadrupole Moments (Debye-Ang)
        XX     -17.4008     XY       0.0002     YY     -18.9930
        XZ       1.5352     YZ      -0.0003     ZZ     -15.8530
    Octapole Moments (Debye-Ang^2)
       XXX     -17.0087    XXY       0.0000    XYY      -4.6138
       YYY      -0.0008    XXZ      -2.9336    XYZ       0.0001
       YYZ      -7.3894    XZZ      -5.7440    YZZ      -0.0003
       ZZZ     -12.8091
    Hexadecapole Moments (Debye-Ang^3)
      XXXX     -63.2265   XXXY       0.0007   XXYY     -14.2115
      XYYY       0.0004   YYYY     -19.4703   XXXZ      12.1815
      XXYZ      -0.0003   XYYZ       3.6869   YYYZ      -0.0006
      XXZZ     -25.4123   XYZZ       0.0008   YYZZ     -24.4925
      XZZZ      11.9738   YZZZ      -0.0010   ZZZZ    -108.7988
 -----------------------------------------------------------------
 Total job time:  42.89s(wall), 42.53s(cpu) 
 Sun Jul  7 08:43:09 2013

        *************************************************************
        *                                                           *
        *  Thank you very much for using Q-Chem.  Have a nice day.  *
        *                                                           *
        *************************************************************


0 sent ACK to 0 
now end server 0 ... 
 
**********************************************************************
Job 3 of 3 
**********************************************************************
 
Process 0 of 1 is on cl226.stfx.acenet.ca - thread support 1
initial socket setup ...start
initial socket setup ...done 
now start server 0 ... 

cmd = /usr/bin/ssh clhead /usr/local/qchem/bin/get_hostid 834599389 > /scratch/tmp/6063744.1.long.q/qchem19999/lic.dat
                  Welcome to Q-Chem
     A Quantum Leap Into The Future Of Chemistry

 Y. Shao, L. Fusti-Molnar, Y. Jung, J. Kussmann, C. Ochsenfeld,
 S. T. Brown, A. T. B. Gilbert, L. V. Slipchenko,S. V. Levchenko,
 D. P. O'Neill, R. A. DiStasio Jr., R. C. Lochan, T. Wang,
 G. J. O. Beran, N. A. Besley, J. M. Herbert, C. Y. Lin,
 T. Van Voorhis, S. H. Chien, A. Sodt, R. P. Steele, 
 V. A. Rassolov, P. E. Maslen, P. P. Korambath, R. D. Adamson,
 B. Austin, J. Baker, E. F. C. Byrd, H. Dachsel, R. J. Doerksen,
 A. Dreuw, B. D. Dunietz, A. D. Dutoi, T. R. Furlani,
 S. R. Gwaltney, A. Heyden, S. Hirata, C.-P. Hsu, G. Kedziora,
 R. Z. Khaliullin, P. Klunzinger, A. M. Lee, M. S. Lee, W. Liang,
 I. Lotan, N. Nair, B. Peters, E. I. Proynov, P. A. Pieniazek, 
 Y. M. Rhee, J. Ritchie, E. Rosta, C. D. Sherrill, 
 A. C. Simmonett, J. E. Subotnik, H. L. Woodcock III,
 W. Zhang, A. T. Bell, A. K. Chakraborty, D. M. Chipman,
 F. J. Keil, A. Warshel, W. J. Hehre, H. F. Schaefer III,
 J. Kong, A. I. Krylov, P. M. W. Gill, M. Head-Gordon,
 Q-Chem, Version 3.1, Q-Chem, Inc., Pittsburgh, PA (2007).

 Additional authors for Version 3.1: 
 Z. Gan, Y. Zhao, N. E. Schultz, D. Truhlar, E. Epifanovsky and M. Oana.

 Additional authors for Version 3.2: 
 R. Baer, B. R. Brooks, D. Casanova, J.-D. Chai, C.-L. Cheng, 
 C. Cramer, D. Crittenden, A. Ghysels, G. Hawkins, E. G. Hohenstein, 
 C. Kelley, W. Kurlancheek, D. Liotard, E. Livshits, P. Manohar, 
 A. Marenich, D. Neuhauser, R. Olson, M. A. Rohrdanz, K. S. Thanthiriwatte, 
 A. J. W. Thom, V. Vanovschi, C. F. Williams, Q. Wu and Z.-Q. You. 


 Intel X86 Linux Version

 Q-chem begins on Sun Jul  7 08:43:12 2013  

 Parallel job on  1  processors
Processing $rem in /usr/local/qchem/config/preferences.

theFileMan(): MAXOPENFILES=974 MAX_SUB_FILE_NUM=16
Maximum size of a physical file is 2.0 GB, maximum size of a tmp-file is 32.0 GB


--------------------------------------------------------------
User input:
--------------------------------------------------------------

$molecule
1,2
C         -0.00199        0.00000        0.00717
C          0.00183        0.00000        1.31937
F          1.13163        0.00000       -0.70826
H         -0.88054        0.00000       -0.62880
H          0.92723        0.00000        1.88041
H         -0.93959        0.00000        1.85049
$end

$comment
positive
$end

$xc_functional
C PBE   1.00
X wPBE  1.00
$end

$rem
SYMMETRY_DECOMPOSITION	0
LRC_DFT                 true
exchange 		general
BASIS                   g3large
omega			700
mem_static              760
max_scf_cycles          200
scf_final_print         1
sym_ignore              true
$end

--------------------------------------------------------------
 Writing REM_CC_EA            6
 ----------------------------------------------------
       Standard Nuclear Orientation (Angstroms)
    I     Atom         X            Y            Z
 ----------------------------------------------------
    1      C      -0.001990     0.000000     0.007170
    2      C       0.001830     0.000000     1.319370
    3      F       1.131630     0.000000    -0.708260
    4      H      -0.880540     0.000000    -0.628800
    5      H       0.927230     0.000000     1.880410
    6      H      -0.939590     0.000000     1.850490
 ----------------------------------------------------
 Nuclear Repulsion Energy =    67.7967727849 hartrees
 There are       12 alpha and       11 beta electrons
 Requested basis set is G3large
 There are 48 shells and 156 basis functions

Total QAlloc Memory Limit   2000 MB
Mega-Array Size       743 MB
MEM_STATIC part       760 MB

                       Distance Matrix (Angstroms)
             C (  1)   C (  2)   F (  3)   H (  4)   H (  5)
   C (  2)  1.312206
   F (  3)  1.340498  2.321149
   H (  4)  1.084577  2.138678  2.013738
   H (  5)  2.091047  1.082188  2.596727  3.092599
   H (  6)  2.068072  1.080907  3.291983  2.479993  1.867060
 
 A cutoff of  1.0D-08 yielded   1115 shell pairs
 There are  11879 function pairs ( 14831 Cartesian)
Evaluating contribution to one-electron hamiltonian from nuclear
 Smallest overlap matrix eigenvalue = 1.04E-04
 Multipole matrices computed through 2nd order

  Scale SEOQF with 1.000000e-01/1.000000e-01/1.000000e-01

 Standard Electronic Orientation quadrupole field applied
 Nucleus-field energy     =    -0.0000000019 hartrees
 Guess from superposition of atomic densities
 Warning:  Energy on first SCF cycle will be non-variational
 Long-range K will be added via erf
 Coulomb attenuation parameter = 0.7 bohr**(-1)
 An unrestricted Kohn-Sham SCF calculation will be
 performed using Pulay DIIS extrapolation
 Exchange:  wPBE + LR-HF      Correlation:  PBE
 Using SG-1 standard quadrature grid
 SCF converges when DIIS error is below 1.0E-05
 Requested basis set is G3large
 There are 48 shells and 156 basis functions
 A cutoff of  1.0D-08 yielded   1115 shell pairs
 There are  11879 function pairs ( 14831 Cartesian)
 Warning!  Inaccurate integrated density:
   Number of electrons =    23
   Numerical integral  =    23.999812481250
   Relative error      =     4.3470107880 %
 ---------------------------------------
  Cycle       Energy         DIIS Error
 ---------------------------------------
    1    -178.4669779147      3.56E-02
    2    -177.2859208139      5.10E-03
    3    -177.3629914078      3.69E-03
    4    -177.3923691693      1.07E-03
    5    -177.3969601961      3.06E-04
    6    -177.3987457205      1.38E-04
    7    -177.3995545784      6.32E-05
    8    -177.3997892033      2.90E-05
    9    -177.3998509457      1.10E-05
   10    -177.3998608694      3.42E-06 Convergence criterion met
 ---------------------------------------
 One-Electron    Energy =  -370.2594271204
 Total Coulomb   Energy =   147.0740212270
 Alpha Exchange  Energy =    -3.7621161255
 Beta  Exchange  Energy =    -3.4840043722
 DFT   Exchange  Energy =   -14.0159386244
 DFT Correlation Energy =    -0.7491686369
 Nuclear Repu.   Energy =    67.7967727830
 Nuclear Attr.   Energy =  -547.1657029940
 Kinetic         Energy =   176.9062758736
 <S^2> = 0.7540
 SCF time:  CPU 64.88 s  wall 65.11 s
 Final Alpha MO Eigenvalues
            1           2           3           4           5           6
    1 -24.9303179 -10.7149463 -10.6244055  -1.7749410  -1.3755518  -1.1225969
            7           8           9          10          11          12
    1  -1.0307079  -0.9874095  -0.9691566  -0.8885327  -0.8532978  -0.7789502
           13          14          15          16          17
    1  -0.2091442  -0.1141430  -0.0905328  -0.0762854  -0.0636275
 Final Beta MO Eigenvalues
            1           2           3           4           5           6
    1 -24.9268478 -10.7096765 -10.6161673  -1.7661687  -1.3217202  -1.1087032
            7           8           9          10          11          12
    1  -1.0243383  -0.9784905  -0.9179557  -0.8829863  -0.8485784  -0.3548773
           13          14          15          16
    1  -0.1242640  -0.1123553  -0.0891301  -0.0744759
 Analysis of SCF Wavefunction
 
 --------------------------------------------------------------
                    Orbital Energies (a.u.)
 --------------------------------------------------------------
 
 Alpha MOs
 -- Occupied --
-24.930 -10.715 -10.624  -1.775  -1.376  -1.123  -1.031  -0.987
 -0.969  -0.889  -0.853  -0.779
 -- Virtual --
 -0.209  -0.114  -0.091  -0.076  -0.064  -0.063  -0.033  -0.013
 -0.005   0.014   0.025   0.038   0.042   0.056   0.079   0.151
  0.160   0.204   0.251   0.273   0.284   0.333   0.340   0.340
  0.373   0.385   0.442   0.451   0.496   0.500   0.521   0.547
  0.580   0.636   0.640   0.777   0.784   0.867   0.879   0.941
  1.021   1.028   1.065   1.173   1.176   1.247   1.258   1.275
  1.302   1.336   1.386   1.414   1.506   1.620   1.860   1.968
  2.079   2.104   2.323   2.347   2.397   2.470   2.518   2.518
  2.590   2.608   2.686   2.691   2.737   2.827   2.938   2.955
  2.962   2.996   3.009   3.068   3.109   3.111   3.234   3.317
  3.329   3.446   3.468   3.468   3.572   3.620   3.642   3.881
  3.904   4.007   4.034   4.115   4.270   4.284   4.327   4.508
  4.559   4.969   5.119   5.212   5.458   5.801   6.124   6.255
  6.558   6.569   6.645   6.674   6.730   6.996   7.259   7.499
  9.021   9.074   9.395   9.581   9.861  23.756  24.592  26.974
 27.175  27.813  27.984  28.018  28.138  40.602  40.696  40.783
 40.851  40.858  40.945  41.017  41.026  41.101  41.143  49.992
 50.011  50.150  50.193  50.325  55.469  55.541  55.979  66.502
 
 Beta MOs
 -- Occupied --
-24.927 -10.710 -10.616  -1.766  -1.322  -1.109  -1.024  -0.978
 -0.918  -0.883  -0.849
 -- Virtual --
 -0.355  -0.124  -0.112  -0.089  -0.074  -0.060  -0.053  -0.031
 -0.006   0.008   0.016   0.028   0.040   0.045   0.059   0.085
  0.154   0.167   0.210   0.253   0.275   0.287   0.340   0.347
  0.370   0.391   0.417   0.457   0.470   0.508   0.518   0.527
  0.558   0.589   0.645   0.657   0.779   0.791   0.876   0.889
  0.945   1.033   1.035   1.071   1.180   1.188   1.256   1.261
  1.284   1.305   1.340   1.392   1.419   1.514   1.625   1.865
  1.981   2.087   2.117   2.337   2.350   2.406   2.506   2.536
  2.558   2.621   2.627   2.698   2.710   2.759   2.855   2.950
  2.981   2.991   3.014   3.020   3.077   3.125   3.133   3.254
  3.338   3.340   3.454   3.473   3.498   3.589   3.645   3.651
  3.884   3.911   4.013   4.037   4.122   4.277   4.289   4.335
  4.543   4.562   4.983   5.124   5.216   5.461   5.805   6.139
  6.259   6.566   6.577   6.649   6.680   6.737   7.004   7.261
  7.503   9.034   9.088   9.408   9.584   9.866  23.763  24.599
 26.992  27.195  27.817  27.989  28.022  28.143  40.611  40.705
 40.799  40.862  40.869  40.960  41.028  41.031  41.105  41.145
 50.003  50.021  50.160  50.193  50.328  55.479  55.543  55.981
 66.505
 --------------------------------------------------------------
 
          Ground-State Mulliken Net Atomic Charges

     Atom                 Charge (a.u.)    Spin (a.u.)
  --------------------------------------------------------
      1 C                     0.195243       0.372836
      2 C                     0.209430       0.596166
      3 F                     0.022433       0.090005
      4 H                     0.219628      -0.015846
      5 H                     0.191663      -0.022325
      6 H                     0.161603      -0.020836
  --------------------------------------------------------
  Sum of atomic charges =     1.000000
  Sum of spin   charges =     1.000000

 -----------------------------------------------------------------
                    Cartesian Multipole Moments
 -----------------------------------------------------------------
    Charge (ESU x 10^10)
                 4.8032
    Dipole Moment (Debye)
         X      -1.0090      Y      -0.0003      Z       3.7539
       Tot       3.8871
    Quadrupole Moments (Debye-Ang)
        XX     -12.9509     XY       0.0003     YY     -14.9278
        XZ       0.9074     YZ       0.0000     ZZ      -7.2740
    Octapole Moments (Debye-Ang^2)
       XXX     -15.2712    XXY      -0.0002    XYY      -4.6088
       YYY      -0.0004    XXZ      -1.4218    XYZ      -0.0005
       YYZ      -4.4754    XZZ      -5.0833    YZZ      -0.0007
       ZZZ      -0.0443
    Hexadecapole Moments (Debye-Ang^3)
      XXXX     -51.4965   XXXY       0.0007   XXYY     -11.3993
      XYYY       0.0002   YYYY     -11.4772   XXXZ      10.3137
      XXYZ      -0.0002   XYYZ       3.3766   YYYZ      -0.0001
      XXZZ     -16.2796   XYZZ      -0.0003   YYZZ     -18.1850
      XZZZ      10.8764   YZZZ      -0.0013   ZZZZ     -72.3551
 -----------------------------------------------------------------
 Total job time:  65.27s(wall), 65.03s(cpu) 
 Sun Jul  7 08:44:17 2013

        *************************************************************
        *                                                           *
        *  Thank you very much for using Q-Chem.  Have a nice day.  *
        *                                                           *
        *************************************************************


0 sent ACK to 0 
now end server 0 ... 
