Process 0 of 1 is on cl209.stfx.acenet.ca - thread support 1
initial socket setup ...start
initial socket setup ...done 
now start server 0 ... 

cmd = /usr/bin/ssh clhead /usr/local/qchem/bin/get_hostid 1958065641 > /scratch/tmp/4825416.1.medium.q/qchem19876/lic.dat
                  Welcome to Q-Chem
     A Quantum Leap Into The Future Of Chemistry

 Y. Shao, L. Fusti-Molnar, Y. Jung, J. Kussmann, C. Ochsenfeld,
 S. T. Brown, A. T. B. Gilbert, L. V. Slipchenko,S. V. Levchenko,
 D. P. O'Neill, R. A. DiStasio Jr., R. C. Lochan, T. Wang,
 G. J. O. Beran, N. A. Besley, J. M. Herbert, C. Y. Lin,
 T. Van Voorhis, S. H. Chien, A. Sodt, R. P. Steele, 
 V. A. Rassolov, P. E. Maslen, P. P. Korambath, R. D. Adamson,
 B. Austin, J. Baker, E. F. C. Byrd, H. Dachsel, R. J. Doerksen,
 A. Dreuw, B. D. Dunietz, A. D. Dutoi, T. R. Furlani,
 S. R. Gwaltney, A. Heyden, S. Hirata, C.-P. Hsu, G. Kedziora,
 R. Z. Khaliullin, P. Klunzinger, A. M. Lee, M. S. Lee, W. Liang,
 I. Lotan, N. Nair, B. Peters, E. I. Proynov, P. A. Pieniazek, 
 Y. M. Rhee, J. Ritchie, E. Rosta, C. D. Sherrill, 
 A. C. Simmonett, J. E. Subotnik, H. L. Woodcock III,
 W. Zhang, A. T. Bell, A. K. Chakraborty, D. M. Chipman,
 F. J. Keil, A. Warshel, W. J. Hehre, H. F. Schaefer III,
 J. Kong, A. I. Krylov, P. M. W. Gill, M. Head-Gordon,
 Q-Chem, Version 3.1, Q-Chem, Inc., Pittsburgh, PA (2007).

 Additional authors for Version 3.1: 
 Z. Gan, Y. Zhao, N. E. Schultz, D. Truhlar, E. Epifanovsky and M. Oana.

 Additional authors for Version 3.2: 
 R. Baer, B. R. Brooks, D. Casanova, J.-D. Chai, C.-L. Cheng, 
 C. Cramer, D. Crittenden, A. Ghysels, G. Hawkins, E. G. Hohenstein, 
 C. Kelley, W. Kurlancheek, D. Liotard, E. Livshits, P. Manohar, 
 A. Marenich, D. Neuhauser, R. Olson, M. A. Rohrdanz, K. S. Thanthiriwatte, 
 A. J. W. Thom, V. Vanovschi, C. F. Williams, Q. Wu and Z.-Q. You. 


 Intel X86 Linux Version

 Q-chem begins on Mon Nov 14 18:44:23 2011  

 Parallel job on  1  processors
Processing $rem in /usr/local/qchem/config/preferences.

theFileMan(): MAXOPENFILES=974 MAX_SUB_FILE_NUM=16
Maximum size of a physical file is 2.0 GB, maximum size of a tmp-file is 32.0 GB


--------------------------------------------------------------
User input:
--------------------------------------------------------------

$molecule
-1,1
C
H,1,CH
H,1,CH,2,120.
H,1,CH,2,120.,3,180.,0

CH=1.08274368

$end

$comment
negative
$end

$xc_functional
   X HF 1.0
   X BNL 1.0
   C LYP 1.0
$end

$rem
SYMMETRY_DECOMPOSITION	0
exchange 		general
BASIS                   g3large
omega			11
separate_jk		true
mem_static              760
max_scf_cycles          200
scf_final_print         1
sym_ignore              true
$end

--------------------------------------------------------------
 Writing REM_CC_EA            4
 ----------------------------------------------------
       Standard Nuclear Orientation (Angstroms)
    I     Atom         X            Y            Z
 ----------------------------------------------------
    1      C       0.000000     0.000000     0.000000
    2      H       0.000000     0.000000     1.082744
    3      H       0.937684     0.000000    -0.541372
    4      H      -0.937684     0.000000    -0.541372
 ----------------------------------------------------
 Nuclear Repulsion Energy =     9.6437890173 hartrees
 There are        5 alpha and        5 beta electrons
 Requested basis set is G3large
 There are 28 shells and 72 basis functions

Total QAlloc Memory Limit   2000 MB
Mega-Array Size       743 MB
MEM_STATIC part       760 MB

                       Distance Matrix (Angstroms)
             C (  1)   H (  2)   H (  3)
   H (  2)  1.082744
   H (  3)  1.082744  1.875367
   H (  4)  1.082744  1.875367  1.875367
 
 A cutoff of  1.0D-08 yielded    406 shell pairs
 There are   2724 function pairs (  3216 Cartesian)
Evaluating contribution to one-electron hamiltonian from nuclear
 Smallest overlap matrix eigenvalue = 2.92E-03
 Multipole matrices computed through 2nd order

  Scale SEOQF with 1.000000e-01/1.000000e-01/1.000000e-01

 Standard Electronic Orientation quadrupole field applied
 Nucleus-field energy     =    -0.0000000001 hartrees
 Guess from superposition of atomic densities
 Warning:  Energy on first SCF cycle will be non-variational
 A restricted hybrid HF-DFT SCF calculation will be
 performed using Pulay DIIS extrapolation
 Exchange:     1.0000 Hartree-Fock + 1.0000 BNL
 Correlation:  1.0000 LYP
 Using SG-1 standard quadrature grid
 SCF converges when DIIS error is below 1.0E-05
 Warning!  Inaccurate integrated density:
   Number of electrons =    10
   Numerical integral  =     8.999995709326
   Relative error      =   -10.0000429067 %
 ---------------------------------------
  Cycle       Energy         DIIS Error
 ---------------------------------------
    1     -39.0680807007      3.82E-02
    2     -38.8674734684      1.93E-02
    3     -38.2250790948      2.70E-02
    4     -39.1184141469      6.75E-03
    5     -39.1658014066      1.55E-03
    6     -39.1679309872      2.09E-04
    7     -39.1679664255      4.09E-05
    8     -39.1679678219      6.99E-06 Convergence criterion met
 ---------------------------------------
 One-Electron    Energy =   -73.9537721812
 Total Coulomb   Energy =    31.0607391842
 Alpha Exchange  Energy =    -0.0310218738
 Beta  Exchange  Energy =    -0.0310218738
 DFT   Exchange  Energy =    -5.5694175129
 DFT Correlation Energy =    -0.2872625817
 Nuclear Repu.   Energy =     9.6437890172
 Nuclear Attr.   Energy =  -113.0656286375
 Kinetic         Energy =    39.1118564563
 SCF time:  CPU 7.65 s  wall 9.20 s
 Final Alpha MO Eigenvalues
            1           2           3           4           5           6
    1  -9.4711427  -0.3191341  -0.0994510  -0.0994479   0.1032711   0.1447219
            7           8           9          10
    1   0.1733622   0.1733676   0.2442966   0.2540511
 Analysis of SCF Wavefunction
 
 --------------------------------------------------------------
                    Orbital Energies (a.u.)
 --------------------------------------------------------------
 
 Alpha MOs
 -- Occupied --
 -9.471  -0.319  -0.099  -0.099   0.103
 -- Virtual --
  0.145   0.173   0.173   0.244   0.254   0.254   0.289   0.342
  0.372   0.372   0.623   0.623   0.697   0.766   0.775   0.775
  0.787   0.787   0.853   1.026   1.111   1.154   1.154   1.182
  1.289   1.289   1.521   1.521   1.619   1.619   1.736   2.602
  2.674   2.674   2.872   3.065   3.065   3.116   3.232   3.291
  3.291   3.323   3.378   3.378   3.566   3.566   3.914   3.914
  4.163   4.313   4.313   4.350   4.350   4.366   5.006   5.466
  5.720   5.720  24.372  27.379  28.258  28.258  41.001  41.049
 41.299  41.300  41.417
 --------------------------------------------------------------
 
          Ground-State Mulliken Net Atomic Charges

     Atom                 Charge (a.u.)
  ----------------------------------------
      1 C                    -1.198051
      2 H                     0.065905
      3 H                     0.066066
      4 H                     0.066080
  ----------------------------------------
  Sum of atomic charges =    -1.000000

 -----------------------------------------------------------------
                    Cartesian Multipole Moments
 -----------------------------------------------------------------
    Charge (ESU x 10^10)
                -4.8032
    Dipole Moment (Debye)
         X      -0.0001      Y       0.0000      Z       0.0001
       Tot       0.0001
    Quadrupole Moments (Debye-Ang)
        XX     -13.4249     XY       0.0000     YY     -22.9696
        XZ       0.0000     YZ       0.0000     ZZ     -13.4251
    Octapole Moments (Debye-Ang^2)
       XXX      -0.0001    XXY       0.0000    XYY       0.0000
       YYY       0.0000    XXZ      -0.4283    XYZ       0.0000
       YYZ       0.0002    XZZ       0.0000    YZZ       0.0000
       ZZZ       0.4281
    Hexadecapole Moments (Debye-Ang^3)
      XXXX     -40.2232   XXXY      -0.0001   XXYY     -23.6909
      XYYY      -0.0001   YYYY     -99.7547   XXXZ       0.0000
      XXYZ       0.0000   XYYZ       0.0000   YYYZ       0.0000
      XXZZ     -13.4080   XYZZ       0.0000   YYZZ     -23.6912
      XZZZ       0.0000   YZZZ       0.0000   ZZZZ     -40.2255
 -----------------------------------------------------------------
 Total job time:  9.31s(wall), 7.73s(cpu) 
 Mon Nov 14 18:44:32 2011

        *************************************************************
        *                                                           *
        *  Thank you very much for using Q-Chem.  Have a nice day.  *
        *                                                           *
        *************************************************************


0 sent ACK to 0 
now end server 0 ... 
 
**********************************************************************
Job 2 of 3 
**********************************************************************
 
Process 0 of 1 is on cl209.stfx.acenet.ca - thread support 1
initial socket setup ...start
initial socket setup ...done 
now start server 0 ... 

cmd = /usr/bin/ssh clhead /usr/local/qchem/bin/get_hostid 1233653819 > /scratch/tmp/4825416.1.medium.q/qchem19876/lic.dat
                  Welcome to Q-Chem
     A Quantum Leap Into The Future Of Chemistry

 Y. Shao, L. Fusti-Molnar, Y. Jung, J. Kussmann, C. Ochsenfeld,
 S. T. Brown, A. T. B. Gilbert, L. V. Slipchenko,S. V. Levchenko,
 D. P. O'Neill, R. A. DiStasio Jr., R. C. Lochan, T. Wang,
 G. J. O. Beran, N. A. Besley, J. M. Herbert, C. Y. Lin,
 T. Van Voorhis, S. H. Chien, A. Sodt, R. P. Steele, 
 V. A. Rassolov, P. E. Maslen, P. P. Korambath, R. D. Adamson,
 B. Austin, J. Baker, E. F. C. Byrd, H. Dachsel, R. J. Doerksen,
 A. Dreuw, B. D. Dunietz, A. D. Dutoi, T. R. Furlani,
 S. R. Gwaltney, A. Heyden, S. Hirata, C.-P. Hsu, G. Kedziora,
 R. Z. Khaliullin, P. Klunzinger, A. M. Lee, M. S. Lee, W. Liang,
 I. Lotan, N. Nair, B. Peters, E. I. Proynov, P. A. Pieniazek, 
 Y. M. Rhee, J. Ritchie, E. Rosta, C. D. Sherrill, 
 A. C. Simmonett, J. E. Subotnik, H. L. Woodcock III,
 W. Zhang, A. T. Bell, A. K. Chakraborty, D. M. Chipman,
 F. J. Keil, A. Warshel, W. J. Hehre, H. F. Schaefer III,
 J. Kong, A. I. Krylov, P. M. W. Gill, M. Head-Gordon,
 Q-Chem, Version 3.1, Q-Chem, Inc., Pittsburgh, PA (2007).

 Additional authors for Version 3.1: 
 Z. Gan, Y. Zhao, N. E. Schultz, D. Truhlar, E. Epifanovsky and M. Oana.

 Additional authors for Version 3.2: 
 R. Baer, B. R. Brooks, D. Casanova, J.-D. Chai, C.-L. Cheng, 
 C. Cramer, D. Crittenden, A. Ghysels, G. Hawkins, E. G. Hohenstein, 
 C. Kelley, W. Kurlancheek, D. Liotard, E. Livshits, P. Manohar, 
 A. Marenich, D. Neuhauser, R. Olson, M. A. Rohrdanz, K. S. Thanthiriwatte, 
 A. J. W. Thom, V. Vanovschi, C. F. Williams, Q. Wu and Z.-Q. You. 


 Intel X86 Linux Version

 Q-chem begins on Mon Nov 14 18:44:35 2011  

 Parallel job on  1  processors
Processing $rem in /usr/local/qchem/config/preferences.

theFileMan(): MAXOPENFILES=974 MAX_SUB_FILE_NUM=16
Maximum size of a physical file is 2.0 GB, maximum size of a tmp-file is 32.0 GB


--------------------------------------------------------------
User input:
--------------------------------------------------------------

$molecule
0,2
C
H,1,CH
H,1,CH,2,120.
H,1,CH,2,120.,3,180.,0

CH=1.08274368

$end

$comment
neutral
$end

$xc_functional
   X HF 1.0
   X BNL 1.0
   C LYP 1.0
$end

$rem
SYMMETRY_DECOMPOSITION	0
exchange 		general
BASIS                   g3large
omega			11
separate_jk		true
mem_static              760
max_scf_cycles          200
scf_final_print         1
sym_ignore              true
$end

--------------------------------------------------------------
 Writing REM_CC_EA            4
 ----------------------------------------------------
       Standard Nuclear Orientation (Angstroms)
    I     Atom         X            Y            Z
 ----------------------------------------------------
    1      C       0.000000     0.000000     0.000000
    2      H       0.000000     0.000000     1.082744
    3      H       0.937684     0.000000    -0.541372
    4      H      -0.937684     0.000000    -0.541372
 ----------------------------------------------------
 Nuclear Repulsion Energy =     9.6437890173 hartrees
 There are        5 alpha and        4 beta electrons
 Requested basis set is G3large
 There are 28 shells and 72 basis functions

Total QAlloc Memory Limit   2000 MB
Mega-Array Size       743 MB
MEM_STATIC part       760 MB

                       Distance Matrix (Angstroms)
             C (  1)   H (  2)   H (  3)
   H (  2)  1.082744
   H (  3)  1.082744  1.875367
   H (  4)  1.082744  1.875367  1.875367
 
 A cutoff of  1.0D-08 yielded    406 shell pairs
 There are   2724 function pairs (  3216 Cartesian)
Evaluating contribution to one-electron hamiltonian from nuclear
 Smallest overlap matrix eigenvalue = 2.92E-03
 Multipole matrices computed through 2nd order

  Scale SEOQF with 1.000000e-01/1.000000e-01/1.000000e-01

 Standard Electronic Orientation quadrupole field applied
 Nucleus-field energy     =    -0.0000000001 hartrees
 Guess from superposition of atomic densities
 Warning:  Energy on first SCF cycle will be non-variational
 An unrestricted hybrid HF-DFT SCF calculation will be
 performed using Pulay DIIS extrapolation
 Exchange:     1.0000 Hartree-Fock + 1.0000 BNL
 Correlation:  1.0000 LYP
 Using SG-1 standard quadrature grid
 SCF converges when DIIS error is below 1.0E-05
 ---------------------------------------
  Cycle       Energy         DIIS Error
 ---------------------------------------
    1     -39.0680807007      3.82E-02
    2     -39.1133269020      8.54E-03
    3     -39.0889958108      1.01E-02
    4     -39.1689981179      4.62E-04
    5     -39.1691717527      3.30E-05
    6     -39.1691748837      4.14E-06 Convergence criterion met
 ---------------------------------------
 One-Electron    Energy =   -71.5126569838
 Total Coulomb   Energy =    28.4596219308
 Alpha Exchange  Energy =    -0.0310251401
 Beta  Exchange  Energy =    -0.0248207118
 DFT   Exchange  Energy =    -5.4461213025
 DFT Correlation Energy =    -0.2579616936
 Nuclear Repu.   Energy =     9.6437890172
 Nuclear Attr.   Energy =  -110.6078039488
 Kinetic         Energy =    39.0951469650
 <S^2> = 0.7521
 SCF time:  CPU 6.67 s  wall 8.55 s
 Final Alpha MO Eigenvalues
            1           2           3           4           5           6
    1  -9.7637260  -0.6042966  -0.3673217  -0.3673173  -0.1881902   0.0006548
            7           8           9          10
    1   0.0434151   0.0434221   0.0755051   0.0953749
 Final Beta MO Eigenvalues
            1           2           3           4           5           6
    1  -9.7492241  -0.5751273  -0.3532962  -0.3532903  -0.1157597   0.0055325
            7           8           9
    1   0.0455719   0.0455750   0.0915826
 Analysis of SCF Wavefunction
 
 --------------------------------------------------------------
                    Orbital Energies (a.u.)
 --------------------------------------------------------------
 
 Alpha MOs
 -- Occupied --
 -9.764  -0.604  -0.367  -0.367  -0.188
 -- Virtual --
  0.001   0.043   0.043   0.076   0.095   0.095   0.127   0.145
  0.179   0.179   0.407   0.407   0.467   0.506   0.519   0.519
  0.554   0.554   0.625   0.790   0.847   0.914   0.914   0.935
  1.031   1.031   1.285   1.285   1.380   1.380   1.490   2.348
  2.408   2.408   2.558   2.774   2.774   2.852   2.931   2.997
  2.997   3.015   3.106   3.107   3.258   3.258   3.648   3.648
  3.895   4.052   4.052   4.078   4.078   4.098   4.744   5.192
  5.452   5.452  24.078  27.077  27.969  27.969  40.698  40.761
 41.000  41.000  41.129
 
 Beta MOs
 -- Occupied --
 -9.749  -0.575  -0.353  -0.353
 -- Virtual --
 -0.116   0.006   0.046   0.046   0.092   0.098   0.098   0.137
  0.157   0.185   0.185   0.413   0.413   0.483   0.543   0.543
  0.550   0.564   0.564   0.645   0.792   0.874   0.924   0.924
  0.951   1.054   1.054   1.292   1.292   1.389   1.389   1.505
  2.358   2.427   2.427   2.623   2.810   2.810   2.859   2.982
  3.037   3.037   3.077   3.122   3.122   3.314   3.314   3.659
  3.659   3.906   4.057   4.057   4.095   4.095   4.111   4.749
  5.211   5.462   5.462  24.099  27.104  27.980  27.980  40.728
 40.770  41.024  41.025  41.139
 --------------------------------------------------------------
 
          Ground-State Mulliken Net Atomic Charges

     Atom                 Charge (a.u.)    Spin (a.u.)
  --------------------------------------------------------
      1 C                    -0.419728       1.059814
      2 H                     0.139883      -0.019911
      3 H                     0.139909      -0.019949
      4 H                     0.139936      -0.019954
  --------------------------------------------------------
  Sum of atomic charges =     0.000000
  Sum of spin   charges =     1.000000

 -----------------------------------------------------------------
                    Cartesian Multipole Moments
 -----------------------------------------------------------------
    Charge (ESU x 10^10)
                 0.0000
    Dipole Moment (Debye)
         X      -0.0001      Y       0.0000      Z       0.0000
       Tot       0.0001
    Quadrupole Moments (Debye-Ang)
        XX      -7.4853     XY       0.0000     YY      -9.6197
        XZ       0.0000     YZ       0.0000     ZZ      -7.4853
    Octapole Moments (Debye-Ang^2)
       XXX      -0.0002    XXY       0.0000    XYY       0.0000
       YYY       0.0000    XXZ      -1.0451    XYZ       0.0000
       YYZ       0.0001    XZZ      -0.0001    YZZ       0.0000
       ZZZ       1.0451
    Hexadecapole Moments (Debye-Ang^3)
      XXXX     -16.4520   XXXY       0.0000   XXYY      -5.5648
      XYYY       0.0000   YYYY     -14.3180   XXXZ       0.0001
      XXYZ       0.0000   XYYZ       0.0000   YYYZ       0.0000
      XXZZ      -5.4840   XYZZ       0.0000   YYZZ      -5.5648
      XZZZ       0.0000   YZZZ       0.0000   ZZZZ     -16.4523
 -----------------------------------------------------------------
 Total job time:  8.64s(wall), 6.75s(cpu) 
 Mon Nov 14 18:44:44 2011

        *************************************************************
        *                                                           *
        *  Thank you very much for using Q-Chem.  Have a nice day.  *
        *                                                           *
        *************************************************************


0 sent ACK to 0 
now end server 0 ... 
 
**********************************************************************
Job 3 of 3 
**********************************************************************
 
Process 0 of 1 is on cl209.stfx.acenet.ca - thread support 1
initial socket setup ...start
initial socket setup ...done 
now start server 0 ... 

cmd = /usr/bin/ssh clhead /usr/local/qchem/bin/get_hostid 1098619000 > /scratch/tmp/4825416.1.medium.q/qchem19876/lic.dat
                  Welcome to Q-Chem
     A Quantum Leap Into The Future Of Chemistry

 Y. Shao, L. Fusti-Molnar, Y. Jung, J. Kussmann, C. Ochsenfeld,
 S. T. Brown, A. T. B. Gilbert, L. V. Slipchenko,S. V. Levchenko,
 D. P. O'Neill, R. A. DiStasio Jr., R. C. Lochan, T. Wang,
 G. J. O. Beran, N. A. Besley, J. M. Herbert, C. Y. Lin,
 T. Van Voorhis, S. H. Chien, A. Sodt, R. P. Steele, 
 V. A. Rassolov, P. E. Maslen, P. P. Korambath, R. D. Adamson,
 B. Austin, J. Baker, E. F. C. Byrd, H. Dachsel, R. J. Doerksen,
 A. Dreuw, B. D. Dunietz, A. D. Dutoi, T. R. Furlani,
 S. R. Gwaltney, A. Heyden, S. Hirata, C.-P. Hsu, G. Kedziora,
 R. Z. Khaliullin, P. Klunzinger, A. M. Lee, M. S. Lee, W. Liang,
 I. Lotan, N. Nair, B. Peters, E. I. Proynov, P. A. Pieniazek, 
 Y. M. Rhee, J. Ritchie, E. Rosta, C. D. Sherrill, 
 A. C. Simmonett, J. E. Subotnik, H. L. Woodcock III,
 W. Zhang, A. T. Bell, A. K. Chakraborty, D. M. Chipman,
 F. J. Keil, A. Warshel, W. J. Hehre, H. F. Schaefer III,
 J. Kong, A. I. Krylov, P. M. W. Gill, M. Head-Gordon,
 Q-Chem, Version 3.1, Q-Chem, Inc., Pittsburgh, PA (2007).

 Additional authors for Version 3.1: 
 Z. Gan, Y. Zhao, N. E. Schultz, D. Truhlar, E. Epifanovsky and M. Oana.

 Additional authors for Version 3.2: 
 R. Baer, B. R. Brooks, D. Casanova, J.-D. Chai, C.-L. Cheng, 
 C. Cramer, D. Crittenden, A. Ghysels, G. Hawkins, E. G. Hohenstein, 
 C. Kelley, W. Kurlancheek, D. Liotard, E. Livshits, P. Manohar, 
 A. Marenich, D. Neuhauser, R. Olson, M. A. Rohrdanz, K. S. Thanthiriwatte, 
 A. J. W. Thom, V. Vanovschi, C. F. Williams, Q. Wu and Z.-Q. You. 


 Intel X86 Linux Version

 Q-chem begins on Mon Nov 14 18:44:46 2011  

 Parallel job on  1  processors
Processing $rem in /usr/local/qchem/config/preferences.

theFileMan(): MAXOPENFILES=974 MAX_SUB_FILE_NUM=16
Maximum size of a physical file is 2.0 GB, maximum size of a tmp-file is 32.0 GB


--------------------------------------------------------------
User input:
--------------------------------------------------------------

$molecule
1,1
C
H,1,CH
H,1,CH,2,120.
H,1,CH,2,120.,3,180.,0

CH=1.08274368

$end

$comment
positive
$end

$xc_functional
   X HF 1.0
   X BNL 1.0
   C LYP 1.0
$end

$rem
SYMMETRY_DECOMPOSITION	0
exchange 		general
BASIS                   g3large
omega			11
separate_jk		true
mem_static              760
max_scf_cycles          200
scf_final_print         1
sym_ignore              true
$end

--------------------------------------------------------------
 Writing REM_CC_EA            4
 ----------------------------------------------------
       Standard Nuclear Orientation (Angstroms)
    I     Atom         X            Y            Z
 ----------------------------------------------------
    1      C       0.000000     0.000000     0.000000
    2      H       0.000000     0.000000     1.082744
    3      H       0.937684     0.000000    -0.541372
    4      H      -0.937684     0.000000    -0.541372
 ----------------------------------------------------
 Nuclear Repulsion Energy =     9.6437890173 hartrees
 There are        4 alpha and        4 beta electrons
 Requested basis set is G3large
 There are 28 shells and 72 basis functions

Total QAlloc Memory Limit   2000 MB
Mega-Array Size       743 MB
MEM_STATIC part       760 MB

                       Distance Matrix (Angstroms)
             C (  1)   H (  2)   H (  3)
   H (  2)  1.082744
   H (  3)  1.082744  1.875367
   H (  4)  1.082744  1.875367  1.875367
 
 A cutoff of  1.0D-08 yielded    406 shell pairs
 There are   2724 function pairs (  3216 Cartesian)
Evaluating contribution to one-electron hamiltonian from nuclear
 Smallest overlap matrix eigenvalue = 2.92E-03
 Multipole matrices computed through 2nd order

  Scale SEOQF with 1.000000e-01/1.000000e-01/1.000000e-01

 Standard Electronic Orientation quadrupole field applied
 Nucleus-field energy     =    -0.0000000001 hartrees
 Guess from superposition of atomic densities
 Warning:  Energy on first SCF cycle will be non-variational
 A restricted hybrid HF-DFT SCF calculation will be
 performed using Pulay DIIS extrapolation
 Exchange:     1.0000 Hartree-Fock + 1.0000 BNL
 Correlation:  1.0000 LYP
 Using SG-1 standard quadrature grid
 SCF converges when DIIS error is below 1.0E-05
 Warning!  Inaccurate integrated density:
   Number of electrons =     8
   Numerical integral  =     8.999995709326
   Relative error      =    12.4999463666 %
 ---------------------------------------
  Cycle       Energy         DIIS Error
 ---------------------------------------
    1     -39.0680807007      3.82E-02
    2     -38.8092665423      2.63E-03
    3     -38.8134635598      6.18E-04
    4     -38.8136735610      3.70E-04
    5     -38.8137599926      4.97E-05
    6     -38.8137617577      8.25E-07 Convergence criterion met
 ---------------------------------------
 One-Electron    Energy =   -68.0840063695
 Total Coulomb   Energy =    25.0955227694
 Alpha Exchange  Energy =    -0.0248211941
 Beta  Exchange  Energy =    -0.0248211941
 DFT   Exchange  Energy =    -5.1845930608
 DFT Correlation Energy =    -0.2348317258
 Nuclear Repu.   Energy =     9.6437890172
 Nuclear Attr.   Energy =  -106.9041654649
 Kinetic         Energy =    38.8201590954
 SCF time:  CPU 5.66 s  wall 6.88 s
 Final Alpha MO Eigenvalues
            1           2           3           4           5           6
    1 -10.2056399  -0.9677987  -0.7212532  -0.7212524  -0.5282721  -0.2085162
            7           8           9
    1  -0.1507882  -0.1507848  -0.1134516
 Analysis of SCF Wavefunction
 
 --------------------------------------------------------------
                    Orbital Energies (a.u.)
 --------------------------------------------------------------
 
 Alpha MOs
 -- Occupied --
-10.206  -0.968  -0.721  -0.721
 -- Virtual --
 -0.528  -0.209  -0.151  -0.151  -0.113  -0.113  -0.106  -0.086
 -0.032  -0.013  -0.013   0.162   0.162   0.202   0.202   0.214
  0.231   0.299   0.299   0.371   0.499   0.543   0.628   0.628
  0.650   0.734   0.734   0.997   0.997   1.085   1.085   1.193
  2.025   2.078   2.078   2.184   2.412   2.412   2.503   2.577
  2.639   2.639   2.654   2.750   2.750   2.886   2.886   3.295
  3.295   3.545   3.708   3.708   3.733   3.733   3.758   4.399
  4.841   5.097   5.097  23.646  26.634  27.534  27.534  40.254
 40.322  40.557  40.558  40.691
 --------------------------------------------------------------
 
          Ground-State Mulliken Net Atomic Charges

     Atom                 Charge (a.u.)
  ----------------------------------------
      1 C                     0.289901
      2 H                     0.236700
      3 H                     0.236698
      4 H                     0.236701
  ----------------------------------------
  Sum of atomic charges =     1.000000

 -----------------------------------------------------------------
                    Cartesian Multipole Moments
 -----------------------------------------------------------------
    Charge (ESU x 10^10)
                 4.8032
    Dipole Moment (Debye)
         X       0.0000      Y       0.0000      Z       0.0000
       Tot       0.0000
    Quadrupole Moments (Debye-Ang)
        XX      -4.1010     XY       0.0000     YY      -5.1839
        XZ       0.0000     YZ       0.0000     ZZ      -4.1010
    Octapole Moments (Debye-Ang^2)
       XXX       0.0000    XXY       0.0000    XYY       0.0000
       YYY       0.0000    XXZ      -1.8224    XYZ       0.0000
       YYZ       0.0000    XZZ       0.0000    YZZ       0.0000
       ZZZ       1.8224
    Hexadecapole Moments (Debye-Ang^3)
      XXXX      -8.2322   XXXY       0.0000   XXYY      -2.6017
      XYYY       0.0000   YYYY      -3.7183   XXXZ       0.0000
      XXYZ       0.0000   XYYZ       0.0000   YYYZ       0.0000
      XXZZ      -2.7441   XYZZ       0.0000   YYZZ      -2.6016
      XZZZ       0.0000   YZZZ       0.0000   ZZZZ      -8.2321
 -----------------------------------------------------------------
 Total job time:  6.96s(wall), 5.73s(cpu) 
 Mon Nov 14 18:44:53 2011

        *************************************************************
        *                                                           *
        *  Thank you very much for using Q-Chem.  Have a nice day.  *
        *                                                           *
        *************************************************************


0 sent ACK to 0 
now end server 0 ... 
