Process 0 of 1 is on cl038.stfx.acenet.ca - thread support 1
initial socket setup ...start
initial socket setup ...done 
now start server 0 ... 

cmd = /usr/bin/ssh clhead /usr/local/qchem/bin/get_hostid 1759706597 > /scratch/tmp/6029137.1.short.q/qchem9757/lic.dat
                  Welcome to Q-Chem
     A Quantum Leap Into The Future Of Chemistry

 Y. Shao, L. Fusti-Molnar, Y. Jung, J. Kussmann, C. Ochsenfeld,
 S. T. Brown, A. T. B. Gilbert, L. V. Slipchenko,S. V. Levchenko,
 D. P. O'Neill, R. A. DiStasio Jr., R. C. Lochan, T. Wang,
 G. J. O. Beran, N. A. Besley, J. M. Herbert, C. Y. Lin,
 T. Van Voorhis, S. H. Chien, A. Sodt, R. P. Steele, 
 V. A. Rassolov, P. E. Maslen, P. P. Korambath, R. D. Adamson,
 B. Austin, J. Baker, E. F. C. Byrd, H. Dachsel, R. J. Doerksen,
 A. Dreuw, B. D. Dunietz, A. D. Dutoi, T. R. Furlani,
 S. R. Gwaltney, A. Heyden, S. Hirata, C.-P. Hsu, G. Kedziora,
 R. Z. Khaliullin, P. Klunzinger, A. M. Lee, M. S. Lee, W. Liang,
 I. Lotan, N. Nair, B. Peters, E. I. Proynov, P. A. Pieniazek, 
 Y. M. Rhee, J. Ritchie, E. Rosta, C. D. Sherrill, 
 A. C. Simmonett, J. E. Subotnik, H. L. Woodcock III,
 W. Zhang, A. T. Bell, A. K. Chakraborty, D. M. Chipman,
 F. J. Keil, A. Warshel, W. J. Hehre, H. F. Schaefer III,
 J. Kong, A. I. Krylov, P. M. W. Gill, M. Head-Gordon,
 Q-Chem, Version 3.1, Q-Chem, Inc., Pittsburgh, PA (2007).

 Additional authors for Version 3.1: 
 Z. Gan, Y. Zhao, N. E. Schultz, D. Truhlar, E. Epifanovsky and M. Oana.

 Additional authors for Version 3.2: 
 R. Baer, B. R. Brooks, D. Casanova, J.-D. Chai, C.-L. Cheng, 
 C. Cramer, D. Crittenden, A. Ghysels, G. Hawkins, E. G. Hohenstein, 
 C. Kelley, W. Kurlancheek, D. Liotard, E. Livshits, P. Manohar, 
 A. Marenich, D. Neuhauser, R. Olson, M. A. Rohrdanz, K. S. Thanthiriwatte, 
 A. J. W. Thom, V. Vanovschi, C. F. Williams, Q. Wu and Z.-Q. You. 


 Intel X86 Linux Version

 Q-chem begins on Tue Jun  4 17:14:34 2013  

 Parallel job on  1  processors
Processing $rem in /usr/local/qchem/config/preferences.

theFileMan(): MAXOPENFILES=974 MAX_SUB_FILE_NUM=16
Maximum size of a physical file is 2.0 GB, maximum size of a tmp-file is 32.0 GB


--------------------------------------------------------------
User input:
--------------------------------------------------------------

$molecule
0,1
Si        -0.00000        0.00000       -0.00000
Cl        -0.00000       -0.00000        2.09442
Cl         1.97464       -0.00000       -0.69814
Cl        -0.98732        1.71009       -0.69814
Cl        -0.98732       -1.71009       -0.69814
$end

$comment
neutral
$end

$xc_functional
C PBE   1.00
X wPBE  1.00
$end


$rem
SYMMETRY_DECOMPOSITION	0
LRC_DFT                 true
exchange 		general
BASIS                   g3large
omega			370 
JOBTYPE                 opt
mem_static              760
max_scf_cycles          200
scf_final_print         1
sym_ignore              true
$end


--------------------------------------------------------------
 Writing REM_CC_EA            5
 ----------------------------------------------------
       Standard Nuclear Orientation (Angstroms)
    I     Atom         X            Y            Z
 ----------------------------------------------------
    1      Si      0.000000     0.000000     0.000000
    2      Cl      0.000000     0.000000     2.094420
    3      Cl      1.974640     0.000000    -0.698140
    4      Cl     -0.987320     1.710090    -0.698140
    5      Cl     -0.987320    -1.710090    -0.698140
 ----------------------------------------------------
 Nuclear Repulsion Energy =   508.8208325231 hartrees
 There are       41 alpha and       41 beta electrons
 Requested basis set is G3large
 There are 95 shells and 330 basis functions

Total QAlloc Memory Limit   2000 MB
Mega-Array Size       743 MB
MEM_STATIC part       760 MB
 A cutoff of  1.0D-11 yielded   3608 shell pairs
 There are  45171 function pairs ( 64506 Cartesian)
Evaluating contribution to one-electron hamiltonian from nuclear
 Smallest overlap matrix eigenvalue = 3.17E-04
 Multipole matrices computed through 2nd order

  Scale SEOQF with 1.000000e-01/1.000000e-01/1.000000e-01

 Standard Electronic Orientation quadrupole field applied
 Guess from superposition of atomic densities
 Warning:  Energy on first SCF cycle will be non-variational
 Long-range K will be added via erf
 Coulomb attenuation parameter = 0.37 bohr**(-1)
 A restricted Kohn-Sham SCF calculation will be
 performed using Pulay DIIS extrapolation
 Exchange:  wPBE + LR-HF      Correlation:  PBE
 Using SG-1 standard quadrature grid
 SCF converges when DIIS error is below 1.0E-08
 Requested basis set is G3large
 There are 95 shells and 330 basis functions
 A cutoff of  1.0D-11 yielded   3608 shell pairs
 There are  45171 function pairs ( 64506 Cartesian)
 ---------------------------------------
  Cycle       Energy         DIIS Error
 ---------------------------------------
    1   -2130.3290264103      1.69E-02
    2   -2129.7582105348      2.40E-03
    3   -2129.7815459067      2.46E-03
    4   -2129.8501111493      1.69E-04
    5   -2129.8506443463      6.27E-05
    6   -2129.8507349305      2.43E-05
    7   -2129.8507480428      5.16E-06
    8   -2129.8507490499      1.53E-06
    9   -2129.8507491210      4.45E-07
   10   -2129.8507491307      7.69E-08
   11   -2129.8507491350      2.44E-08
   12   -2129.8507491328      5.95E-09 Convergence criterion met
 ---------------------------------------
 One-Electron    Energy = -3957.2800996389
 Total Coulomb   Energy =  1451.8786094633
 Alpha Exchange  Energy =    -7.9733917816
 Beta  Exchange  Energy =    -7.9733917816
 DFT   Exchange  Energy =  -114.1229299146
 DFT Correlation Energy =    -3.2003780026
 Nuclear Repu.   Energy =   508.8208325231
 Nuclear Attr.   Energy = -6083.7680114536
 Kinetic         Energy =  2126.4879118147
 SCF time:  CPU 825.06 s  wall 829.04 s
 Final Alpha MO Eigenvalues
            1           2           3           4           5           6
    1-100.8916139-100.8916118-100.8916051-100.8916045 -65.7748847  -9.4136889
            7           8           9          10          11          12
    1  -9.4136783  -9.4136679  -9.4136636  -7.2311597  -7.2311594  -7.2310786
           13          14          15          16          17          18
    1  -7.2309704  -7.2240084  -7.2240072  -7.2239966  -7.2239455  -7.2239426
           19          20          21          22          23          24
    1  -7.2239132  -7.2238435  -7.2238432  -5.4164732  -3.8208407  -3.8208187
           25          26          27          28          29          30
    1  -3.8208177  -1.0230664  -0.9769900  -0.9769765  -0.9769702  -0.6790736
           31          32          33          34          35          36
    1  -0.5619616  -0.5619588  -0.5619559  -0.4921511  -0.4921474  -0.4783362
           37          38          39          40          41          42
    1  -0.4783152  -0.4783078  -0.4524145  -0.4524070  -0.4523898   0.0125664
           43          44          45          46
    1   0.0537407   0.0660029   0.0660112   0.0660129
 Analysis of SCF Wavefunction
 
 --------------------------------------------------------------
                    Orbital Energies (a.u.)
 --------------------------------------------------------------
 
 Alpha MOs
 -- Occupied --
*******-100.892-100.892-100.892 -65.775  -9.414  -9.414  -9.414
 -9.414  -7.231  -7.231  -7.231  -7.231  -7.224  -7.224  -7.224
 -7.224  -7.224  -7.224  -7.224  -7.224  -5.416  -3.821  -3.821
 -3.821  -1.023  -0.977  -0.977  -0.977  -0.679  -0.562  -0.562
 -0.562  -0.492  -0.492  -0.478  -0.478  -0.478  -0.452  -0.452
 -0.452
 -- Virtual --
  0.013   0.054   0.066   0.066   0.066   0.087   0.087   0.087
  0.129   0.129   0.129   0.136   0.136   0.160   0.171   0.171
  0.171   0.187   0.187   0.187   0.199   0.206   0.206   0.206
  0.220   0.220   0.285   0.285   0.285   0.364   0.364   0.364
  0.375   0.375   0.375   0.392   0.392   0.417   0.417   0.417
  0.450   0.450   0.450   0.481   0.535   0.535   0.535   0.557
  0.557   0.563   0.563   0.564   0.570   0.637   0.652   0.652
  0.652   0.667   0.667   0.667   0.725   0.725   0.725   0.754
  0.754   0.856   0.871   0.871   0.871   0.914   0.914   0.948
  0.948   0.948   0.980   0.980   0.980   1.147   1.147   1.147
  1.151   1.151   1.151   1.176   1.176   1.192   1.192   1.193
  1.196   1.196   1.196   1.209   1.245   1.245   1.245   1.249
  1.281   1.281   1.281   1.284   1.284   1.287   1.287   1.287
  1.377   1.377   1.377   1.406   1.408   1.409   1.531   1.531
  1.531   1.605   1.610   1.610   1.610   1.663   1.663   1.663
  1.709   1.709   1.709   1.738   1.738   1.738   1.852   1.884
  1.884   1.985   1.985   1.985   2.194   2.270   2.270   2.305
  2.305   2.305   2.309   2.309   2.309   2.429   2.430   2.430
  2.469   2.469   2.469   2.582   2.582   2.582   2.738   3.692
  3.693   3.957   3.958   3.961   4.431   4.435   4.435   4.435
  4.437   4.437   4.437   4.455   4.455   4.469   4.516   4.516
  4.516   4.541   4.541   4.541   4.570   4.614   4.614   4.626
  4.626   4.626   4.633   4.633   4.633   4.655   4.655   4.655
  5.101   5.102   5.105   5.106   5.107   5.115   5.116   5.117
  5.212   5.212   5.212   5.252   5.252   5.252   5.292   5.359
  5.360   5.401   5.402   5.403   6.244   9.852   9.852   9.852
 10.007  11.547  11.547  11.547  17.475  17.555  17.556  17.636
 17.695  20.542  20.542  20.580  20.580  20.580  20.632  20.632
 20.632  20.825  20.835  20.835  20.835  22.043  22.044  22.051
 22.053  22.054  22.055  22.066  27.061  27.064  27.072  27.085
 27.110  27.121  27.138  27.141  27.141  27.149  27.158  27.168
 27.182  27.184  27.190  27.208  27.215  27.233  27.239  27.242
 36.777  36.777  36.777  36.777  36.778  36.778  36.778  36.780
 36.780  36.782  36.784  36.786  36.787  36.790  36.791  36.792
 36.797  36.798  36.799  36.800  36.801  36.801  36.802  36.802
 36.803  36.804  36.804  36.805 141.165 215.749 215.749 215.749
215.933
 --------------------------------------------------------------
 
          Ground-State Mulliken Net Atomic Charges

     Atom                 Charge (a.u.)
  ----------------------------------------
      1 Si                    1.515862
      2 Cl                   -0.378831
      3 Cl                   -0.379427
      4 Cl                   -0.378802
      5 Cl                   -0.378802
  ----------------------------------------
  Sum of atomic charges =     0.000000

 -----------------------------------------------------------------
                    Cartesian Multipole Moments
 -----------------------------------------------------------------
    Charge (ESU x 10^10)
                 0.0000
    Dipole Moment (Debye)
         X       0.0006      Y       0.0000      Z       0.0010
       Tot       0.0011
    Quadrupole Moments (Debye-Ang)
        XX     -62.5584     XY       0.0000     YY     -62.5558
        XZ       0.0011     YZ       0.0000     ZZ     -62.5547
    Octapole Moments (Debye-Ang^2)
       XXX       2.6022    XXY       0.0000    XYY      -2.6032
       YYY       0.0000    XXZ      -1.8371    XYZ       0.0000
       YYZ      -1.8412    XZZ      -0.0019    YZZ       0.0000
       ZZZ       3.6856
    Hexadecapole Moments (Debye-Ang^3)
      XXXX    -492.5252   XXXY       0.0000   XXYY    -164.1745
      XYYY       0.0000   YYYY    -492.4964   XXXZ      -5.6295
      XXYZ       0.0000   XYYZ       5.6359   YYYZ       0.0000
      XXZZ    -168.1536   XYZZ       0.0000   YYZZ    -168.1502
      XZZZ       0.0051   YZZZ       0.0000   ZZZZ    -488.5090
 -----------------------------------------------------------------
 Calculating analytic gradient of the SCF energy
 Gradient of AOints
            1           2           3           4           5
    1  -0.0193465   0.0060912 -32.6813984  16.3473264  16.3473273
    2  -0.0000037   0.0000002   0.0000003 -28.2978074  28.2978105
    3  -0.0037762 -34.6669792  11.5565497  11.5571029  11.5571029
 Gradient of XC Energy
            1           2           3           4           5
    1   0.0000737  -0.0001229   0.1271532  -0.0635520  -0.0635520
    2   0.0000000  -0.0000000  -0.0000000   0.1098165  -0.1098165
    3  -0.0001221   0.1347204  -0.0448865  -0.0448559  -0.0448559
 Gradient of SCF Energy
            1           2           3           4           5
    1  -0.0001307  -0.0000553   0.0310904  -0.0154522  -0.0154522
    2   0.0000000  -0.0000000   0.0000000   0.0266576  -0.0266576
    3  -0.0001222   0.0327613  -0.0109197  -0.0108597  -0.0108597
 Max gradient component =       3.276E-02
 RMS gradient           =       1.692E-02
 Gradient time:  CPU 415.13 s  wall 418.46 s
 Geometry Optimization Parameters
   NAtoms,    NIC,     NZ,  NCons,   NDum,   NFix, NCnnct, MaxDiis
        5      20       0       0       0       0       0       0


** GEOMETRY OPTIMIZATION IN DELOCALIZED INTERNAL COORDINATES **
   Searching for a Minimum

   Optimization Cycle:   1

                       Coordinates (Angstroms)
     ATOM              X           Y           Z
    1  Si          0.000000    0.000000    0.000000
    2  Cl          0.000000    0.000000    2.094420
    3  Cl          1.974640    0.000000   -0.698140
    4  Cl         -0.987320    1.710090   -0.698140
    5  Cl         -0.987320   -1.710090   -0.698140
   Point Group: c1    Number of degrees of freedom:   9


   Energy is  -2129.850749133


 Attempting to Generate Delocalized Internal Coordinates

  8 Hessian modes will be used to form the next step
  Hessian Eigenvalues:
     0.250000    0.250000    0.250000    0.250000    0.250000    0.256887
     0.256888    0.256889

 Minimum Search - Taking Simple RFO Step
 Searching for Lamda that Minimizes Along All modes
 Value Taken    Lamda =  -0.01574936
 Step Taken.  Stepsize is  0.240349

                             Maximum     Tolerance    Cnvgd?
         Gradient           0.065527      0.000300      NO
         Displacement       0.240344      0.001200      NO
         Energy change     *********      0.000001      NO


 New Cartesian Coordinates Obtained by Inverse Iteration

 Displacement from previous Coordinates is:  0.240360
 Writing REM_CC_EA            5
 ----------------------------------------------------
       Standard Nuclear Orientation (Angstroms)
    I     Atom         X            Y            Z
 ----------------------------------------------------
    1      Si     -0.000307     0.000000     0.000377
    2      Cl      0.000278     0.000000     2.031209
    3      Cl      1.913834     0.000000    -0.677005
    4      Cl     -0.956903     1.658524    -0.677290
    5      Cl     -0.956903    -1.658524    -0.677290
 ----------------------------------------------------
 Nuclear Repulsion Energy =   524.7538022343 hartrees
 There are       41 alpha and       41 beta electrons
 Applying Cartesian multipole field
    Component          Value
    ---------          -----
     (2,0,0)        1.00000E-11
     (0,2,0)        2.00000E-11
     (0,0,2)       -3.00000E-11
 Requested basis set is G3large
 There are 95 shells and 330 basis functions
 A cutoff of  1.0D-11 yielded   3642 shell pairs
 There are  45885 function pairs ( 65682 Cartesian)
Evaluating contribution to one-electron hamiltonian from nuclear
 Smallest overlap matrix eigenvalue = 2.93E-04
 Multipole matrices computed through 2nd order
 Guess MOs from SCF MO coefficient file
Reading MOs from coefficient file
Reading MOs from coefficient file
 Long-range K will be added via erf
 Coulomb attenuation parameter = 0.37 bohr**(-1)
 A restricted Kohn-Sham SCF calculation will be
 performed using Pulay DIIS extrapolation
 Exchange:  wPBE + LR-HF      Correlation:  PBE
 Using SG-1 standard quadrature grid
 SCF converges when DIIS error is below 1.0E-08
 Requested basis set is G3large
 There are 95 shells and 330 basis functions
 A cutoff of  1.0D-11 yielded   3642 shell pairs
 There are  45885 function pairs ( 65682 Cartesian)
 ---------------------------------------
  Cycle       Energy         DIIS Error
 ---------------------------------------
    1   -2129.9991695603      1.52E-03
    2   -2129.8600052860      2.79E-04
    3   -2129.8603502023      2.56E-04
    4   -2129.8610584313      2.44E-05
    5   -2129.8610630363      6.53E-06
    6   -2129.8610641281      1.46E-06
    7   -2129.8610641900      2.86E-07
    8   -2129.8610641910      9.27E-08
    9   -2129.8610642129      1.66E-08
   10   -2129.8610642122      1.68E-09 Convergence criterion met
 ---------------------------------------
 One-Electron    Energy = -3989.3352634565
 Total Coulomb   Energy =  1468.0804583065
 Alpha Exchange  Energy =    -7.9799078542
 Beta  Exchange  Energy =    -7.9799078542
 DFT   Exchange  Energy =  -114.1910026929
 DFT Correlation Energy =    -3.2092428951
 Nuclear Repu.   Energy =   524.7538022343
 Nuclear Attr.   Energy = -6116.2055983360
 Kinetic         Energy =  2126.8703348795
 SCF time:  CPU 736.46 s  wall 738.51 s
 Final Alpha MO Eigenvalues
            1           2           3           4           5           6
    1-100.8875969-100.8875234-100.8875227-100.8875116 -65.7531409  -9.4109446
            7           8           9          10          11          12
    1  -9.4108804  -9.4108635  -9.4108588  -7.2277873  -7.2277869  -7.2277254
           13          14          15          16          17          18
    1  -7.2276908  -7.2213364  -7.2213345  -7.2212524  -7.2212137  -7.2212104
           19          20          21          22          23          24
    1  -7.2211785  -7.2211197  -7.2211196  -5.3985027  -3.8026865  -3.8026580
           25          26          27          28          29          30
    1  -3.8026578  -1.0341678  -0.9804478  -0.9803741  -0.9803613  -0.6785067
           31          32          33          34          35          36
    1  -0.5685951  -0.5685646  -0.5685498  -0.4965930  -0.4965718  -0.4804489
           37          38          39          40          41          42
    1  -0.4804213  -0.4804094  -0.4502116  -0.4502083  -0.4501618   0.0359867
           43          44          45          46
    1   0.0633652   0.0716141   0.0716167   0.0716242
 Analysis of SCF Wavefunction
 
 --------------------------------------------------------------
                    Orbital Energies (a.u.)
 --------------------------------------------------------------
 
 Alpha MOs
 -- Occupied --
*******-100.888-100.888-100.888 -65.753  -9.411  -9.411  -9.411
 -9.411  -7.228  -7.228  -7.228  -7.228  -7.221  -7.221  -7.221
 -7.221  -7.221  -7.221  -7.221  -7.221  -5.399  -3.803  -3.803
 -3.803  -1.034  -0.980  -0.980  -0.980  -0.679  -0.569  -0.569
 -0.569  -0.497  -0.497  -0.480  -0.480  -0.480  -0.450  -0.450
 -0.450
 -- Virtual --
  0.036   0.063   0.072   0.072   0.072   0.093   0.093   0.093
  0.132   0.132   0.132   0.135   0.135   0.167   0.171   0.171
  0.171   0.187   0.187   0.187   0.196   0.210   0.210   0.210
  0.226   0.226   0.289   0.289   0.289   0.362   0.362   0.362
  0.380   0.380   0.380   0.397   0.397   0.422   0.422   0.422
  0.456   0.456   0.456   0.482   0.536   0.536   0.536   0.560
  0.560   0.568   0.581   0.581   0.581   0.659   0.673   0.674
  0.674   0.677   0.677   0.677   0.726   0.726   0.726   0.772
  0.772   0.863   0.879   0.879   0.879   0.905   0.905   0.948
  0.948   0.949   0.985   0.985   0.986   1.150   1.150   1.150
  1.159   1.159   1.159   1.177   1.177   1.190   1.190   1.190
  1.202   1.202   1.202   1.215   1.260   1.260   1.260   1.260
  1.292   1.292   1.292   1.310   1.310   1.311   1.311   1.312
  1.406   1.406   1.406   1.432   1.434   1.434   1.587   1.588
  1.588   1.616   1.616   1.616   1.616   1.674   1.674   1.674
  1.710   1.710   1.710   1.752   1.753   1.753   1.832   1.832
  1.908   2.036   2.036   2.036   2.267   2.291   2.291   2.316
  2.317   2.317   2.328   2.328   2.328   2.439   2.440   2.440
  2.532   2.532   2.532   2.628   2.628   2.628   2.743   3.774
  3.776   3.956   3.957   3.959   4.437   4.442   4.442   4.442
  4.442   4.442   4.442   4.465   4.465   4.479   4.540   4.540
  4.541   4.552   4.552   4.552   4.583   4.583   4.610   4.646
  4.646   4.646   4.647   4.647   4.647   4.665   4.665   4.666
  5.108   5.108   5.110   5.111   5.112   5.122   5.123   5.124
  5.210   5.210   5.210   5.280   5.281   5.281   5.311   5.337
  5.337   5.484   5.485   5.485   6.392   9.865   9.865   9.865
 10.016  11.616  11.616  11.616  17.524  17.600  17.606  17.682
 17.740  20.559  20.559  20.593  20.593  20.593  20.662  20.662
 20.662  20.850  20.850  20.850  20.878  22.065  22.066  22.072
 22.074  22.075  22.076  22.086  27.067  27.070  27.077  27.090
 27.115  27.130  27.145  27.145  27.152  27.160  27.174  27.182
 27.189  27.190  27.196  27.219  27.234  27.239  27.262  27.264
 36.780  36.780  36.780  36.780  36.781  36.781  36.782  36.784
 36.784  36.786  36.790  36.792  36.793  36.794  36.795  36.796
 36.797  36.800  36.803  36.804  36.806  36.806  36.807  36.807
 36.807  36.808  36.808  36.809 141.337 215.769 215.769 215.769
215.950
 --------------------------------------------------------------
 
          Ground-State Mulliken Net Atomic Charges

     Atom                 Charge (a.u.)
  ----------------------------------------
      1 Si                    1.612608
      2 Cl                   -0.402895
      3 Cl                   -0.403330
      4 Cl                   -0.403191
      5 Cl                   -0.403191
  ----------------------------------------
  Sum of atomic charges =     0.000000

 -----------------------------------------------------------------
                    Cartesian Multipole Moments
 -----------------------------------------------------------------
    Charge (ESU x 10^10)
                 0.0000
    Dipole Moment (Debye)
         X       0.0009      Y       0.0000      Z       0.0032
       Tot       0.0034
    Quadrupole Moments (Debye-Ang)
        XX     -62.1033     XY       0.0000     YY     -62.1010
        XZ       0.0005     YZ       0.0000     ZZ     -62.0948
    Octapole Moments (Debye-Ang^2)
       XXX       2.3405    XXY       0.0000    XYY      -2.3275
       YYY       0.0000    XXZ      -1.6457    XYZ       0.0000
       YYZ      -1.6552    XZZ       0.0039    YZZ       0.0000
       ZZZ       3.3121
    Hexadecapole Moments (Debye-Ang^3)
      XXXX    -465.9479   XXXY       0.0000   XXYY    -155.4104
      XYYY       0.0000   YYYY    -466.4185   XXXZ      -4.9777
      XXYZ       0.0000   XYYZ       4.9253   YYYZ       0.0000
      XXZZ    -158.8742   XYZZ       0.0000   YYZZ    -158.9559
      XZZZ      -0.0284   YZZZ       0.0000   ZZZZ    -462.9102
 -----------------------------------------------------------------
 Calculating analytic gradient of the SCF energy
 Gradient of AOints
            1           2           3           4           5
    1   0.0092873   0.0003407 -34.1584929  17.0744325  17.0744324
    2   0.0000001  -0.0000000   0.0000001 -29.5707165  29.5707163
    3  -0.0126203 -36.2255219  12.0789657  12.0795882  12.0795883
 Gradient of XC Energy
            1           2           3           4           5
    1  -0.0000255  -0.0000464   0.1314837  -0.0657059  -0.0657059
    2  -0.0000000  -0.0000000  -0.0000000   0.1137627  -0.1137627
    3  -0.0002111   0.1393597  -0.0463527  -0.0463979  -0.0463979
 Gradient of SCF Energy
            1           2           3           4           5
    1   0.0001011  -0.0000041   0.0082601  -0.0041785  -0.0041785
    2  -0.0000000   0.0000000  -0.0000000   0.0073364  -0.0073364
    3  -0.0001477   0.0088200  -0.0028398  -0.0029163  -0.0029163
 Max gradient component =       8.820E-03
 RMS gradient           =       4.573E-03
 Gradient time:  CPU 532.58 s  wall 532.84 s
 Geometry Optimization Parameters
   NAtoms,    NIC,     NZ,  NCons,   NDum,   NFix, NCnnct, MaxDiis
        5      20       0       0       0       0       0       0

 Cartesian Hessian Update
 Hessian Updated using BFGS Update


** GEOMETRY OPTIMIZATION IN DELOCALIZED INTERNAL COORDINATES **
   Searching for a Minimum

   Optimization Cycle:   2

                       Coordinates (Angstroms)
     ATOM              X           Y           Z
    1  Si         -0.000307    0.000000    0.000377
    2  Cl          0.000278    0.000000    2.031209
    3  Cl          1.913834    0.000000   -0.677005
    4  Cl         -0.956903    1.658524   -0.677290
    5  Cl         -0.956903   -1.658524   -0.677290
   Point Group: c1    Number of degrees of freedom:   9


   Energy is  -2129.861064212

 Hessian Updated using BFGS Update

  5 Hessian modes will be used to form the next step
  Hessian Eigenvalues:
     0.198900    0.250000    0.250053    0.256889    0.256908

 Minimum Search - Taking Simple RFO Step
 Searching for Lamda that Minimizes Along All modes
 Value Taken    Lamda =  -0.00156511
 Step Taken.  Stepsize is  0.088362

                             Maximum     Tolerance    Cnvgd?
         Gradient           0.017709      0.000300      NO
         Displacement       0.088334      0.001200      NO
         Energy change     -0.010315      0.000001      NO


 New Cartesian Coordinates Obtained by Inverse Iteration

 Displacement from previous Coordinates is:  0.088429
 Writing REM_CC_EA            5
 ----------------------------------------------------
       Standard Nuclear Orientation (Angstroms)
    I     Atom         X            Y            Z
 ----------------------------------------------------
    1      Si     -0.000079     0.000000     0.001183
    2      Cl      0.000149     0.000000     2.008739
    3      Cl      1.891880     0.000000    -0.669853
    4      Cl     -0.945975     1.638438    -0.670035
    5      Cl     -0.945975    -1.638438    -0.670035
 ----------------------------------------------------
 Nuclear Repulsion Energy =   530.8634762585 hartrees
 There are       41 alpha and       41 beta electrons
 Applying Cartesian multipole field
    Component          Value
    ---------          -----
     (2,0,0)        1.00000E-11
     (0,2,0)        2.00000E-11
     (0,0,2)       -3.00000E-11
 Requested basis set is G3large
 There are 95 shells and 330 basis functions
 A cutoff of  1.0D-11 yielded   3666 shell pairs
 There are  46205 function pairs ( 66090 Cartesian)
Evaluating contribution to one-electron hamiltonian from nuclear
 Smallest overlap matrix eigenvalue = 2.85E-04
 Multipole matrices computed through 2nd order
 Guess MOs from SCF MO coefficient file
Reading MOs from coefficient file
Reading MOs from coefficient file
 Long-range K will be added via erf
 Coulomb attenuation parameter = 0.37 bohr**(-1)
 A restricted Kohn-Sham SCF calculation will be
 performed using Pulay DIIS extrapolation
 Exchange:  wPBE + LR-HF      Correlation:  PBE
 Using SG-1 standard quadrature grid
 SCF converges when DIIS error is below 1.0E-08
 Requested basis set is G3large
 There are 95 shells and 330 basis functions
 A cutoff of  1.0D-11 yielded   3666 shell pairs
 There are  46205 function pairs ( 66090 Cartesian)
 ---------------------------------------
  Cycle       Energy         DIIS Error
 ---------------------------------------
    1   -2129.9101375559      5.90E-04
    2   -2129.8615599563      9.84E-05
    3   -2129.8616008659      8.92E-05
    4   -2129.8616853980      9.08E-06
    5   -2129.8616859635      2.42E-06
    6   -2129.8616861066      4.97E-07
    7   -2129.8616861081      1.05E-07
    8   -2129.8616861084      3.39E-08
    9   -2129.8616861194      5.82E-09 Convergence criterion met
 ---------------------------------------
 One-Electron    Energy = -4001.6246964569
 Total Coulomb   Energy =  1474.2951301808
 Alpha Exchange  Energy =    -7.9823026438
 Beta  Exchange  Energy =    -7.9823026438
 DFT   Exchange  Energy =  -114.2183279332
 DFT Correlation Energy =    -3.2126628809
 Nuclear Repu.   Energy =   530.8634762584
 Nuclear Attr.   Energy = -6128.6563984590
 Kinetic         Energy =  2127.0317020021
 SCF time:  CPU 651.94 s  wall 655.98 s
 Final Alpha MO Eigenvalues
            1           2           3           4           5           6
    1-100.8860272-100.8858017-100.8858010-100.8857991 -65.7446214  -9.4099080
            7           8           9          10          11          12
    1  -9.4097042  -9.4096868  -9.4096824  -7.2264518  -7.2263948  -7.2263941
           13          14          15          16          17          18
    1  -7.2263443  -7.2203162  -7.2203138  -7.2200912  -7.2200574  -7.2200541
           19          20          21          22          23          24
    1  -7.2200206  -7.2199639  -7.2199637  -5.3916091  -3.7957154  -3.7956862
           25          26          27          28          29          30
    1  -3.7956795  -1.0385518  -0.9818371  -0.9816444  -0.9816408  -0.6782077
           31          32          33          34          35          36
    1  -0.5710566  -0.5709395  -0.5709370  -0.4983532  -0.4983484  -0.4812711
           37          38          39          40          41          42
    1  -0.4811606  -0.4811404  -0.4493076  -0.4493007  -0.4491694   0.0402671
           43          44          45          46
    1   0.0708387   0.0724536   0.0724692   0.0724702
 Analysis of SCF Wavefunction
 
 --------------------------------------------------------------
                    Orbital Energies (a.u.)
 --------------------------------------------------------------
 
 Alpha MOs
 -- Occupied --
*******-100.886-100.886-100.886 -65.745  -9.410  -9.410  -9.410
 -9.410  -7.226  -7.226  -7.226  -7.226  -7.220  -7.220  -7.220
 -7.220  -7.220  -7.220  -7.220  -7.220  -5.392  -3.796  -3.796
 -3.796  -1.039  -0.982  -0.982  -0.982  -0.678  -0.571  -0.571
 -0.571  -0.498  -0.498  -0.481  -0.481  -0.481  -0.449  -0.449
 -0.449
 -- Virtual --
  0.040   0.071   0.072   0.072   0.072   0.096   0.096   0.096
  0.133   0.133   0.133   0.135   0.135   0.170   0.172   0.172
  0.172   0.188   0.188   0.188   0.195   0.211   0.211   0.211
  0.229   0.229   0.290   0.290   0.290   0.361   0.361   0.361
  0.382   0.382   0.382   0.398   0.398   0.424   0.424   0.424
  0.458   0.458   0.458   0.482   0.536   0.536   0.536   0.561
  0.561   0.568   0.588   0.588   0.588   0.667   0.681   0.681
  0.681   0.681   0.681   0.681   0.726   0.726   0.726   0.775
  0.775   0.866   0.882   0.883   0.883   0.903   0.903   0.939
  0.939   0.939   0.996   0.997   0.997   1.149   1.149   1.149
  1.163   1.163   1.163   1.177   1.177   1.189   1.189   1.189
  1.204   1.204   1.205   1.217   1.264   1.267   1.267   1.267
  1.296   1.296   1.297   1.321   1.321   1.321   1.322   1.322
  1.417   1.418   1.418   1.442   1.442   1.442   1.606   1.606
  1.607   1.618   1.618   1.618   1.620   1.681   1.681   1.681
  1.702   1.702   1.702   1.767   1.767   1.768   1.813   1.813
  1.929   2.050   2.051   2.051   2.298   2.298   2.298   2.319
  2.320   2.320   2.336   2.336   2.336   2.444   2.444   2.444
  2.556   2.556   2.556   2.647   2.647   2.647   2.745   3.808
  3.809   3.953   3.954   3.956   4.439   4.444   4.444   4.444
  4.445   4.445   4.445   4.469   4.469   4.482   4.550   4.550
  4.551   4.558   4.558   4.558   4.566   4.566   4.625   4.650
  4.651   4.651   4.654   4.654   4.654   4.668   4.669   4.669
  5.110   5.111   5.112   5.113   5.114   5.126   5.127   5.128
  5.209   5.210   5.210   5.291   5.291   5.292   5.317   5.328
  5.329   5.518   5.519   5.520   6.454   9.870   9.870   9.870
 10.018  11.644  11.644  11.644  17.543  17.618  17.626  17.700
 17.757  20.566  20.566  20.598  20.599  20.599  20.673  20.673
 20.673  20.856  20.856  20.857  20.897  22.072  22.075  22.080
 22.082  22.082  22.085  22.095  27.070  27.073  27.079  27.092
 27.116  27.134  27.147  27.147  27.156  27.164  27.176  27.189
 27.193  27.195  27.199  27.221  27.240  27.244  27.274  27.274
 36.781  36.781  36.782  36.782  36.782  36.783  36.784  36.785
 36.785  36.787  36.793  36.794  36.795  36.795  36.796  36.797
 36.798  36.799  36.805  36.806  36.808  36.808  36.809  36.809
 36.809  36.810  36.810  36.810 141.403 215.776 215.776 215.776
215.955
 --------------------------------------------------------------
 
          Ground-State Mulliken Net Atomic Charges

     Atom                 Charge (a.u.)
  ----------------------------------------
      1 Si                    1.647123
      2 Cl                   -0.411523
      3 Cl                   -0.411840
      4 Cl                   -0.411880
      5 Cl                   -0.411880
  ----------------------------------------
  Sum of atomic charges =     0.000000

 -----------------------------------------------------------------
                    Cartesian Multipole Moments
 -----------------------------------------------------------------
    Charge (ESU x 10^10)
                 0.0000
    Dipole Moment (Debye)
         X       0.0004      Y       0.0000      Z       0.0075
       Tot       0.0075
    Quadrupole Moments (Debye-Ang)
        XX     -61.9383     XY       0.0000     YY     -61.9350
        XZ       0.0012     YZ       0.0000     ZZ     -61.9197
    Octapole Moments (Debye-Ang^2)
       XXX       2.2177    XXY       0.0000    XYY      -2.2189
       YYY       0.0000    XXZ      -1.5768    XYZ       0.0000
       YYZ      -1.5829    XZZ      -0.0007    YZZ       0.0000
       ZZZ       3.1742
    Hexadecapole Moments (Debye-Ang^3)
      XXXX    -456.6140   XXXY       0.0000   XXYY    -152.2048
      XYYY       0.0000   YYYY    -456.5843   XXXZ      -4.7122
      XXYZ       0.0000   XYYZ       4.6850   YYYZ       0.0000
      XXZZ    -155.6149   XYZZ       0.0000   YYZZ    -155.6095
      XZZZ      -0.0169   YZZZ       0.0000   ZZZZ    -454.0287
 -----------------------------------------------------------------
 Calculating analytic gradient of the SCF energy
 Gradient of AOints
            1           2           3           4           5
    1  -0.0115958   0.0032315 -34.7111826  17.3597735  17.3597734
    2   0.0000000   0.0000000  -0.0000000 -30.0522767  30.0522767
    3  -0.0482556 -36.8180206  12.2853085  12.2904838  12.2904839
 Gradient of XC Energy
            1           2           3           4           5
    1   0.0002063  -0.0000766   0.1329394  -0.0665345  -0.0665345
    2  -0.0000000  -0.0000000   0.0000000   0.1151506  -0.1151506
    3  -0.0000450   0.1411343  -0.0469572  -0.0470660  -0.0470660
 Gradient of SCF Energy
            1           2           3           4           5
    1   0.0000894  -0.0000279  -0.0020039   0.0009711   0.0009711
    2   0.0000000   0.0000000  -0.0000000  -0.0016402   0.0016402
    3  -0.0000946  -0.0019300   0.0007092   0.0006577   0.0006577
 Max gradient component =       2.004E-03
 RMS gradient           =       1.045E-03
 Gradient time:  CPU 439.72 s  wall 441.86 s
 Geometry Optimization Parameters
   NAtoms,    NIC,     NZ,  NCons,   NDum,   NFix, NCnnct, MaxDiis
        5      20       0       0       0       0       0       0

 Cartesian Hessian Update
 Hessian Updated using BFGS Update


** GEOMETRY OPTIMIZATION IN DELOCALIZED INTERNAL COORDINATES **
   Searching for a Minimum

   Optimization Cycle:   3

                       Coordinates (Angstroms)
     ATOM              X           Y           Z
    1  Si         -0.000079    0.000000    0.001183
    2  Cl          0.000149    0.000000    2.008739
    3  Cl          1.891880    0.000000   -0.669853
    4  Cl         -0.945975    1.638438   -0.670035
    5  Cl         -0.945975   -1.638438   -0.670035
   Point Group: c1    Number of degrees of freedom:   9


   Energy is  -2129.861686119

 Hessian Updated using BFGS Update

  6 Hessian modes will be used to form the next step
  Hessian Eigenvalues:
     0.245485    0.250000    0.250012    0.250432    0.256897    0.257264

 Minimum Search - Taking Simple RFO Step
 Searching for Lamda that Minimizes Along All modes
 Value Taken    Lamda =  -0.00006647
 Step Taken.  Stepsize is  0.016420

                             Maximum     Tolerance    Cnvgd?
         Gradient           0.004044      0.000300      NO
         Displacement       0.016412      0.001200      NO
         Energy change     -0.000622      0.000001      NO


 New Cartesian Coordinates Obtained by Inverse Iteration

 Displacement from previous Coordinates is:  0.016433
 Writing REM_CC_EA            5
 ----------------------------------------------------
       Standard Nuclear Orientation (Angstroms)
    I     Atom         X            Y            Z
 ----------------------------------------------------
    1      Si     -0.000091     0.000000     0.001103
    2      Cl      0.000190     0.000000     2.012843
    3      Cl      1.896206     0.000000    -0.671157
    4      Cl     -0.948153     1.641986    -0.671394
    5      Cl     -0.948153    -1.641986    -0.671394
 ----------------------------------------------------
 Nuclear Repulsion Energy =   529.7176130635 hartrees
 There are       41 alpha and       41 beta electrons
 Applying Cartesian multipole field
    Component          Value
    ---------          -----
     (2,0,0)        1.00000E-11
     (0,2,0)        2.00000E-11
     (0,0,2)       -3.00000E-11
 Requested basis set is G3large
 There are 95 shells and 330 basis functions
 A cutoff of  1.0D-11 yielded   3666 shell pairs
 There are  46205 function pairs ( 66090 Cartesian)
Evaluating contribution to one-electron hamiltonian from nuclear
 Smallest overlap matrix eigenvalue = 2.86E-04
 Multipole matrices computed through 2nd order
 Guess MOs from SCF MO coefficient file
Reading MOs from coefficient file
Reading MOs from coefficient file
 Long-range K will be added via erf
 Coulomb attenuation parameter = 0.37 bohr**(-1)
 A restricted Kohn-Sham SCF calculation will be
 performed using Pulay DIIS extrapolation
 Exchange:  wPBE + LR-HF      Correlation:  PBE
 Using SG-1 standard quadrature grid
 SCF converges when DIIS error is below 1.0E-08
 Requested basis set is G3large
 There are 95 shells and 330 basis functions
 A cutoff of  1.0D-11 yielded   3666 shell pairs
 There are  46205 function pairs ( 66090 Cartesian)
 ---------------------------------------
  Cycle       Energy         DIIS Error
 ---------------------------------------
    1   -2129.8529809163      1.10E-04
    2   -2129.8617135272      1.81E-05
    3   -2129.8617149136      1.63E-05
    4   -2129.8617177079      1.71E-06
    5   -2129.8617177218      4.50E-07
    6   -2129.8617177363      9.15E-08
    7   -2129.8617177347      1.96E-08
    8   -2129.8617177347      6.34E-09 Convergence criterion met
 ---------------------------------------
 One-Electron    Energy = -3999.3199596353
 Total Coulomb   Energy =  1473.1295178461
 Alpha Exchange  Energy =    -7.9818577079
 Beta  Exchange  Energy =    -7.9818577079
 DFT   Exchange  Energy =  -114.2131529039
 DFT Correlation Energy =    -3.2120206894
 Nuclear Repu.   Energy =   529.7176130635
 Nuclear Attr.   Energy = -6126.3207690084
 Kinetic         Energy =  2127.0008093732
 SCF time:  CPU 555.63 s  wall 559.07 s
 Final Alpha MO Eigenvalues
            1           2           3           4           5           6
    1-100.8863447-100.8861270-100.8861263-100.8861126 -65.7462249  -9.4101258
            7           8           9          10          11          12
    1  -9.4099136  -9.4099060  -9.4099043  -7.2267068  -7.2266568  -7.2266562
           13          14          15          16          17          18
    1  -7.2265905  -7.2205314  -7.2205289  -7.2202956  -7.2202760  -7.2202727
           19          20          21          22          23          24
    1  -7.2202240  -7.2201821  -7.2201819  -5.3929000  -3.7970211  -3.7969927
           25          26          27          28          29          30
    1  -3.7969862  -1.0377247  -0.9815982  -0.9813983  -0.9813872  -0.6782672
           31          32          33          34          35          36
    1  -0.5706091  -0.5704925  -0.5704920  -0.4980229  -0.4980096  -0.4811209
           37          38          39          40          41          42
    1  -0.4810253  -0.4810023  -0.4494820  -0.4494797  -0.4493528   0.0396410
           43          44          45          46
    1   0.0693140   0.0723353   0.0723485   0.0723490
 Analysis of SCF Wavefunction
 
 --------------------------------------------------------------
                    Orbital Energies (a.u.)
 --------------------------------------------------------------
 
 Alpha MOs
 -- Occupied --
*******-100.886-100.886-100.886 -65.746  -9.410  -9.410  -9.410
 -9.410  -7.227  -7.227  -7.227  -7.227  -7.221  -7.221  -7.220
 -7.220  -7.220  -7.220  -7.220  -7.220  -5.393  -3.797  -3.797
 -3.797  -1.038  -0.982  -0.981  -0.981  -0.678  -0.571  -0.570
 -0.570  -0.498  -0.498  -0.481  -0.481  -0.481  -0.449  -0.449
 -0.449
 -- Virtual --
  0.040   0.069   0.072   0.072   0.072   0.095   0.095   0.095
  0.133   0.133   0.133   0.135   0.135   0.169   0.172   0.172
  0.172   0.187   0.187   0.187   0.195   0.211   0.211   0.211
  0.228   0.228   0.290   0.290   0.290   0.361   0.361   0.361
  0.381   0.381   0.381   0.398   0.398   0.424   0.424   0.424
  0.457   0.457   0.458   0.482   0.536   0.536   0.536   0.560
  0.560   0.568   0.587   0.587   0.587   0.666   0.680   0.680
  0.680   0.680   0.680   0.680   0.726   0.726   0.726   0.775
  0.775   0.865   0.881   0.882   0.882   0.903   0.903   0.941
  0.941   0.941   0.994   0.994   0.995   1.149   1.149   1.149
  1.162   1.162   1.163   1.177   1.177   1.189   1.189   1.189
  1.204   1.204   1.204   1.216   1.263   1.266   1.266   1.266
  1.295   1.295   1.296   1.319   1.319   1.319   1.320   1.320
  1.415   1.415   1.415   1.440   1.441   1.441   1.603   1.603
  1.604   1.617   1.618   1.618   1.619   1.679   1.679   1.680
  1.703   1.704   1.704   1.764   1.764   1.765   1.816   1.817
  1.925   2.048   2.048   2.048   2.292   2.297   2.297   2.319
  2.319   2.320   2.334   2.335   2.335   2.443   2.443   2.444
  2.551   2.552   2.552   2.643   2.644   2.644   2.745   3.801
  3.802   3.953   3.955   3.957   4.439   4.443   4.444   4.444
  4.444   4.444   4.444   4.468   4.468   4.482   4.548   4.548
  4.549   4.557   4.557   4.557   4.569   4.570   4.622   4.650
  4.650   4.650   4.653   4.653   4.653   4.668   4.668   4.668
  5.109   5.110   5.112   5.113   5.113   5.125   5.126   5.127
  5.209   5.210   5.210   5.289   5.289   5.290   5.316   5.330
  5.330   5.511   5.513   5.514   6.442   9.869   9.869   9.869
 10.018  11.639  11.639  11.639  17.540  17.614  17.622  17.697
 17.754  20.565  20.565  20.597  20.598  20.598  20.671  20.671
 20.671  20.855  20.855  20.855  20.894  22.071  22.073  22.079
 22.081  22.081  22.083  22.093  27.069  27.072  27.078  27.092
 27.116  27.133  27.147  27.147  27.155  27.163  27.176  27.188
 27.192  27.194  27.199  27.221  27.240  27.242  27.272  27.272
 36.781  36.781  36.782  36.782  36.782  36.782  36.783  36.785
 36.785  36.787  36.793  36.794  36.795  36.795  36.796  36.797
 36.798  36.799  36.805  36.805  36.807  36.808  36.808  36.808
 36.809  36.809  36.810  36.810 141.390 215.775 215.775 215.775
215.954
 --------------------------------------------------------------
 
          Ground-State Mulliken Net Atomic Charges

     Atom                 Charge (a.u.)
  ----------------------------------------
      1 Si                    1.640802
      2 Cl                   -0.409917
      3 Cl                   -0.410314
      4 Cl                   -0.410286
      5 Cl                   -0.410286
  ----------------------------------------
  Sum of atomic charges =     0.000000

 -----------------------------------------------------------------
                    Cartesian Multipole Moments
 -----------------------------------------------------------------
    Charge (ESU x 10^10)
                 0.0000
    Dipole Moment (Debye)
         X      -0.0003      Y       0.0000      Z       0.0078
       Tot       0.0078
    Quadrupole Moments (Debye-Ang)
        XX     -61.9705     XY       0.0000     YY     -61.9660
        XZ       0.0017     YZ       0.0000     ZZ     -61.9507
    Octapole Moments (Debye-Ang^2)
       XXX       2.2342    XXY       0.0000    XYY      -2.2405
       YYY       0.0000    XXZ      -1.5886    XYZ       0.0000
       YYZ      -1.5951    XZZ      -0.0019    YZZ       0.0000
       ZZZ       3.2061
    Hexadecapole Moments (Debye-Ang^3)
      XXXX    -458.4558   XXXY       0.0000   XXYY    -152.8003
      XYYY       0.0000   YYYY    -458.3244   XXXZ      -4.7629
      XXYZ       0.0000   XYYZ       4.7292   YYYZ       0.0000
      XXZZ    -156.2318   XYZZ       0.0000   YYZZ    -156.2077
      XZZZ      -0.0216   YZZZ       0.0000   ZZZZ    -455.6375
 -----------------------------------------------------------------
 Calculating analytic gradient of the SCF energy
 Gradient of AOints
            1           2           3           4           5
    1  -0.0150702   0.0030259 -34.6049008  17.3084726  17.3084725
    2   0.0000001  -0.0000000  -0.0000001 -29.9613399  29.9613399
    3  -0.0401916 -36.7088591  12.2453677  12.2518415  12.2518415
 Gradient of XC Energy
            1           2           3           4           5
    1   0.0002194  -0.0000815   0.1326533  -0.0663956  -0.0663956
    2  -0.0000000   0.0000000   0.0000000   0.1148867  -0.1148867
    3  -0.0000951   0.1408192  -0.0468405  -0.0469418  -0.0469418
 Gradient of SCF Energy
            1           2           3           4           5
    1   0.0000214  -0.0000285   0.0000787  -0.0000358  -0.0000358
    2   0.0000000   0.0000000  -0.0000000   0.0000805  -0.0000805
    3  -0.0000305   0.0001047  -0.0000092  -0.0000325  -0.0000325
 Max gradient component =       1.047E-04
 RMS gradient           =       4.971E-05
 Gradient time:  CPU 438.18 s  wall 440.19 s
 Geometry Optimization Parameters
   NAtoms,    NIC,     NZ,  NCons,   NDum,   NFix, NCnnct, MaxDiis
        5      20       0       0       0       0       0       0

 Cartesian Hessian Update
 Hessian Updated using BFGS Update


** GEOMETRY OPTIMIZATION IN DELOCALIZED INTERNAL COORDINATES **
   Searching for a Minimum

   Optimization Cycle:   4

                       Coordinates (Angstroms)
     ATOM              X           Y           Z
    1  Si         -0.000091    0.000000    0.001103
    2  Cl          0.000190    0.000000    2.012843
    3  Cl          1.896206    0.000000   -0.671157
    4  Cl         -0.948153    1.641986   -0.671394
    5  Cl         -0.948153   -1.641986   -0.671394
   Point Group: c1    Number of degrees of freedom:   9


   Energy is  -2129.861717735

 Hessian Updated using BFGS Update

  6 Hessian modes will be used to form the next step
  Hessian Eigenvalues:
     0.249621    0.249968    0.250031    0.256333    0.256870    0.258524

 Minimum Search - Taking Simple RFO Step
 Searching for Lamda that Minimizes Along All modes
 Value Taken    Lamda =   0.00000000
 Step Taken.  Stepsize is  0.000734

                             Maximum     Tolerance    Cnvgd?
         Gradient           0.000184      0.000300     YES
         Displacement       0.000715      0.001200     YES
         Energy change     -0.000032      0.000001      NO


                       Distance Matrix (Angstroms)
             Si(  1)   Cl(  2)   Cl(  3)   Cl(  4)
   Cl(  2)  2.011740
   Cl(  3)  2.011934  3.286143
   Cl(  4)  2.011763  3.286426  3.284280
   Cl(  5)  2.011763  3.286426  3.284280  3.283971
 


 ******************************
 **  OPTIMIZATION CONVERGED  **
 ******************************
 Analysis of SCF Wavefunction
 
 --------------------------------------------------------------
                    Orbital Energies (a.u.)
 --------------------------------------------------------------
 
 Alpha MOs
 -- Occupied --
*******-100.886-100.886-100.886 -65.746  -9.410  -9.410  -9.410
 -9.410  -7.227  -7.227  -7.227  -7.227  -7.221  -7.221  -7.220
 -7.220  -7.220  -7.220  -7.220  -7.220  -5.393  -3.797  -3.797
 -3.797  -1.038  -0.982  -0.981  -0.981  -0.678  -0.571  -0.570
 -0.570  -0.498  -0.498  -0.481  -0.481  -0.481  -0.449  -0.449
 -0.449
 -- Virtual --
  0.040   0.069   0.072   0.072   0.072   0.095   0.095   0.095
  0.133   0.133   0.133   0.135   0.135   0.169   0.172   0.172
  0.172   0.187   0.187   0.187   0.195   0.211   0.211   0.211
  0.228   0.228   0.290   0.290   0.290   0.361   0.361   0.361
  0.381   0.381   0.381   0.398   0.398   0.424   0.424   0.424
  0.457   0.457   0.458   0.482   0.536   0.536   0.536   0.560
  0.560   0.568   0.587   0.587   0.587   0.666   0.680   0.680
  0.680   0.680   0.680   0.680   0.726   0.726   0.726   0.775
  0.775   0.865   0.881   0.882   0.882   0.903   0.903   0.941
  0.941   0.941   0.994   0.994   0.995   1.149   1.149   1.149
  1.162   1.162   1.163   1.177   1.177   1.189   1.189   1.189
  1.204   1.204   1.204   1.216   1.263   1.266   1.266   1.266
  1.295   1.295   1.296   1.319   1.319   1.319   1.320   1.320
  1.415   1.415   1.415   1.440   1.441   1.441   1.603   1.603
  1.604   1.617   1.618   1.618   1.619   1.679   1.679   1.680
  1.703   1.704   1.704   1.764   1.764   1.765   1.816   1.817
  1.925   2.048   2.048   2.048   2.292   2.297   2.297   2.319
  2.319   2.320   2.334   2.335   2.335   2.443   2.443   2.444
  2.551   2.552   2.552   2.643   2.644   2.644   2.745   3.801
  3.802   3.953   3.955   3.957   4.439   4.443   4.444   4.444
  4.444   4.444   4.444   4.468   4.468   4.482   4.548   4.548
  4.549   4.557   4.557   4.557   4.569   4.570   4.622   4.650
  4.650   4.650   4.653   4.653   4.653   4.668   4.668   4.668
  5.109   5.110   5.112   5.113   5.113   5.125   5.126   5.127
  5.209   5.210   5.210   5.289   5.289   5.290   5.316   5.330
  5.330   5.511   5.513   5.514   6.442   9.869   9.869   9.869
 10.018  11.639  11.639  11.639  17.540  17.614  17.622  17.697
 17.754  20.565  20.565  20.597  20.598  20.598  20.671  20.671
 20.671  20.855  20.855  20.855  20.894  22.071  22.073  22.079
 22.081  22.081  22.083  22.093  27.069  27.072  27.078  27.092
 27.116  27.133  27.147  27.147  27.155  27.163  27.176  27.188
 27.192  27.194  27.199  27.221  27.240  27.242  27.272  27.272
 36.781  36.781  36.782  36.782  36.782  36.782  36.783  36.785
 36.785  36.787  36.793  36.794  36.795  36.795  36.796  36.797
 36.798  36.799  36.805  36.805  36.807  36.808  36.808  36.808
 36.809  36.809  36.810  36.810 141.390 215.775 215.775 215.775
215.954
 --------------------------------------------------------------
 
          Ground-State Mulliken Net Atomic Charges

     Atom                 Charge (a.u.)
  ----------------------------------------
      1 Si                    1.640802
      2 Cl                   -0.409917
      3 Cl                   -0.410314
      4 Cl                   -0.410286
      5 Cl                   -0.410286
  ----------------------------------------
  Sum of atomic charges =     0.000000

 -----------------------------------------------------------------
                    Cartesian Multipole Moments
 -----------------------------------------------------------------
    Charge (ESU x 10^10)
                 0.0000
    Dipole Moment (Debye)
         X      -0.0003      Y       0.0000      Z       0.0078
       Tot       0.0078
    Quadrupole Moments (Debye-Ang)
        XX     -61.9705     XY       0.0000     YY     -61.9660
        XZ       0.0017     YZ       0.0000     ZZ     -61.9507
    Octapole Moments (Debye-Ang^2)
       XXX       2.2342    XXY       0.0000    XYY      -2.2405
       YYY       0.0000    XXZ      -1.5886    XYZ       0.0000
       YYZ      -1.5951    XZZ      -0.0019    YZZ       0.0000
       ZZZ       3.2061
    Hexadecapole Moments (Debye-Ang^3)
      XXXX    -458.4558   XXXY       0.0000   XXYY    -152.8003
      XYYY       0.0000   YYYY    -458.3244   XXXZ      -4.7629
      XXYZ       0.0000   XYYZ       4.7292   YYYZ       0.0000
      XXZZ    -156.2318   XYZZ       0.0000   YYZZ    -156.2077
      XZZZ      -0.0216   YZZZ       0.0000   ZZZZ    -455.6375
 -----------------------------------------------------------------
 Total job time:  4618.60s(wall), 4597.28s(cpu) 
 Tue Jun  4 18:31:33 2013

        *************************************************************
        *                                                           *
        *  Thank you very much for using Q-Chem.  Have a nice day.  *
        *                                                           *
        *************************************************************


0 sent ACK to 0 
now end server 0 ... 
 
**********************************************************************
Job 2 of 2 
**********************************************************************
 
Process 0 of 1 is on cl038.stfx.acenet.ca - thread support 1
initial socket setup ...start
initial socket setup ...done 
now start server 0 ... 

cmd = /usr/bin/ssh clhead /usr/local/qchem/bin/get_hostid 1916156029 > /scratch/tmp/6029137.1.short.q/qchem9757/lic.dat
                  Welcome to Q-Chem
     A Quantum Leap Into The Future Of Chemistry

 Y. Shao, L. Fusti-Molnar, Y. Jung, J. Kussmann, C. Ochsenfeld,
 S. T. Brown, A. T. B. Gilbert, L. V. Slipchenko,S. V. Levchenko,
 D. P. O'Neill, R. A. DiStasio Jr., R. C. Lochan, T. Wang,
 G. J. O. Beran, N. A. Besley, J. M. Herbert, C. Y. Lin,
 T. Van Voorhis, S. H. Chien, A. Sodt, R. P. Steele, 
 V. A. Rassolov, P. E. Maslen, P. P. Korambath, R. D. Adamson,
 B. Austin, J. Baker, E. F. C. Byrd, H. Dachsel, R. J. Doerksen,
 A. Dreuw, B. D. Dunietz, A. D. Dutoi, T. R. Furlani,
 S. R. Gwaltney, A. Heyden, S. Hirata, C.-P. Hsu, G. Kedziora,
 R. Z. Khaliullin, P. Klunzinger, A. M. Lee, M. S. Lee, W. Liang,
 I. Lotan, N. Nair, B. Peters, E. I. Proynov, P. A. Pieniazek, 
 Y. M. Rhee, J. Ritchie, E. Rosta, C. D. Sherrill, 
 A. C. Simmonett, J. E. Subotnik, H. L. Woodcock III,
 W. Zhang, A. T. Bell, A. K. Chakraborty, D. M. Chipman,
 F. J. Keil, A. Warshel, W. J. Hehre, H. F. Schaefer III,
 J. Kong, A. I. Krylov, P. M. W. Gill, M. Head-Gordon,
 Q-Chem, Version 3.1, Q-Chem, Inc., Pittsburgh, PA (2007).

 Additional authors for Version 3.1: 
 Z. Gan, Y. Zhao, N. E. Schultz, D. Truhlar, E. Epifanovsky and M. Oana.

 Additional authors for Version 3.2: 
 R. Baer, B. R. Brooks, D. Casanova, J.-D. Chai, C.-L. Cheng, 
 C. Cramer, D. Crittenden, A. Ghysels, G. Hawkins, E. G. Hohenstein, 
 C. Kelley, W. Kurlancheek, D. Liotard, E. Livshits, P. Manohar, 
 A. Marenich, D. Neuhauser, R. Olson, M. A. Rohrdanz, K. S. Thanthiriwatte, 
 A. J. W. Thom, V. Vanovschi, C. F. Williams, Q. Wu and Z.-Q. You. 


 Intel X86 Linux Version

 Q-chem begins on Tue Jun  4 18:31:36 2013  

 Parallel job on  1  processors
Processing $rem in /usr/local/qchem/config/preferences.

theFileMan(): MAXOPENFILES=974 MAX_SUB_FILE_NUM=16
Maximum size of a physical file is 2.0 GB, maximum size of a tmp-file is 32.0 GB


--------------------------------------------------------------
User input:
--------------------------------------------------------------

$molecule 
READ 
$end 

$xc_functional
C PBE   1.00
X wPBE  1.00
$end


$rem
SYMMETRY_DECOMPOSITION	0
LRC_DFT                 true
exchange 		general
BASIS                   g3large
omega			370 
JOBTYPE                 freq
IDERIV 1
SCF_GUESS READ
mem_static              760
max_scf_cycles          200
scf_final_print         1
sym_ignore              true
$end

--------------------------------------------------------------
 Writing REM_CC_EA            5
 ----------------------------------------------------
       Standard Nuclear Orientation (Angstroms)
    I     Atom         X            Y            Z
 ----------------------------------------------------
    1      Si     -0.000091     0.000000     0.001103
    2      Cl      0.000190     0.000000     2.012843
    3      Cl      1.896206     0.000000    -0.671157
    4      Cl     -0.948153     1.641986    -0.671394
    5      Cl     -0.948153    -1.641986    -0.671394
 ----------------------------------------------------
 Nuclear Repulsion Energy =   529.7176130635 hartrees
 There are       41 alpha and       41 beta electrons
 Requested basis set is G3large
 There are 95 shells and 330 basis functions

Total QAlloc Memory Limit   2000 MB
Mega-Array Size       759 MB
MEM_STATIC part       760 MB

                       Distance Matrix (Angstroms)
             Si(  1)   Cl(  2)   Cl(  3)   Cl(  4)
   Cl(  2)  2.011740
   Cl(  3)  2.011934  3.286143
   Cl(  4)  2.011763  3.286426  3.284280
   Cl(  5)  2.011763  3.286426  3.284280  3.283971
 
 A cutoff of  1.0D-11 yielded   3666 shell pairs
 There are  46205 function pairs ( 66090 Cartesian)
Evaluating contribution to one-electron hamiltonian from nuclear
 Smallest overlap matrix eigenvalue = 2.86E-04
 Multipole matrices computed through 2nd order
 Guess MOs from SCF MO coefficient file
Reading MOs from coefficient file
Reading MOs from coefficient file
 Long-range K will be added via erf
 Coulomb attenuation parameter = 0.37 bohr**(-1)
 A restricted Kohn-Sham SCF calculation will be
 performed using Pulay DIIS extrapolation
 Exchange:  wPBE + LR-HF      Correlation:  PBE
 Using SG-1 standard quadrature grid
 SCF converges when DIIS error is below 1.0E-08
 ---------------------------------------
  Cycle       Energy         DIIS Error
 ---------------------------------------
    1   -2129.8617177002      1.16E-09
    2   -2129.8617177008      4.94E-10 Convergence criterion met
 ---------------------------------------
 One-Electron    Energy = -3999.3199706332
 Total Coulomb   Energy =  1473.1295294735
 Alpha Exchange  Energy =    -7.9818577597
 Beta  Exchange  Energy =    -7.9818577597
 DFT   Exchange  Energy =  -114.2131533925
 DFT Correlation Energy =    -3.2120206927
 Nuclear Repu.   Energy =   529.7176130635
 Nuclear Attr.   Energy = -6126.3207868021
 Kinetic         Energy =  2127.0008161689
 SCF time:  CPU 185.85 s  wall 187.20 s
 Final Alpha MO Eigenvalues
            1           2           3           4           5           6
    1-100.8863446-100.8861269-100.8861263-100.8861126 -65.7462249  -9.4101257
            7           8           9          10          11          12
    1  -9.4099136  -9.4099060  -9.4099043  -7.2267067  -7.2266568  -7.2266562
           13          14          15          16          17          18
    1  -7.2265904  -7.2205313  -7.2205289  -7.2202955  -7.2202760  -7.2202727
           19          20          21          22          23          24
    1  -7.2202240  -7.2201820  -7.2201818  -5.3929000  -3.7970211  -3.7969926
           25          26          27          28          29          30
    1  -3.7969862  -1.0377247  -0.9815982  -0.9813982  -0.9813872  -0.6782672
           31          32          33          34          35          36
    1  -0.5706091  -0.5704925  -0.5704920  -0.4980229  -0.4980096  -0.4811208
           37          38          39          40          41          42
    1  -0.4810253  -0.4810023  -0.4494820  -0.4494797  -0.4493528   0.0396410
           43          44          45          46
    1   0.0693140   0.0723353   0.0723485   0.0723490
 Analysis of SCF Wavefunction
 
 --------------------------------------------------------------
                    Orbital Energies (a.u.)
 --------------------------------------------------------------
 
 Alpha MOs
 -- Occupied --
*******-100.886-100.886-100.886 -65.746  -9.410  -9.410  -9.410
 -9.410  -7.227  -7.227  -7.227  -7.227  -7.221  -7.221  -7.220
 -7.220  -7.220  -7.220  -7.220  -7.220  -5.393  -3.797  -3.797
 -3.797  -1.038  -0.982  -0.981  -0.981  -0.678  -0.571  -0.570
 -0.570  -0.498  -0.498  -0.481  -0.481  -0.481  -0.449  -0.449
 -0.449
 -- Virtual --
  0.040   0.069   0.072   0.072   0.072   0.095   0.095   0.095
  0.133   0.133   0.133   0.135   0.135   0.169   0.172   0.172
  0.172   0.187   0.187   0.187   0.195   0.211   0.211   0.211
  0.228   0.228   0.290   0.290   0.290   0.361   0.361   0.361
  0.381   0.381   0.381   0.398   0.398   0.424   0.424   0.424
  0.457   0.457   0.458   0.482   0.536   0.536   0.536   0.560
  0.560   0.568   0.587   0.587   0.587   0.666   0.680   0.680
  0.680   0.680   0.680   0.680   0.726   0.726   0.726   0.775
  0.775   0.865   0.881   0.882   0.882   0.903   0.903   0.941
  0.941   0.941   0.994   0.994   0.995   1.149   1.149   1.149
  1.162   1.162   1.163   1.177   1.177   1.189   1.189   1.189
  1.204   1.204   1.204   1.216   1.263   1.266   1.266   1.266
  1.295   1.295   1.296   1.319   1.319   1.319   1.320   1.320
  1.415   1.415   1.415   1.440   1.441   1.441   1.603   1.603
  1.604   1.617   1.618   1.618   1.619   1.679   1.679   1.680
  1.703   1.704   1.704   1.764   1.764   1.765   1.816   1.817
  1.925   2.048   2.048   2.048   2.292   2.297   2.297   2.319
  2.319   2.320   2.334   2.335   2.335   2.443   2.443   2.444
  2.551   2.552   2.552   2.643   2.644   2.644   2.745   3.801
  3.802   3.953   3.955   3.957   4.439   4.443   4.444   4.444
  4.444   4.444   4.444   4.468   4.468   4.482   4.548   4.548
  4.549   4.557   4.557   4.557   4.569   4.570   4.622   4.650
  4.650   4.650   4.653   4.653   4.653   4.668   4.668   4.668
  5.109   5.110   5.112   5.113   5.113   5.125   5.126   5.127
  5.209   5.210   5.210   5.289   5.289   5.290   5.316   5.330
  5.330   5.511   5.513   5.514   6.442   9.869   9.869   9.869
 10.018  11.639  11.639  11.639  17.540  17.614  17.622  17.697
 17.754  20.565  20.565  20.597  20.598  20.598  20.671  20.671
 20.671  20.855  20.855  20.855  20.894  22.071  22.073  22.079
 22.081  22.081  22.083  22.093  27.069  27.072  27.078  27.092
 27.116  27.133  27.147  27.147  27.155  27.163  27.176  27.188
 27.192  27.194  27.199  27.221  27.240  27.242  27.272  27.272
 36.781  36.781  36.782  36.782  36.782  36.782  36.783  36.785
 36.785  36.787  36.793  36.794  36.795  36.795  36.796  36.797
 36.798  36.799  36.805  36.805  36.807  36.808  36.808  36.808
 36.809  36.809  36.810  36.810 141.390 215.775 215.775 215.775
215.954
 --------------------------------------------------------------
 
          Ground-State Mulliken Net Atomic Charges

     Atom                 Charge (a.u.)
  ----------------------------------------
      1 Si                    1.640802
      2 Cl                   -0.409917
      3 Cl                   -0.410314
      4 Cl                   -0.410286
      5 Cl                   -0.410286
  ----------------------------------------
  Sum of atomic charges =     0.000000

 -----------------------------------------------------------------
                    Cartesian Multipole Moments
 -----------------------------------------------------------------
    Charge (ESU x 10^10)
                 0.0000
    Dipole Moment (Debye)
         X      -0.0003      Y       0.0000      Z       0.0078
       Tot       0.0078
    Quadrupole Moments (Debye-Ang)
        XX     -61.9705     XY       0.0000     YY     -61.9660
        XZ       0.0017     YZ       0.0000     ZZ     -61.9507
    Octapole Moments (Debye-Ang^2)
       XXX       2.2342    XXY       0.0000    XYY      -2.2405
       YYY       0.0000    XXZ      -1.5886    XYZ       0.0000
       YYZ      -1.5951    XZZ      -0.0019    YZZ       0.0000
       ZZZ       3.2061
    Hexadecapole Moments (Debye-Ang^3)
      XXXX    -458.4558   XXXY       0.0000   XXYY    -152.8003
      XYYY       0.0000   YYYY    -458.3244   XXXZ      -4.7629
      XXYZ       0.0000   XYYZ       4.7292   YYYZ       0.0000
      XXZZ    -156.2318   XYZZ       0.0000   YYZZ    -156.2077
      XZZZ      -0.0216   YZZZ       0.0000   ZZZZ    -455.6375
 -----------------------------------------------------------------
 Calculating analytic gradient of the SCF energy
 Gradient of AOints
            1           2           3           4           5
    1  -0.0150683   0.0030254 -34.6049008  17.3084719  17.3084718
    2  -0.0000000   0.0000000  -0.0000000 -29.9613399  29.9613399
    3  -0.0401912 -36.7088594  12.2453678  12.2518414  12.2518414
 Gradient of XC Energy
            1           2           3           4           5
    1   0.0002193  -0.0000815   0.1326533  -0.0663956  -0.0663956
    2  -0.0000000  -0.0000000   0.0000000   0.1148867  -0.1148867
    3  -0.0000951   0.1408192  -0.0468405  -0.0469418  -0.0469418
 Gradient of SCF Energy
            1           2           3           4           5
    1   0.0000214  -0.0000285   0.0000787  -0.0000358  -0.0000358
    2   0.0000000   0.0000000  -0.0000000   0.0000805  -0.0000805
    3  -0.0000305   0.0001047  -0.0000092  -0.0000325  -0.0000325
 Max gradient component =       1.047E-04
 RMS gradient           =       4.971E-05
 Gradient time:  CPU 439.23 s  wall 441.37 s
 ######################################################
 ######################################################
 # Starting finite difference calculation for IDERIV  #
 Finite diff step size: 1.89e-03 a.u.
 Writing REM_CC_EA            5
 ----------------------------------------------------
       Standard Nuclear Orientation (Angstroms)
    I     Atom         X            Y            Z
 ----------------------------------------------------
    1      Si      0.000909     0.000000     0.001103
    2      Cl      0.000190     0.000000     2.012843
    3      Cl      1.896206     0.000000    -0.671157
    4      Cl     -0.948153     1.641986    -0.671394
    5      Cl     -0.948153    -1.641986    -0.671394
 ----------------------------------------------------
 Nuclear Repulsion Energy =   529.7176126157 hartrees
 There are       41 alpha and       41 beta electrons

                       Distance Matrix (Angstroms)
             Si(  1)   Cl(  2)   Cl(  3)   Cl(  4)
   Cl(  2)  2.011740
   Cl(  3)  2.010991  3.286143
   Cl(  4)  2.012234  3.286426  3.284280
   Cl(  5)  2.012234  3.286426  3.284280  3.283971
 
 Requested basis set is G3large
 There are 95 shells and 330 basis functions
 A cutoff of  1.0D-11 yielded   3666 shell pairs
 There are  46205 function pairs ( 66090 Cartesian)
Evaluating contribution to one-electron hamiltonian from nuclear
 Smallest overlap matrix eigenvalue = 2.86E-04
 Multipole matrices computed through 2nd order
 Guess MOs from SCF MO coefficient file
Reading MOs from coefficient file
Reading MOs from coefficient file
 Long-range K will be added via erf
 Coulomb attenuation parameter = 0.37 bohr**(-1)
 A restricted Kohn-Sham SCF calculation will be
 performed using Pulay DIIS extrapolation
 Exchange:  wPBE + LR-HF      Correlation:  PBE
 Using SG-1 standard quadrature grid
 SCF converges when DIIS error is below 1.0E-08
 ---------------------------------------
  Cycle       Energy         DIIS Error
 ---------------------------------------
    1   -2129.8617157354      1.96E-05
    2   -2129.8617170640      1.63E-06
    3   -2129.8617171174      1.04E-06
    4   -2129.8617171218      1.77E-07
    5   -2129.8617171233      5.54E-08
    6   -2129.8617171260      1.69E-08
    7   -2129.8617171267      3.93E-09 Convergence criterion met
 ---------------------------------------
 One-Electron    Energy = -3999.3199643669
 Total Coulomb   Energy =  1473.1295242070
 Alpha Exchange  Energy =    -7.9818577594
 Beta  Exchange  Energy =    -7.9818577594
 DFT   Exchange  Energy =  -114.2131533936
 DFT Correlation Energy =    -3.2120206701
 Nuclear Repu.   Energy =   529.7176126157
 Nuclear Attr.   Energy = -6126.3207838927
 Kinetic         Energy =  2127.0008195258
 SCF time:  CPU 459.78 s  wall 463.06 s
 Final Alpha MO Eigenvalues
            1           2           3           4           5           6
    1-100.8863445-100.8862751-100.8860456-100.8860450 -65.7462252  -9.4101258
            7           8           9          10          11          12
    1  -9.4100868  -9.4098211  -9.4098158  -7.2267634  -7.2267066  -7.2265706
           13          14          15          16          17          18
    1  -7.2265700  -7.2205314  -7.2205287  -7.2204721  -7.2204006  -7.2201877
           19          20          21          22          23          24
    1  -7.2201844  -7.2200936  -7.2200934  -5.3929004  -3.7970193  -3.7969944
           25          26          27          28          29          30
    1  -3.7969873  -1.0377252  -0.9816487  -0.9814677  -0.9812668  -0.6782673
           31          32          33          34          35          36
    1  -0.5706236  -0.5705363  -0.5704340  -0.4980230  -0.4980100  -0.4811272
           37          38          39          40          41          42
    1  -0.4810461  -0.4809750  -0.4495299  -0.4494494  -0.4493344   0.0396409
           43          44          45          46
    1   0.0693139   0.0723329   0.0723460   0.0723539
 Analysis of SCF Wavefunction
 
 --------------------------------------------------------------
                    Orbital Energies (a.u.)
 --------------------------------------------------------------
 
 Alpha MOs
 -- Occupied --
*******-100.886-100.886-100.886 -65.746  -9.410  -9.410  -9.410
 -9.410  -7.227  -7.227  -7.227  -7.227  -7.221  -7.221  -7.220
 -7.220  -7.220  -7.220  -7.220  -7.220  -5.393  -3.797  -3.797
 -3.797  -1.038  -0.982  -0.981  -0.981  -0.678  -0.571  -0.571
 -0.570  -0.498  -0.498  -0.481  -0.481  -0.481  -0.450  -0.449
 -0.449
 -- Virtual --
  0.040   0.069   0.072   0.072   0.072   0.095   0.095   0.095
  0.133   0.133   0.133   0.135   0.135   0.169   0.172   0.172
  0.172   0.187   0.187   0.187   0.195   0.211   0.211   0.211
  0.228   0.228   0.290   0.290   0.290   0.361   0.361   0.361
  0.381   0.381   0.381   0.398   0.398   0.424   0.424   0.424
  0.457   0.457   0.458   0.482   0.536   0.536   0.536   0.560
  0.560   0.568   0.587   0.587   0.587   0.666   0.680   0.680
  0.680   0.680   0.680   0.680   0.726   0.726   0.726   0.775
  0.775   0.865   0.881   0.882   0.882   0.903   0.903   0.941
  0.941   0.941   0.994   0.994   0.994   1.149   1.149   1.149
  1.162   1.162   1.163   1.177   1.177   1.189   1.189   1.189
  1.204   1.204   1.204   1.216   1.263   1.266   1.266   1.266
  1.295   1.295   1.296   1.319   1.319   1.319   1.320   1.320
  1.415   1.415   1.415   1.440   1.441   1.441   1.603   1.603
  1.604   1.617   1.617   1.618   1.619   1.679   1.679   1.680
  1.703   1.704   1.704   1.764   1.765   1.766   1.816   1.817
  1.925   2.048   2.048   2.048   2.292   2.297   2.297   2.319
  2.319   2.320   2.334   2.335   2.335   2.443   2.443   2.443
  2.551   2.552   2.552   2.643   2.643   2.644   2.745   3.801
  3.802   3.953   3.955   3.957   4.439   4.443   4.444   4.444
  4.444   4.444   4.444   4.468   4.468   4.482   4.548   4.548
  4.549   4.557   4.557   4.557   4.569   4.570   4.622   4.650
  4.650   4.650   4.653   4.653   4.653   4.668   4.668   4.668
  5.109   5.110   5.112   5.113   5.113   5.125   5.126   5.127
  5.209   5.210   5.210   5.289   5.289   5.290   5.316   5.330
  5.330   5.511   5.513   5.513   6.442   9.869   9.869   9.869
 10.018  11.638  11.639  11.639  17.540  17.614  17.622  17.697
 17.754  20.565  20.565  20.597  20.597  20.598  20.671  20.671
 20.671  20.855  20.855  20.855  20.894  22.071  22.073  22.079
 22.081  22.081  22.083  22.093  27.069  27.072  27.078  27.092
 27.116  27.133  27.147  27.147  27.155  27.163  27.176  27.189
 27.192  27.194  27.199  27.221  27.240  27.243  27.272  27.272
 36.781  36.781  36.782  36.782  36.782  36.782  36.783  36.785
 36.785  36.787  36.793  36.794  36.795  36.795  36.796  36.797
 36.798  36.799  36.805  36.805  36.807  36.808  36.808  36.809
 36.809  36.809  36.810  36.810 141.390 215.775 215.775 215.775
215.954
 --------------------------------------------------------------
 
          Ground-State Mulliken Net Atomic Charges

     Atom                 Charge (a.u.)
  ----------------------------------------
      1 Si                    1.640802
      2 Cl                   -0.409917
      3 Cl                   -0.410175
      4 Cl                   -0.410355
      5 Cl                   -0.410355
  ----------------------------------------
  Sum of atomic charges =     0.000000

 -----------------------------------------------------------------
                    Cartesian Multipole Moments
 -----------------------------------------------------------------
    Charge (ESU x 10^10)
                 0.0000
    Dipole Moment (Debye)
         X       0.0094      Y       0.0000      Z       0.0078
       Tot       0.0122
    Quadrupole Moments (Debye-Ang)
        XX     -61.9604     XY       0.0000     YY     -61.9761
        XZ      -0.0054     YZ       0.0000     ZZ     -61.9507
    Octapole Moments (Debye-Ang^2)
       XXX       2.2384    XXY       0.0000    XYY      -2.2391
       YYY       0.0000    XXZ      -1.5969    XYZ       0.0000
       YYZ      -1.5869    XZZ      -0.0063    YZZ       0.0000
       ZZZ       3.2061
    Hexadecapole Moments (Debye-Ang^3)
      XXXX    -458.3758   XXXY       0.0000   XXYY    -152.7945
      XYYY       0.0000   YYYY    -458.4159   XXXZ      -4.7892
      XXYZ       0.0000   XYYZ       4.7204   YYYZ       0.0000
      XXZZ    -156.2165   XYZZ       0.0000   YYZZ    -156.2230
      XZZZ      -0.0581   YZZZ       0.0000   ZZZZ    -455.6376
 -----------------------------------------------------------------
 Calculating analytic gradient of the SCF energy
 Gradient of AOints
            1           2           3           4           5
    1  -0.0183125   0.0107003 -34.6154944  17.3115534  17.3115532
    2  -0.0000000   0.0000000  -0.0000000 -29.9534168  29.9534168
    3  -0.0402036 -36.7088669  12.2519162  12.2485771  12.2485771
 Gradient of XC Energy
            1           2           3           4           5
    1   0.0001716  -0.0001304   0.1327659  -0.0664035  -0.0664035
    2   0.0000000  -0.0000000  -0.0000000   0.1148141  -0.1148141
    3  -0.0000949   0.1408191  -0.0468993  -0.0469125  -0.0469125
 Gradient of SCF Energy
            1           2           3           4           5
    1   0.0005874  -0.0000628  -0.0002418  -0.0001414  -0.0001414
    2   0.0000000   0.0000000  -0.0000000   0.0002017  -0.0002017
    3  -0.0000311   0.0001046   0.0000919  -0.0000827  -0.0000827
 Max gradient component =       5.874E-04
 RMS gradient           =       1.937E-04
 Gradient time:  CPU 440.10 s  wall 442.09 s
 Writing REM_CC_EA            5
 ----------------------------------------------------
       Standard Nuclear Orientation (Angstroms)
    I     Atom         X            Y            Z
 ----------------------------------------------------
    1      Si     -0.001091     0.000000     0.001103
    2      Cl      0.000190     0.000000     2.012843
    3      Cl      1.896206     0.000000    -0.671157
    4      Cl     -0.948153     1.641986    -0.671394
    5      Cl     -0.948153    -1.641986    -0.671394
 ----------------------------------------------------
 Nuclear Repulsion Energy =   529.7176134666 hartrees
 There are       41 alpha and       41 beta electrons

                       Distance Matrix (Angstroms)
             Si(  1)   Cl(  2)   Cl(  3)   Cl(  4)
   Cl(  2)  2.011740
   Cl(  3)  2.012876  3.286143
   Cl(  4)  2.011292  3.286426  3.284280
   Cl(  5)  2.011292  3.286426  3.284280  3.283971
 
 Requested basis set is G3large
 There are 95 shells and 330 basis functions
 A cutoff of  1.0D-11 yielded   3666 shell pairs
 There are  46205 function pairs ( 66090 Cartesian)
Evaluating contribution to one-electron hamiltonian from nuclear
 Smallest overlap matrix eigenvalue = 2.86E-04
 Multipole matrices computed through 2nd order
 Guess MOs from SCF MO coefficient file
Reading MOs from coefficient file
Reading MOs from coefficient file
 Long-range K will be added via erf
 Coulomb attenuation parameter = 0.37 bohr**(-1)
 A restricted Kohn-Sham SCF calculation will be
 performed using Pulay DIIS extrapolation
 Exchange:  wPBE + LR-HF      Correlation:  PBE
 Using SG-1 standard quadrature grid
 SCF converges when DIIS error is below 1.0E-08
 ---------------------------------------
  Cycle       Energy         DIIS Error
 ---------------------------------------
    1   -2129.8617171275      3.91E-05
    2   -2129.8617170065      3.26E-06
    3   -2129.8617171783      2.07E-06
    4   -2129.8617172232      3.54E-07
    5   -2129.8617172198      1.11E-07
    6   -2129.8617172289      3.36E-08
    7   -2129.8617172278      7.74E-09 Convergence criterion met
 ---------------------------------------
 One-Electron    Energy = -3999.3199728694
 Total Coulomb   Energy =  1473.1295323122
 Alpha Exchange  Energy =    -7.9818577541
 Beta  Exchange  Energy =    -7.9818577541
 DFT   Exchange  Energy =  -114.2131539153
 DFT Correlation Energy =    -3.2120207136
 Nuclear Repu.   Energy =   529.7176134666
 Nuclear Attr.   Energy = -6126.3207923270
 Kinetic         Energy =  2127.0008194576
 SCF time:  CPU 477.29 s  wall 480.38 s
 Final Alpha MO Eigenvalues
            1           2           3           4           5           6
    1-100.8863447-100.8862081-100.8862075-100.8859500 -65.7462247  -9.4101258
            7           8           9          10          11          12
    1  -9.4099980  -9.4099926  -9.4097330  -7.2267429  -7.2267423  -7.2267068
           13          14          15          16          17          18
    1  -7.2264175  -7.2205313  -7.2205291  -7.2203642  -7.2203610  -7.2202705
           19          20          21          22          23          24
    1  -7.2202703  -7.2201189  -7.2200474  -5.3928998  -3.7970231  -3.7969911
           25          26          27          28          29          30
    1  -3.7969852  -1.0377253  -0.9816271  -0.9815297  -0.9812262  -0.6782674
           31          32          33          34          35          36
    1  -0.5706218  -0.5705503  -0.5704219  -0.4980235  -0.4980099  -0.4811233
           37          38          39          40          41          42
    1  -0.4810297  -0.4809950  -0.4495311  -0.4494332  -0.4493490   0.0396409
           43          44          45          46
    1   0.0693136   0.0723351   0.0723431   0.0723547
 Analysis of SCF Wavefunction
 
 --------------------------------------------------------------
                    Orbital Energies (a.u.)
 --------------------------------------------------------------
 
 Alpha MOs
 -- Occupied --
*******-100.886-100.886-100.886 -65.746  -9.410  -9.410  -9.410
 -9.410  -7.227  -7.227  -7.227  -7.226  -7.221  -7.221  -7.220
 -7.220  -7.220  -7.220  -7.220  -7.220  -5.393  -3.797  -3.797
 -3.797  -1.038  -0.982  -0.982  -0.981  -0.678  -0.571  -0.571
 -0.570  -0.498  -0.498  -0.481  -0.481  -0.481  -0.450  -0.449
 -0.449
 -- Virtual --
  0.040   0.069   0.072   0.072   0.072   0.095   0.095   0.095
  0.133   0.133   0.133   0.135   0.135   0.169   0.172   0.172
  0.172   0.187   0.187   0.187   0.195   0.211   0.211   0.211
  0.228   0.228   0.290   0.290   0.290   0.361   0.361   0.361
  0.381   0.381   0.381   0.398   0.398   0.424   0.424   0.424
  0.457   0.457   0.458   0.482   0.536   0.536   0.536   0.560
  0.560   0.568   0.587   0.587   0.587   0.666   0.680   0.680
  0.680   0.680   0.680   0.680   0.726   0.726   0.726   0.775
  0.775   0.865   0.881   0.882   0.882   0.903   0.903   0.941
  0.941   0.941   0.994   0.994   0.995   1.149   1.149   1.149
  1.162   1.162   1.163   1.177   1.177   1.189   1.189   1.190
  1.204   1.204   1.204   1.216   1.263   1.266   1.266   1.266
  1.295   1.296   1.296   1.319   1.319   1.319   1.320   1.320
  1.415   1.415   1.415   1.440   1.441   1.441   1.603   1.603
  1.604   1.617   1.618   1.618   1.619   1.679   1.679   1.680
  1.703   1.704   1.704   1.764   1.764   1.766   1.816   1.817
  1.925   2.048   2.048   2.048   2.292   2.297   2.297   2.319
  2.319   2.320   2.334   2.335   2.335   2.443   2.443   2.444
  2.551   2.552   2.552   2.643   2.644   2.644   2.745   3.801
  3.802   3.953   3.955   3.956   4.439   4.443   4.444   4.444
  4.444   4.444   4.444   4.468   4.468   4.482   4.548   4.548
  4.549   4.557   4.557   4.557   4.569   4.570   4.622   4.650
  4.650   4.650   4.653   4.653   4.653   4.668   4.668   4.668
  5.109   5.110   5.112   5.113   5.113   5.125   5.126   5.127
[...]
           43          44          45          46
    1   0.0692849   0.0723314   0.0723466   0.0723473
 Analysis of SCF Wavefunction
 
 --------------------------------------------------------------
                    Orbital Energies (a.u.)
 --------------------------------------------------------------
 
 Alpha MOs
 -- Occupied --
*******-100.886-100.886-100.886 -65.746  -9.410  -9.410  -9.410
 -9.410  -7.227  -7.227  -7.227  -7.227  -7.221  -7.221  -7.220
 -7.220  -7.220  -7.220  -7.220  -7.220  -5.393  -3.797  -3.797
 -3.797  -1.038  -0.982  -0.981  -0.981  -0.678  -0.571  -0.570
 -0.570  -0.498  -0.498  -0.481  -0.481  -0.481  -0.449  -0.449
 -0.449
 -- Virtual --
  0.040   0.069   0.072   0.072   0.072   0.095   0.095   0.095
  0.133   0.133   0.133   0.135   0.135   0.169   0.172   0.172
  0.172   0.187   0.187   0.187   0.195   0.211   0.211   0.211
  0.228   0.228   0.290   0.290   0.290   0.361   0.361   0.361
  0.381   0.381   0.381   0.398   0.398   0.424   0.424   0.424
  0.457   0.457   0.458   0.482   0.536   0.536   0.536   0.560
  0.560   0.568   0.587   0.587   0.587   0.666   0.680   0.680
  0.680   0.680   0.680   0.680   0.726   0.726   0.726   0.775
  0.775   0.865   0.881   0.882   0.882   0.903   0.903   0.941
  0.941   0.941   0.994   0.994   0.994   1.149   1.149   1.149
  1.162   1.162   1.163   1.177   1.177   1.189   1.189   1.190
  1.204   1.204   1.204   1.216   1.263   1.265   1.266   1.266
  1.295   1.295   1.296   1.319   1.319   1.319   1.320   1.320
  1.414   1.415   1.415   1.440   1.441   1.441   1.602   1.603
  1.604   1.617   1.618   1.618   1.619   1.679   1.679   1.680
  1.703   1.704   1.704   1.764   1.764   1.766   1.816   1.817
  1.925   2.048   2.048   2.048   2.292   2.297   2.297   2.319
  2.319   2.320   2.334   2.335   2.335   2.443   2.443   2.444
  2.551   2.552   2.552   2.643   2.643   2.644   2.745   3.801
  3.802   3.953   3.955   3.957   4.439   4.443   4.444   4.444
  4.444   4.444   4.444   4.468   4.468   4.482   4.548   4.548
  4.549   4.557   4.557   4.557   4.569   4.570   4.622   4.650
  4.650   4.650   4.653   4.653   4.653   4.668   4.668   4.668
  5.109   5.110   5.112   5.113   5.113   5.125   5.126   5.127
  5.209   5.210   5.210   5.289   5.289   5.290   5.316   5.330
  5.330   5.511   5.513   5.513   6.442   9.869   9.869   9.869
 10.018  11.638  11.639  11.639  17.540  17.614  17.622  17.697
 17.754  20.565  20.565  20.597  20.598  20.598  20.671  20.671
 20.671  20.855  20.855  20.855  20.894  22.071  22.073  22.079
 22.081  22.081  22.083  22.093  27.069  27.072  27.078  27.092
 27.116  27.133  27.147  27.147  27.155  27.163  27.176  27.188
 27.192  27.194  27.199  27.221  27.240  27.242  27.272  27.272
 36.781  36.781  36.782  36.782  36.782  36.782  36.783  36.785
 36.785  36.787  36.792  36.794  36.795  36.795  36.796  36.797
 36.798  36.799  36.805  36.805  36.807  36.808  36.808  36.808
 36.809  36.809  36.810  36.810 141.390 215.775 215.775 215.775
215.954
 --------------------------------------------------------------
 
          Ground-State Mulliken Net Atomic Charges

     Atom                 Charge (a.u.)
  ----------------------------------------
      1 Si                    1.640678
      2 Cl                   -0.409875
      3 Cl                   -0.410271
      4 Cl                   -0.410243
      5 Cl                   -0.410290
  ----------------------------------------
  Sum of atomic charges =     0.000000

 -----------------------------------------------------------------
                    Cartesian Multipole Moments
 -----------------------------------------------------------------
    Charge (ESU x 10^10)
                 0.0000
    Dipole Moment (Debye)
         X       0.0003      Y       0.0010      Z       0.0094
       Tot       0.0094
    Quadrupole Moments (Debye-Ang)
        XX     -61.9716     XY      -0.0012     YY     -61.9685
        XZ       0.0014     YZ      -0.0006     ZZ     -61.9489
    Octapole Moments (Debye-Ang^2)
       XXX       2.2370    XXY       0.0025    XYY      -2.2375
       YYY       0.0075    XXZ      -1.5761    XYZ      -0.0002
       YYZ      -1.5828    XZZ      -0.0012    YZZ       0.0012
       ZZZ       3.2500
    Hexadecapole Moments (Debye-Ang^3)
      XXXX    -458.4624   XXXY      -0.0057   XXYY    -152.8058
      XYYY      -0.0077   YYYY    -458.3463   XXXZ      -4.7994
      XXYZ      -0.0196   XYYZ       4.7205   YYYZ      -0.0587
      XXZZ    -156.2453   XYZZ       0.0018   YYZZ    -156.2191
      XZZZ      -0.0550   YZZZ      -0.0578   ZZZZ    -455.7180
 -----------------------------------------------------------------
 Calculating analytic gradient of the SCF energy
 Gradient of AOints
            1           2           3           4           5
    1  -0.0112432   0.0046823 -34.6046704  17.3072735  17.3039578
    2   0.0066440   0.0028710  -0.0012463 -29.9617622  29.9534936
    3  -0.0463913 -36.7076081  12.2433934  12.2498766  12.2607294
 Gradient of XC Energy
            1           2           3           4           5
    1   0.0001881  -0.0000839   0.1326500  -0.0663830  -0.0663712
    2  -0.0000554  -0.0000042   0.0000126   0.1148902  -0.1148432
    3  -0.0000647   0.1408325  -0.0468419  -0.0469432  -0.0469828
 Gradient of SCF Energy
            1           2           3           4           5
    1   0.0000716  -0.0000164   0.0000763  -0.0000355  -0.0000960
    2   0.0000859   0.0000209  -0.0000010   0.0000781  -0.0001840
    3   0.0000384   0.0001260  -0.0000165  -0.0000398  -0.0001082
 Max gradient component =       1.840E-04
 RMS gradient           =       8.180E-05
 Gradient time:  CPU 540.58 s  wall 540.99 s
Dipole drv :
gprntSymmMtrx error report: 
 Final Hessian.
            1           2           3           4           5           6
    1   0.2990822   0.0000003  -0.0000543  -0.0181492  -0.0000019  -0.0000980
    2   0.0000003   0.2971031   0.0000002   0.0000000  -0.0183909  -0.0000021
    3  -0.0000543   0.0000002   0.2964314  -0.0001992  -0.0000010  -0.1854855
    4  -0.0181492   0.0000000  -0.0001992   0.0180896   0.0000012   0.0000531
    5  -0.0000019  -0.0183909  -0.0000010   0.0000012   0.0180659   0.0000035
    6  -0.0000980  -0.0000021  -0.1854855   0.0000531   0.0000035   0.2195198
    7  -0.1691860   0.0000000   0.0533155  -0.0039648   0.0000000   0.0083641
    8   0.0000013  -0.0193935  -0.0000023  -0.0000003   0.0040072   0.0000009
    9   0.0533134  -0.0000019  -0.0380429   0.0129537   0.0000018  -0.0113793
   10  -0.0558762   0.0641962  -0.0265350   0.0020124   0.0033716  -0.0041563
   11   0.0641819  -0.1296614   0.0454967   0.0033756  -0.0018404   0.0071388
   12  -0.0265816   0.0454744  -0.0364536  -0.0064035   0.0110859  -0.0113231
   13  -0.0558749  -0.0641985  -0.0265330   0.0020108  -0.0033704  -0.0041570
   14  -0.0641840  -0.1296589  -0.0454926  -0.0033752  -0.0018438  -0.0071385
   15  -0.0265780  -0.0454726  -0.0364523  -0.0064045  -0.0110889  -0.0113244
            7           8           9          10          11          12
    1  -0.1691860   0.0000013   0.0533134  -0.0558762   0.0641819  -0.0265816
    2   0.0000000  -0.0193935  -0.0000019   0.0641962  -0.1296614   0.0454744
    3   0.0533155  -0.0000023  -0.0380429  -0.0265350   0.0454967  -0.0364536
    4  -0.0039648  -0.0000003   0.0129537   0.0020124   0.0033756  -0.0064035
    5   0.0000000   0.0040072   0.0000018   0.0033716  -0.0018404   0.0110859
    6   0.0083641   0.0000009  -0.0113793  -0.0041563   0.0071388  -0.0113231
    7   0.1997117   0.0000011  -0.0642023  -0.0132761   0.0079325   0.0012616
    8   0.0000011   0.0191303   0.0000008   0.0115703  -0.0018711  -0.0005302
    9  -0.0642023   0.0000008   0.0416722  -0.0010312   0.0008311   0.0038744
   10  -0.0132761   0.0115703  -0.0010312   0.0633879  -0.0773141   0.0318882
   11   0.0079325  -0.0018711   0.0008311  -0.0773141   0.1520715  -0.0547473
   12   0.0012616  -0.0005302   0.0038744   0.0318882  -0.0547473   0.0400357
   13  -0.0132759  -0.0115723  -0.0010336   0.0037504   0.0018254  -0.0001643
   14  -0.0079338  -0.0018744  -0.0008320  -0.0018257  -0.0186948  -0.0012840
   15   0.0012629   0.0005306   0.0038732  -0.0001668   0.0012821   0.0038647
           13          14          15
    1  -0.0558749  -0.0641840  -0.0265780
    2  -0.0641985  -0.1296589  -0.0454726
    3  -0.0265330  -0.0454926  -0.0364523
    4   0.0020108  -0.0033752  -0.0064045
    5  -0.0033704  -0.0018438  -0.0110889
    6  -0.0041570  -0.0071385  -0.0113244
    7  -0.0132759  -0.0079338   0.0012629
    8  -0.0115723  -0.0018744   0.0005306
    9  -0.0010336  -0.0008320   0.0038732
   10   0.0037504  -0.0018257  -0.0001668
   11   0.0018254  -0.0186948   0.0012821
   12  -0.0001643  -0.0012840   0.0038647
   13   0.0633878   0.0773173   0.0318861
   14   0.0773173   0.1520734   0.0547464
   15   0.0318861   0.0547464   0.0400383
 Writing REM_CC_EA            5
 ----------------------------------------------------
       Standard Nuclear Orientation (Angstroms)
    I     Atom         X            Y            Z
 ----------------------------------------------------
    1      Si     -0.000091     0.000000     0.001103
    2      Cl      0.000190     0.000000     2.012843
    3      Cl      1.896206     0.000000    -0.671157
    4      Cl     -0.948153     1.641986    -0.671394
    5      Cl     -0.948153    -1.641986    -0.671394
 ----------------------------------------------------
 Nuclear Repulsion Energy =   529.7176130635 hartrees
 There are       41 alpha and       41 beta electrons
 old dipole drv.
            1           2           3           4           5           6
    1   2.0180955   0.0001273  -0.0006340  -0.2426951   0.0000377   0.0005038
    2   0.0000005   2.0158769   0.0001291  -0.0000006  -0.2422159  -0.0000278
    3  -0.0003077   0.0000038   2.0199595   0.0004082   0.0000026  -1.0280752
            7           8           9          10          11          12
    1  -0.9410843   0.0001472   0.2477527  -0.4167686   0.3018570  -0.1238852
    2  -0.0000010  -0.2431766   0.0000062   0.3018084  -0.7648705   0.2144242
    3   0.2471764  -0.0000619  -0.3307760  -0.1234815   0.2135148  -0.3300735
           13          14          15
    1  -0.4166664  -0.3018083  -0.1237339
    2  -0.3018623  -0.7647646  -0.2141994
    3  -0.1234777  -0.2134473  -0.3300031
 New transposed dipole drv.
            1           2           3
    1   2.0180955   0.0000005  -0.0003077
    2   0.0001273   2.0158769   0.0000038
    3  -0.0006340   0.0001291   2.0199595
    4  -0.2426951  -0.0000006   0.0004082
    5   0.0000377  -0.2422159   0.0000026
    6   0.0005038  -0.0000278  -1.0280752
    7  -0.9410843  -0.0000010   0.2471764
    8   0.0001472  -0.2431766  -0.0000619
    9   0.2477527   0.0000062  -0.3307760
   10  -0.4167686   0.3018084  -0.1234815
   11   0.3018570  -0.7648705   0.2135148
   12  -0.1238852   0.2144242  -0.3300735
   13  -0.4166664  -0.3018623  -0.1234777
   14  -0.3018083  -0.7647646  -0.2134473
   15  -0.1237339  -0.2141994  -0.3300031
FINAL TENSOR RESULT:
Order 2, Length 15
Order 1, Length 15
   0.2990822   0.0000003  -0.0000543  -0.0181492  -0.0000019  -0.0000980  -0.1691860   0.0000013   0.0533134  -0.0558762   0.0641819  -0.0265816  -0.0558749  -0.0641840  -0.0265780
Order 1, Length 15
   0.0000003   0.2971031   0.0000002   0.0000000  -0.0183909  -0.0000021   0.0000000  -0.0193935  -0.0000019   0.0641962  -0.1296614   0.0454744  -0.0641985  -0.1296589  -0.0454726
Order 1, Length 15
  -0.0000543   0.0000002   0.2964314  -0.0001992  -0.0000010  -0.1854855   0.0533155  -0.0000023  -0.0380429  -0.0265350   0.0454967  -0.0364536  -0.0265330  -0.0454926  -0.0364523
Order 1, Length 15
  -0.0181492   0.0000000  -0.0001992   0.0180896   0.0000012   0.0000531  -0.0039648  -0.0000003   0.0129537   0.0020124   0.0033756  -0.0064035   0.0020108  -0.0033752  -0.0064045
Order 1, Length 15
  -0.0000019  -0.0183909  -0.0000010   0.0000012   0.0180659   0.0000035   0.0000000   0.0040072   0.0000018   0.0033716  -0.0018404   0.0110859  -0.0033704  -0.0018438  -0.0110889
Order 1, Length 15
  -0.0000980  -0.0000021  -0.1854855   0.0000531   0.0000035   0.2195198   0.0083641   0.0000009  -0.0113793  -0.0041563   0.0071388  -0.0113231  -0.0041570  -0.0071385  -0.0113244
Order 1, Length 15
  -0.1691860   0.0000000   0.0533155  -0.0039648   0.0000000   0.0083641   0.1997117   0.0000011  -0.0642023  -0.0132761   0.0079325   0.0012616  -0.0132759  -0.0079338   0.0012629
Order 1, Length 15
   0.0000013  -0.0193935  -0.0000023  -0.0000003   0.0040072   0.0000009   0.0000011   0.0191303   0.0000008   0.0115703  -0.0018711  -0.0005302  -0.0115723  -0.0018744   0.0005306
Order 1, Length 15
   0.0533134  -0.0000019  -0.0380429   0.0129537   0.0000018  -0.0113793  -0.0642023   0.0000008   0.0416722  -0.0010312   0.0008311   0.0038744  -0.0010336  -0.0008320   0.0038732
Order 1, Length 15
  -0.0558762   0.0641962  -0.0265350   0.0020124   0.0033716  -0.0041563  -0.0132761   0.0115703  -0.0010312   0.0633879  -0.0773141   0.0318882   0.0037504  -0.0018257  -0.0001668
Order 1, Length 15
   0.0641819  -0.1296614   0.0454967   0.0033756  -0.0018404   0.0071388   0.0079325  -0.0018711   0.0008311  -0.0773141   0.1520715  -0.0547473   0.0018254  -0.0186948   0.0012821
Order 1, Length 15
  -0.0265816   0.0454744  -0.0364536  -0.0064035   0.0110859  -0.0113231   0.0012616  -0.0005302   0.0038744   0.0318882  -0.0547473   0.0400357  -0.0001643  -0.0012840   0.0038647
Order 1, Length 15
  -0.0558749  -0.0641985  -0.0265330   0.0020108  -0.0033704  -0.0041570  -0.0132759  -0.0115723  -0.0010336   0.0037504   0.0018254  -0.0001643   0.0633878   0.0773173   0.0318861
Order 1, Length 15
  -0.0641840  -0.1296589  -0.0454926  -0.0033752  -0.0018438  -0.0071385  -0.0079338  -0.0018744  -0.0008320  -0.0018257  -0.0186948  -0.0012840   0.0773173   0.1520734   0.0547464
Order 1, Length 15
  -0.0265780  -0.0454726  -0.0364523  -0.0064045  -0.0110889  -0.0113244   0.0012629   0.0005306   0.0038732  -0.0001668   0.0012821   0.0038647   0.0318861   0.0547464   0.0400383


 # Finishing finite difference calculation for IDERIV #
 ######################################################
 ######################################################
 Requested basis set is G3large
 There are 95 shells and 330 basis functions
 **********************************************************************
 **                                                                  **
 **                       VIBRATIONAL ANALYSIS                       **
 **                       --------------------                       **
 **                                                                  **
 **        VIBRATIONAL FREQUENCIES (CM**-1) AND NORMAL MODES         **
 **     FORCE CONSTANTS (mDYN/ANGSTROM) AND REDUCED MASSES (AMU)     **
 **                  INFRARED INTENSITIES (KM/MOL)                   **
 **                                                                  **
 **********************************************************************
 

 Mode:                 1                      2                      3
 Frequency:       146.47                 147.34                 221.13
 Force Cnst:      0.4420                 0.4473                 0.9658
 Red. Mass:      34.9683                34.9684                33.5237
 IR Active:          YES                    YES                    YES
 IR Intens:        0.002                  0.003                  6.045
 Raman Active:       YES                    YES                    YES
               X      Y      Z        X      Y      Z        X      Y      Z
 Si         0.000 -0.009  0.000   -0.004  0.000  0.007    0.235  0.000 -0.389
 Cl         0.000  0.507  0.000    0.502  0.000  0.007   -0.200  0.000 -0.450
 Cl         0.000 -0.493  0.000    0.161  0.000  0.469    0.469  0.000  0.110
 Cl        -0.283 -0.003  0.413   -0.330 -0.290 -0.241   -0.229  0.026  0.326
 Cl         0.283 -0.003 -0.413   -0.330  0.290 -0.241   -0.229 -0.026  0.326
 TransDip   0.000 -0.001  0.000   -0.001  0.000  0.002    0.041  0.000 -0.067

 Mode:                 4                      5                      6
 Frequency:       223.02                 223.33                 438.94
 Force Cnst:      0.9829                 0.9857                 3.9695
 Red. Mass:      33.5398                33.5432                34.9685
 IR Active:          YES                    YES                    YES
 IR Intens:        5.846                  5.792                  0.009
 Raman Active:       YES                    YES                    YES
               X      Y      Z        X      Y      Z        X      Y      Z
 Si        -0.387  0.012 -0.233   -0.010 -0.451 -0.006    0.007  0.000 -0.002
 Cl         0.342 -0.010 -0.272    0.009  0.391 -0.007   -0.001  0.000  0.501
 Cl        -0.210 -0.011  0.403   -0.006  0.407  0.010    0.470  0.000 -0.166
 Cl         0.079  0.442  0.022    0.364 -0.207  0.246   -0.237  0.408 -0.167
 Cl         0.098 -0.430  0.034   -0.359 -0.230 -0.245   -0.237 -0.408 -0.167
 TransDip  -0.066  0.002 -0.040   -0.002 -0.077 -0.001    0.003  0.000 -0.001

 Mode:                 7                      8                      9
 Frequency:       640.52                 640.57                 643.51
 Force Cnst:      7.2526                 7.2522                 7.3214
 Red. Mass:      30.0041                29.9970                30.0080
 IR Active:          YES                    YES                    YES
 IR Intens:      179.910                179.397                179.719
 Raman Active:       YES                    YES                    YES
               X      Y      Z        X      Y      Z        X      Y      Z
 Si         0.173  0.005  0.825   -0.001  0.843 -0.005    0.825  0.000 -0.172
 Cl        -0.005  0.000 -0.455    0.000 -0.021  0.003   -0.019  0.000  0.093
 Cl         0.053  0.000 -0.040    0.000 -0.021  0.000   -0.439  0.000  0.153
 Cl        -0.092  0.152 -0.081    0.171 -0.317  0.122   -0.101  0.140 -0.054
 Cl        -0.094 -0.156 -0.083   -0.170 -0.316 -0.121   -0.101 -0.140 -0.054
 TransDip   0.088  0.003  0.420   -0.001  0.429 -0.002    0.420  0.000 -0.088

 STANDARD THERMODYNAMIC QUANTITIES AT   298.18 K  AND     1.00 ATM

   This Molecule has  0 Imaginary Frequencies
   Zero point vibrational energy:        4.753 kcal/mol

   Atom    1 Element Si Has Mass   27.97693
   Atom    2 Element Cl Has Mass   34.96885
   Atom    3 Element Cl Has Mass   34.96885
   Atom    4 Element Cl Has Mass   34.96885
   Atom    5 Element Cl Has Mass   34.96885
   Molecular Mass:   167.852330 amu
   Principal axes and moments of inertia in atomic units:
                             1           2           3
    Eigenvalues --     1346.88017  1348.14183  1348.30069
          X               0.08922     0.99601     0.00001
          Y               0.00000    -0.00001     1.00000
          Z               0.99601    -0.08922     0.00000
   Rotational Symmetry Number is   1
   The Molecule is an Asymmetric Top
   Translational Enthalpy:        0.889 kcal/mol
   Rotational Enthalpy:           0.889 kcal/mol
   Vibrational Enthalpy:          6.991 kcal/mol
   gas constant (RT):             0.593 kcal/mol
   Translational Entropy:        41.262  cal/mol.K
   Rotational Entropy:           29.283  cal/mol.K
   Vibrational Entropy:          13.222  cal/mol.K

   Total Enthalpy:                9.361 kcal/mol
   Total Entropy:                83.767  cal/mol.K
 Total job time:  29544.79s(wall), 29378.41s(cpu) 
 Wed Jun  5 02:44:01 2013

        *************************************************************
        *                                                           *
        *  Thank you very much for using Q-Chem.  Have a nice day.  *
        *                                                           *
        *************************************************************


0 sent ACK to 0 
now end server 0 ... 
