Process 0 of 1 is on cl238.stfx.acenet.ca - thread support 1
initial socket setup ...start
initial socket setup ...done 
now start server 0 ... 

cmd = /usr/bin/ssh clhead /usr/local/qchem/bin/get_hostid 325056252 > /scratch/tmp/6064950.1.long.q/qchem30956/lic.dat
                  Welcome to Q-Chem
     A Quantum Leap Into The Future Of Chemistry

 Y. Shao, L. Fusti-Molnar, Y. Jung, J. Kussmann, C. Ochsenfeld,
 S. T. Brown, A. T. B. Gilbert, L. V. Slipchenko,S. V. Levchenko,
 D. P. O'Neill, R. A. DiStasio Jr., R. C. Lochan, T. Wang,
 G. J. O. Beran, N. A. Besley, J. M. Herbert, C. Y. Lin,
 T. Van Voorhis, S. H. Chien, A. Sodt, R. P. Steele, 
 V. A. Rassolov, P. E. Maslen, P. P. Korambath, R. D. Adamson,
 B. Austin, J. Baker, E. F. C. Byrd, H. Dachsel, R. J. Doerksen,
 A. Dreuw, B. D. Dunietz, A. D. Dutoi, T. R. Furlani,
 S. R. Gwaltney, A. Heyden, S. Hirata, C.-P. Hsu, G. Kedziora,
 R. Z. Khaliullin, P. Klunzinger, A. M. Lee, M. S. Lee, W. Liang,
 I. Lotan, N. Nair, B. Peters, E. I. Proynov, P. A. Pieniazek, 
 Y. M. Rhee, J. Ritchie, E. Rosta, C. D. Sherrill, 
 A. C. Simmonett, J. E. Subotnik, H. L. Woodcock III,
 W. Zhang, A. T. Bell, A. K. Chakraborty, D. M. Chipman,
 F. J. Keil, A. Warshel, W. J. Hehre, H. F. Schaefer III,
 J. Kong, A. I. Krylov, P. M. W. Gill, M. Head-Gordon,
 Q-Chem, Version 3.1, Q-Chem, Inc., Pittsburgh, PA (2007).

 Additional authors for Version 3.1: 
 Z. Gan, Y. Zhao, N. E. Schultz, D. Truhlar, E. Epifanovsky and M. Oana.

 Additional authors for Version 3.2: 
 R. Baer, B. R. Brooks, D. Casanova, J.-D. Chai, C.-L. Cheng, 
 C. Cramer, D. Crittenden, A. Ghysels, G. Hawkins, E. G. Hohenstein, 
 C. Kelley, W. Kurlancheek, D. Liotard, E. Livshits, P. Manohar, 
 A. Marenich, D. Neuhauser, R. Olson, M. A. Rohrdanz, K. S. Thanthiriwatte, 
 A. J. W. Thom, V. Vanovschi, C. F. Williams, Q. Wu and Z.-Q. You. 


 Intel X86 Linux Version

 Q-chem begins on Mon Jul  8 12:29:04 2013  

 Parallel job on  1  processors
Processing $rem in /usr/local/qchem/config/preferences.

theFileMan(): MAXOPENFILES=974 MAX_SUB_FILE_NUM=16
Maximum size of a physical file is 2.0 GB, maximum size of a tmp-file is 32.0 GB


--------------------------------------------------------------
User input:
--------------------------------------------------------------

$molecule
-1,2
C         -0.00199        0.00000        0.00717
C          0.00183        0.00000        1.31937
F          1.13163        0.00000       -0.70826
H         -0.88054        0.00000       -0.62880
H          0.92723        0.00000        1.88041
H         -0.93959        0.00000        1.85049
$end

$comment
negative
$end

$xc_functional
C PBE   1.00
X wPBE  1.00
$end

$rem
SYMMETRY_DECOMPOSITION	0
exchange 		general
LRC_DFT                 true
BASIS                   g3large
omega			1000
mem_static              760
max_scf_cycles          200
scf_final_print         1
sym_ignore              true
$end

--------------------------------------------------------------
 Writing REM_CC_EA            6
 ----------------------------------------------------
       Standard Nuclear Orientation (Angstroms)
    I     Atom         X            Y            Z
 ----------------------------------------------------
    1      C      -0.001990     0.000000     0.007170
    2      C       0.001830     0.000000     1.319370
    3      F       1.131630     0.000000    -0.708260
    4      H      -0.880540     0.000000    -0.628800
    5      H       0.927230     0.000000     1.880410
    6      H      -0.939590     0.000000     1.850490
 ----------------------------------------------------
 Nuclear Repulsion Energy =    67.7967727849 hartrees
 There are       13 alpha and       12 beta electrons
 Requested basis set is G3large
 There are 48 shells and 156 basis functions

Total QAlloc Memory Limit   2000 MB
Mega-Array Size       743 MB
MEM_STATIC part       760 MB

                       Distance Matrix (Angstroms)
             C (  1)   C (  2)   F (  3)   H (  4)   H (  5)
   C (  2)  1.312206
   F (  3)  1.340498  2.321149
   H (  4)  1.084577  2.138678  2.013738
   H (  5)  2.091047  1.082188  2.596727  3.092599
   H (  6)  2.068072  1.080907  3.291983  2.479993  1.867060
 
 A cutoff of  1.0D-08 yielded   1115 shell pairs
 There are  11879 function pairs ( 14831 Cartesian)
Evaluating contribution to one-electron hamiltonian from nuclear
 Smallest overlap matrix eigenvalue = 1.04E-04
 Multipole matrices computed through 2nd order

  Scale SEOQF with 1.000000e-01/1.000000e-01/1.000000e-01

 Standard Electronic Orientation quadrupole field applied
 Nucleus-field energy     =    -0.0000000019 hartrees
 Guess from superposition of atomic densities
 Warning:  Energy on first SCF cycle will be non-variational
 Long-range K will be added via erf
 Coulomb attenuation parameter = 1 bohr**(-1)
 An unrestricted Kohn-Sham SCF calculation will be
 performed using Pulay DIIS extrapolation
 Exchange:  wPBE + LR-HF      Correlation:  PBE
 Using SG-1 standard quadrature grid
 SCF converges when DIIS error is below 1.0E-05
 Requested basis set is G3large
 There are 48 shells and 156 basis functions
 A cutoff of  1.0D-08 yielded   1115 shell pairs
 There are  11879 function pairs ( 14831 Cartesian)
 Warning!  Inaccurate integrated density:
   Number of electrons =    25
   Numerical integral  =    23.999812481250
   Relative error      =    -4.0007500750 %
 ---------------------------------------
  Cycle       Energy         DIIS Error
 ---------------------------------------
    1    -178.4921758282      3.62E-02
    2    -177.6074533460      4.76E-03
    3    -177.6758476998      2.78E-03
    4    -177.6944496472      4.88E-04
    5    -177.6972498437      2.25E-04
    6    -177.6981575508      1.34E-04
    7    -177.6987438340      7.63E-05
    8    -177.6994538193      7.20E-05
    9    -177.6997121289      7.36E-05
   10    -177.6991629786      6.75E-05
   11    -177.6987433327      5.92E-05
   12    -177.6986837447      3.87E-05
   13    -177.6988464534      1.54E-05
   14    -177.6988841092      1.13E-05
   15    -177.6989091447      9.40E-06 Convergence criterion met
 ---------------------------------------
 One-Electron    Energy =  -383.4983220443
 Total Coulomb   Energy =   160.5714615488
 Alpha Exchange  Energy =    -4.9151884275
 Beta  Exchange  Energy =    -4.6682821863
 DFT   Exchange  Energy =   -12.1706184574
 DFT Correlation Energy =    -0.8147323609
 Nuclear Repu.   Energy =    67.7967727830
 Nuclear Attr.   Energy =  -560.9131492764
 Kinetic         Energy =   177.4148272321
 <S^2> = 0.7625
 SCF time:  CPU 99.52 s  wall 100.30 s
 Final Alpha MO Eigenvalues
            1           2           3           4           5           6
    1 -24.5442288 -10.2347412 -10.1658374  -1.3322374  -0.8132305  -0.6215417
            7           8           9          10          11          12
    1  -0.5221532  -0.4883590  -0.4640074  -0.3668353  -0.3358397  -0.2217859
           13          14          15          16          17          18
    1   0.0553407   0.1725314   0.1812729   0.1874309   0.2542841   0.2726066
 Final Beta MO Eigenvalues
            1           2           3           4           5           6
    1 -24.5432086 -10.2257090 -10.1647735  -1.3277207  -0.7984979  -0.6044834
            7           8           9          10          11          12
    1  -0.5181444  -0.4660230  -0.4553049  -0.3654274  -0.3319483  -0.1557258
           13          14          15          16          17
    1   0.1737439   0.1846711   0.1886706   0.2554393   0.2731612
 Analysis of SCF Wavefunction
 
 --------------------------------------------------------------
                    Orbital Energies (a.u.)
 --------------------------------------------------------------
 
 Alpha MOs
 -- Occupied --
-24.544 -10.235 -10.166  -1.332  -0.813  -0.622  -0.522  -0.488
 -0.464  -0.367  -0.336  -0.222   0.055
 -- Virtual --
  0.173   0.181   0.187   0.254   0.273   0.285   0.313   0.327
  0.338   0.351   0.355   0.430   0.452   0.483   0.533   0.534
  0.603   0.631   0.657   0.713   0.799   0.813   0.844   0.859
  0.900   0.904   0.938   0.964   1.008   1.009   1.038   1.092
  1.121   1.161   1.258   1.283   1.360   1.386   1.433   1.519
  1.548   1.574   1.652   1.703   1.753   1.760   1.776   1.797
  1.835   1.902   1.934   2.037   2.142   2.382   2.513   2.625
  2.671   2.898   2.917   2.993   3.128   3.129   3.177   3.202
  3.245   3.271   3.318   3.367   3.455   3.552   3.580   3.591
  3.614   3.619   3.679   3.724   3.736   3.855   3.937   3.944
  4.060   4.070   4.116   4.204   4.253   4.260   4.473   4.509
  4.607   4.640   4.715   4.875   4.899   4.971   5.164   5.187
  5.617   5.738   5.834   6.073   6.428   6.744   6.863   7.159
  7.170   7.255   7.279   7.338   7.615   7.875   8.130   9.655
  9.708  10.033  10.208  10.490  24.514  25.352  27.737  27.933
 28.567  28.723  28.771  28.880  41.378  41.478  41.549  41.621
 41.625  41.697  41.775  41.783  41.865  41.890  50.692  50.708
 50.850  50.887  51.021  56.169  56.234  56.674  67.211
 
 Beta MOs
 -- Occupied --
-24.543 -10.226 -10.165  -1.328  -0.798  -0.604  -0.518  -0.466
 -0.455  -0.365  -0.332  -0.156
 -- Virtual --
  0.174   0.185   0.189   0.255   0.273   0.281   0.287   0.314
  0.343   0.354   0.365   0.426   0.433   0.455   0.489   0.538
  0.540   0.604   0.633   0.664   0.717   0.803   0.828   0.862
  0.866   0.909   0.911   0.970   0.971   1.013   1.037   1.049
  1.099   1.124   1.183   1.261   1.285   1.367   1.397   1.436
  1.524   1.565   1.579   1.655   1.713   1.757   1.762   1.781
  1.799   1.837   1.907   1.937   2.041   2.146   2.383   2.518
  2.629   2.681   2.902   2.921   2.996   3.134   3.160   3.187
  3.206   3.261   3.276   3.331   3.380   3.461   3.556   3.591
  3.599   3.621   3.637   3.686   3.731   3.756   3.866   3.941
  3.963   4.065   4.075   4.132   4.212   4.257   4.271   4.475
  4.518   4.611   4.641   4.718   4.880   4.901   4.975   5.165
  5.202   5.622   5.743   5.835   6.073   6.431   6.749   6.864
  7.161   7.172   7.255   7.281   7.340   7.619   7.876   8.132
  9.660   9.713  10.037  10.208  10.491  24.519  25.357  27.749
 27.942  28.572  28.724  28.775  28.882  41.384  41.489  41.551
 41.633  41.635  41.699  41.780  41.784  41.867  41.892  50.696
 50.712  50.852  50.887  51.021  56.172  56.234  56.674  67.212
 --------------------------------------------------------------
 
          Ground-State Mulliken Net Atomic Charges

     Atom                 Charge (a.u.)    Spin (a.u.)
  --------------------------------------------------------
      1 C                    -0.053122       0.374262
      2 C                    -0.948780       0.752569
      3 F                    -0.217466      -0.011699
      4 H                     0.065070      -0.056876
      5 H                     0.101442      -0.033129
      6 H                     0.052856      -0.025128
  --------------------------------------------------------
  Sum of atomic charges =    -1.000000
  Sum of spin   charges =     1.000000

 -----------------------------------------------------------------
                    Cartesian Multipole Moments
 -----------------------------------------------------------------
    Charge (ESU x 10^10)
                -4.8032
    Dipole Moment (Debye)
         X      -1.3908      Y      -0.3269      Z      -4.0169
       Tot       4.2634
    Quadrupole Moments (Debye-Ang)
        XX     -23.2696     XY       0.1490     YY     -29.8502
        XZ       1.3817     YZ      -0.4112     ZZ     -32.9486
    Octapole Moments (Debye-Ang^2)
       XXX     -17.4638    XXY      -0.8668    XYY      -4.2028
       YYY      -2.0906    XXZ      -8.8411    XYZ      -0.0777
       YYZ     -23.7191    XZZ      -5.7211    YZZ      -2.9846
       ZZZ     -50.9845
    Hexadecapole Moments (Debye-Ang^3)
      XXXX     -85.5307   XXXY       0.9401   XXYY     -28.6040
      XYYY       0.7882   YYYY     -85.6157   XXXZ      11.8862
      XXYZ      -0.9673   XYYZ       2.7492   YYYZ      -2.3356
      XXZZ     -48.7403   XYZZ       0.9573   YYZZ     -77.8351
      XZZZ      11.1850   YZZZ      -6.9345   ZZZZ    -243.5502
 -----------------------------------------------------------------
 Total job time:  100.47s(wall), 99.68s(cpu) 
 Mon Jul  8 12:30:45 2013

        *************************************************************
        *                                                           *
        *  Thank you very much for using Q-Chem.  Have a nice day.  *
        *                                                           *
        *************************************************************


0 sent ACK to 0 
now end server 0 ... 
 
**********************************************************************
Job 2 of 3 
**********************************************************************
 
Process 0 of 1 is on cl238.stfx.acenet.ca - thread support 1
initial socket setup ...start
initial socket setup ...done 
now start server 0 ... 

cmd = /usr/bin/ssh clhead /usr/local/qchem/bin/get_hostid 1974692342 > /scratch/tmp/6064950.1.long.q/qchem30956/lic.dat
                  Welcome to Q-Chem
     A Quantum Leap Into The Future Of Chemistry

 Y. Shao, L. Fusti-Molnar, Y. Jung, J. Kussmann, C. Ochsenfeld,
 S. T. Brown, A. T. B. Gilbert, L. V. Slipchenko,S. V. Levchenko,
 D. P. O'Neill, R. A. DiStasio Jr., R. C. Lochan, T. Wang,
 G. J. O. Beran, N. A. Besley, J. M. Herbert, C. Y. Lin,
 T. Van Voorhis, S. H. Chien, A. Sodt, R. P. Steele, 
 V. A. Rassolov, P. E. Maslen, P. P. Korambath, R. D. Adamson,
 B. Austin, J. Baker, E. F. C. Byrd, H. Dachsel, R. J. Doerksen,
 A. Dreuw, B. D. Dunietz, A. D. Dutoi, T. R. Furlani,
 S. R. Gwaltney, A. Heyden, S. Hirata, C.-P. Hsu, G. Kedziora,
 R. Z. Khaliullin, P. Klunzinger, A. M. Lee, M. S. Lee, W. Liang,
 I. Lotan, N. Nair, B. Peters, E. I. Proynov, P. A. Pieniazek, 
 Y. M. Rhee, J. Ritchie, E. Rosta, C. D. Sherrill, 
 A. C. Simmonett, J. E. Subotnik, H. L. Woodcock III,
 W. Zhang, A. T. Bell, A. K. Chakraborty, D. M. Chipman,
 F. J. Keil, A. Warshel, W. J. Hehre, H. F. Schaefer III,
 J. Kong, A. I. Krylov, P. M. W. Gill, M. Head-Gordon,
 Q-Chem, Version 3.1, Q-Chem, Inc., Pittsburgh, PA (2007).

 Additional authors for Version 3.1: 
 Z. Gan, Y. Zhao, N. E. Schultz, D. Truhlar, E. Epifanovsky and M. Oana.

 Additional authors for Version 3.2: 
 R. Baer, B. R. Brooks, D. Casanova, J.-D. Chai, C.-L. Cheng, 
 C. Cramer, D. Crittenden, A. Ghysels, G. Hawkins, E. G. Hohenstein, 
 C. Kelley, W. Kurlancheek, D. Liotard, E. Livshits, P. Manohar, 
 A. Marenich, D. Neuhauser, R. Olson, M. A. Rohrdanz, K. S. Thanthiriwatte, 
 A. J. W. Thom, V. Vanovschi, C. F. Williams, Q. Wu and Z.-Q. You. 


 Intel X86 Linux Version

 Q-chem begins on Mon Jul  8 12:30:47 2013  

 Parallel job on  1  processors
Processing $rem in /usr/local/qchem/config/preferences.

theFileMan(): MAXOPENFILES=974 MAX_SUB_FILE_NUM=16
Maximum size of a physical file is 2.0 GB, maximum size of a tmp-file is 32.0 GB


--------------------------------------------------------------
User input:
--------------------------------------------------------------

$molecule
0,1
C         -0.00199        0.00000        0.00717
C          0.00183        0.00000        1.31937
F          1.13163        0.00000       -0.70826
H         -0.88054        0.00000       -0.62880
H          0.92723        0.00000        1.88041
H         -0.93959        0.00000        1.85049
$end

$comment
neutral
$end

$xc_functional
C PBE   1.00
X wPBE  1.00
$end


$rem
SYMMETRY_DECOMPOSITION	0
LRC_DFT                 true
exchange 		general
BASIS                   g3large
omega			1000
mem_static              760
max_scf_cycles          200
scf_final_print         1
sym_ignore              true
$end

--------------------------------------------------------------
 Writing REM_CC_EA            6
 ----------------------------------------------------
       Standard Nuclear Orientation (Angstroms)
    I     Atom         X            Y            Z
 ----------------------------------------------------
    1      C      -0.001990     0.000000     0.007170
    2      C       0.001830     0.000000     1.319370
    3      F       1.131630     0.000000    -0.708260
    4      H      -0.880540     0.000000    -0.628800
    5      H       0.927230     0.000000     1.880410
    6      H      -0.939590     0.000000     1.850490
 ----------------------------------------------------
 Nuclear Repulsion Energy =    67.7967727849 hartrees
 There are       12 alpha and       12 beta electrons
 Requested basis set is G3large
 There are 48 shells and 156 basis functions

Total QAlloc Memory Limit   2000 MB
Mega-Array Size       743 MB
MEM_STATIC part       760 MB

                       Distance Matrix (Angstroms)
             C (  1)   C (  2)   F (  3)   H (  4)   H (  5)
   C (  2)  1.312206
   F (  3)  1.340498  2.321149
   H (  4)  1.084577  2.138678  2.013738
   H (  5)  2.091047  1.082188  2.596727  3.092599
   H (  6)  2.068072  1.080907  3.291983  2.479993  1.867060
 
 A cutoff of  1.0D-08 yielded   1115 shell pairs
 There are  11879 function pairs ( 14831 Cartesian)
Evaluating contribution to one-electron hamiltonian from nuclear
 Smallest overlap matrix eigenvalue = 1.04E-04
 Multipole matrices computed through 2nd order

  Scale SEOQF with 1.000000e-01/1.000000e-01/1.000000e-01

 Standard Electronic Orientation quadrupole field applied
 Nucleus-field energy     =    -0.0000000019 hartrees
 Guess from superposition of atomic densities
 Warning:  Energy on first SCF cycle will be non-variational
 Long-range K will be added via erf
 Coulomb attenuation parameter = 1 bohr**(-1)
 A restricted Kohn-Sham SCF calculation will be
 performed using Pulay DIIS extrapolation
 Exchange:  wPBE + LR-HF      Correlation:  PBE
 Using SG-1 standard quadrature grid
 SCF converges when DIIS error is below 1.0E-05
 Requested basis set is G3large
 There are 48 shells and 156 basis functions
 A cutoff of  1.0D-08 yielded   1115 shell pairs
 There are  11879 function pairs ( 14831 Cartesian)
 ---------------------------------------
  Cycle       Energy         DIIS Error
 ---------------------------------------
    1    -178.4921758282      3.62E-02
    2    -177.7133453466      4.34E-03
    3    -177.7603503300      2.52E-03
    4    -177.7730417487      6.07E-04
    5    -177.7747180426      1.69E-04
    6    -177.7748960085      6.76E-05
    7    -177.7749204998      1.85E-05
    8    -177.7749238438      4.57E-06 Convergence criterion met
 ---------------------------------------
 One-Electron    Energy =  -377.7889329034
 Total Coulomb   Energy =   154.5498172946
 Alpha Exchange  Energy =    -4.7003546002
 Beta  Exchange  Energy =    -4.7003546002
 DFT   Exchange  Energy =   -12.1410403596
 DFT Correlation Energy =    -0.7908314580
 Nuclear Repu.   Energy =    67.7967727830
 Nuclear Attr.   Energy =  -554.9020525375
 Kinetic         Energy =   177.1131196341
 SCF time:  CPU 42.29 s  wall 42.67 s
 Final Alpha MO Eigenvalues
            1           2           3           4           5           6
    1 -24.7707363 -10.5173762 -10.4246951  -1.5573068  -1.0599218  -0.8505560
            7           8           9          10          11          12
    1  -0.7550387  -0.7011931  -0.6976197  -0.6069958  -0.5769274  -0.4244299
           13          14          15          16          17
    1   0.0440965   0.0573083   0.0663162   0.0935452   0.1175193
 Analysis of SCF Wavefunction
 
 --------------------------------------------------------------
                    Orbital Energies (a.u.)
 --------------------------------------------------------------
 
 Alpha MOs
 -- Occupied --
-24.771 -10.517 -10.425  -1.557  -1.060  -0.851  -0.755  -0.701
 -0.698  -0.607  -0.577  -0.424
 -- Virtual --
  0.044   0.057   0.066   0.094   0.118   0.119   0.136   0.172
  0.177   0.190   0.200   0.211   0.246   0.262   0.301   0.361
  0.366   0.431   0.450   0.474   0.517   0.588   0.604   0.628
  0.640   0.676   0.699   0.732   0.754   0.794   0.795   0.821
  0.865   0.904   0.940   1.038   1.062   1.139   1.162   1.214
  1.301   1.320   1.352   1.445   1.475   1.539   1.548   1.554
  1.587   1.617   1.679   1.708   1.808   1.919   2.169   2.294
  2.402   2.444   2.665   2.678   2.753   2.879   2.885   2.924
  2.959   2.994   3.037   3.068   3.116   3.204   3.305   3.333
  3.342   3.368   3.369   3.433   3.475   3.486   3.609   3.694
  3.701   3.816   3.825   3.861   3.953   4.008   4.012   4.233
  4.269   4.360   4.394   4.468   4.627   4.654   4.719   4.920
  4.931   5.366   5.492   5.588   5.827   6.180   6.526   6.644
  6.941   6.952   7.033   7.057   7.116   7.389   7.648   7.898
  9.436   9.488   9.811   9.986  10.268  24.245  25.083  27.464
 27.666  28.289  28.462  28.497  28.616  41.105  41.197  41.289
 41.339  41.348  41.436  41.506  41.509  41.598  41.624  50.468
 50.484  50.624  50.661  50.794  55.944  56.008  56.447  66.985
 --------------------------------------------------------------
 
          Ground-State Mulliken Net Atomic Charges

     Atom                 Charge (a.u.)
  ----------------------------------------
      1 C                    -0.041629
      2 C                    -0.129806
      3 F                    -0.157908
      4 H                     0.134721
      5 H                     0.114765
      6 H                     0.079857
  ----------------------------------------
  Sum of atomic charges =     0.000000

 -----------------------------------------------------------------
                    Cartesian Multipole Moments
 -----------------------------------------------------------------
    Charge (ESU x 10^10)
                 0.0000
    Dipole Moment (Debye)
         X      -1.4351      Y      -0.0002      Z       0.8572
       Tot       1.6716
    Quadrupole Moments (Debye-Ang)
        XX     -17.3314     XY       0.0002     YY     -18.9558
        XZ       1.5888     YZ      -0.0002     ZZ     -15.6809
    Octapole Moments (Debye-Ang^2)
       XXX     -16.9726    XXY       0.0001    XYY      -4.5629
       YYY      -0.0005    XXZ      -2.8291    XYZ       0.0002
       YYZ      -7.4191    XZZ      -5.7435    YZZ      -0.0003
       ZZZ     -12.5766
    Hexadecapole Moments (Debye-Ang^3)
      XXXX     -62.3988   XXXY       0.0004   XXYY     -14.0507
      XYYY       0.0002   YYYY     -19.3305   XXXZ      12.1976
      XXYZ      -0.0002   XYYZ       3.6538   YYYZ      -0.0004
      XXZZ     -25.0015   XYZZ       0.0006   YYZZ     -24.3017
      XZZZ      11.9056   YZZZ      -0.0009   ZZZZ    -107.2870
 -----------------------------------------------------------------
 Total job time:  42.83s(wall), 42.45s(cpu) 
 Mon Jul  8 12:31:30 2013

        *************************************************************
        *                                                           *
        *  Thank you very much for using Q-Chem.  Have a nice day.  *
        *                                                           *
        *************************************************************


0 sent ACK to 0 
now end server 0 ... 
 
**********************************************************************
Job 3 of 3 
**********************************************************************
 
Process 0 of 1 is on cl238.stfx.acenet.ca - thread support 1
initial socket setup ...start
initial socket setup ...done 
now start server 0 ... 

cmd = /usr/bin/ssh clhead /usr/local/qchem/bin/get_hostid 874187499 > /scratch/tmp/6064950.1.long.q/qchem30956/lic.dat
                  Welcome to Q-Chem
     A Quantum Leap Into The Future Of Chemistry

 Y. Shao, L. Fusti-Molnar, Y. Jung, J. Kussmann, C. Ochsenfeld,
 S. T. Brown, A. T. B. Gilbert, L. V. Slipchenko,S. V. Levchenko,
 D. P. O'Neill, R. A. DiStasio Jr., R. C. Lochan, T. Wang,
 G. J. O. Beran, N. A. Besley, J. M. Herbert, C. Y. Lin,
 T. Van Voorhis, S. H. Chien, A. Sodt, R. P. Steele, 
 V. A. Rassolov, P. E. Maslen, P. P. Korambath, R. D. Adamson,
 B. Austin, J. Baker, E. F. C. Byrd, H. Dachsel, R. J. Doerksen,
 A. Dreuw, B. D. Dunietz, A. D. Dutoi, T. R. Furlani,
 S. R. Gwaltney, A. Heyden, S. Hirata, C.-P. Hsu, G. Kedziora,
 R. Z. Khaliullin, P. Klunzinger, A. M. Lee, M. S. Lee, W. Liang,
 I. Lotan, N. Nair, B. Peters, E. I. Proynov, P. A. Pieniazek, 
 Y. M. Rhee, J. Ritchie, E. Rosta, C. D. Sherrill, 
 A. C. Simmonett, J. E. Subotnik, H. L. Woodcock III,
 W. Zhang, A. T. Bell, A. K. Chakraborty, D. M. Chipman,
 F. J. Keil, A. Warshel, W. J. Hehre, H. F. Schaefer III,
 J. Kong, A. I. Krylov, P. M. W. Gill, M. Head-Gordon,
 Q-Chem, Version 3.1, Q-Chem, Inc., Pittsburgh, PA (2007).

 Additional authors for Version 3.1: 
 Z. Gan, Y. Zhao, N. E. Schultz, D. Truhlar, E. Epifanovsky and M. Oana.

 Additional authors for Version 3.2: 
 R. Baer, B. R. Brooks, D. Casanova, J.-D. Chai, C.-L. Cheng, 
 C. Cramer, D. Crittenden, A. Ghysels, G. Hawkins, E. G. Hohenstein, 
 C. Kelley, W. Kurlancheek, D. Liotard, E. Livshits, P. Manohar, 
 A. Marenich, D. Neuhauser, R. Olson, M. A. Rohrdanz, K. S. Thanthiriwatte, 
 A. J. W. Thom, V. Vanovschi, C. F. Williams, Q. Wu and Z.-Q. You. 


 Intel X86 Linux Version

 Q-chem begins on Mon Jul  8 12:31:33 2013  

 Parallel job on  1  processors
Processing $rem in /usr/local/qchem/config/preferences.

theFileMan(): MAXOPENFILES=974 MAX_SUB_FILE_NUM=16
Maximum size of a physical file is 2.0 GB, maximum size of a tmp-file is 32.0 GB


--------------------------------------------------------------
User input:
--------------------------------------------------------------

$molecule
1,2
C         -0.00199        0.00000        0.00717
C          0.00183        0.00000        1.31937
F          1.13163        0.00000       -0.70826
H         -0.88054        0.00000       -0.62880
H          0.92723        0.00000        1.88041
H         -0.93959        0.00000        1.85049
$end

$comment
positive
$end

$xc_functional
C PBE   1.00
X wPBE  1.00
$end

$rem
SYMMETRY_DECOMPOSITION	0
LRC_DFT                 true
exchange 		general
BASIS                   g3large
omega			1000
mem_static              760
max_scf_cycles          200
scf_final_print         1
sym_ignore              true
$end

--------------------------------------------------------------
 Writing REM_CC_EA            6
 ----------------------------------------------------
       Standard Nuclear Orientation (Angstroms)
    I     Atom         X            Y            Z
 ----------------------------------------------------
    1      C      -0.001990     0.000000     0.007170
    2      C       0.001830     0.000000     1.319370
    3      F       1.131630     0.000000    -0.708260
    4      H      -0.880540     0.000000    -0.628800
    5      H       0.927230     0.000000     1.880410
    6      H      -0.939590     0.000000     1.850490
 ----------------------------------------------------
 Nuclear Repulsion Energy =    67.7967727849 hartrees
 There are       12 alpha and       11 beta electrons
 Requested basis set is G3large
 There are 48 shells and 156 basis functions

Total QAlloc Memory Limit   2000 MB
Mega-Array Size       743 MB
MEM_STATIC part       760 MB

                       Distance Matrix (Angstroms)
             C (  1)   C (  2)   F (  3)   H (  4)   H (  5)
   C (  2)  1.312206
   F (  3)  1.340498  2.321149
   H (  4)  1.084577  2.138678  2.013738
   H (  5)  2.091047  1.082188  2.596727  3.092599
   H (  6)  2.068072  1.080907  3.291983  2.479993  1.867060
 
 A cutoff of  1.0D-08 yielded   1115 shell pairs
 There are  11879 function pairs ( 14831 Cartesian)
Evaluating contribution to one-electron hamiltonian from nuclear
 Smallest overlap matrix eigenvalue = 1.04E-04
 Multipole matrices computed through 2nd order

  Scale SEOQF with 1.000000e-01/1.000000e-01/1.000000e-01

 Standard Electronic Orientation quadrupole field applied
 Nucleus-field energy     =    -0.0000000019 hartrees
 Guess from superposition of atomic densities
 Warning:  Energy on first SCF cycle will be non-variational
 Long-range K will be added via erf
 Coulomb attenuation parameter = 1 bohr**(-1)
 An unrestricted Kohn-Sham SCF calculation will be
 performed using Pulay DIIS extrapolation
 Exchange:  wPBE + LR-HF      Correlation:  PBE
 Using SG-1 standard quadrature grid
 SCF converges when DIIS error is below 1.0E-05
 Requested basis set is G3large
 There are 48 shells and 156 basis functions
 A cutoff of  1.0D-08 yielded   1115 shell pairs
 There are  11879 function pairs ( 14831 Cartesian)
 Warning!  Inaccurate integrated density:
   Number of electrons =    23
   Numerical integral  =    23.999812481250
   Relative error      =     4.3470107880 %
 ---------------------------------------
  Cycle       Energy         DIIS Error
 ---------------------------------------
    1    -178.4921758282      3.62E-02
    2    -177.2627856726      5.31E-03
    3    -177.3567772519      3.33E-03
    4    -177.3828635848      1.01E-03
    5    -177.3878957556      3.16E-04
    6    -177.3898739791      1.45E-04
    7    -177.3907684217      6.13E-05
    8    -177.3910048882      2.69E-05
    9    -177.3910596175      1.05E-05
   10    -177.3910689145      3.20E-06 Convergence criterion met
 ---------------------------------------
 One-Electron    Energy =  -370.3153854653
 Total Coulomb   Energy =   147.1493349603
 Alpha Exchange  Energy =    -4.7486095314
 Beta  Exchange  Energy =    -4.4191700685
 DFT   Exchange  Energy =   -12.1039805598
 DFT Correlation Energy =    -0.7500310328
 Nuclear Repu.   Energy =    67.7967727830
 Nuclear Attr.   Energy =  -547.1965849486
 Kinetic         Energy =   176.8811994834
 <S^2> = 0.7543
 SCF time:  CPU 64.67 s  wall 65.25 s
 Final Alpha MO Eigenvalues
            1           2           3           4           5           6
    1 -25.0710733 -10.8736742 -10.7793594  -1.8505508  -1.4220864  -1.1542522
            7           8           9          10          11          12
    1  -1.0568293  -1.0129703  -0.9976291  -0.9118100  -0.8779932  -0.7909728
           13          14          15          16          17
    1  -0.2037311  -0.1142212  -0.0902340  -0.0748765  -0.0629044
 Final Beta MO Eigenvalues
            1           2           3           4           5           6
    1 -25.0679464 -10.8680687 -10.7710895  -1.8409856  -1.3599811  -1.1386818
            7           8           9          10          11          12
    1  -1.0503469  -1.0035031  -0.9443664  -0.9058652  -0.8733454  -0.3456323
           13          14          15          16
    1  -0.1140043  -0.1123523  -0.0888022  -0.0734212
 Analysis of SCF Wavefunction
 
 --------------------------------------------------------------
                    Orbital Energies (a.u.)
 --------------------------------------------------------------
 
 Alpha MOs
 -- Occupied --
-25.071 -10.874 -10.779  -1.851  -1.422  -1.154  -1.057  -1.013
 -0.998  -0.912  -0.878  -0.791
 -- Virtual --
 -0.204  -0.114  -0.090  -0.075  -0.063  -0.061  -0.033  -0.013
 -0.004   0.016   0.028   0.039   0.043   0.057   0.084   0.156
  0.163   0.208   0.255   0.278   0.289   0.339   0.346   0.347
  0.380   0.391   0.452   0.456   0.504   0.508   0.536   0.559
  0.590   0.646   0.647   0.785   0.793   0.875   0.888   0.951
  1.034   1.039   1.078   1.187   1.193   1.268   1.275   1.305
  1.325   1.357   1.411   1.438   1.530   1.646   1.903   2.010
  2.120   2.146   2.362   2.390   2.443   2.523   2.560   2.562
  2.641   2.652   2.727   2.738   2.782   2.869   2.986   2.999
  3.008   3.039   3.055   3.118   3.156   3.157   3.283   3.369
  3.383   3.501   3.518   3.520   3.625   3.674   3.699   3.939
  3.963   4.059   4.090   4.166   4.322   4.345   4.392   4.568
  4.617   5.035   5.184   5.278   5.523   5.870   6.234   6.363
  6.658   6.669   6.749   6.773   6.829   7.097   7.359   7.604
  9.143   9.196   9.516   9.701   9.980  23.893  24.729  27.100
 27.302  27.939  28.112  28.145  28.267  40.747  40.839  40.931
 40.979  40.987  41.078  41.149  41.156  41.246  41.275  50.165
 50.182  50.321  50.365  50.496  55.640  55.712  56.148  66.686
 
 Beta MOs
 -- Occupied --
-25.068 -10.868 -10.771  -1.841  -1.360  -1.139  -1.050  -1.004
 -0.944  -0.906  -0.873
 -- Virtual --
 -0.346  -0.114  -0.112  -0.089  -0.073  -0.056  -0.052  -0.031
 -0.006   0.013   0.018   0.031   0.041   0.047   0.060   0.091
  0.160   0.170   0.214   0.257   0.280   0.292   0.346   0.355
  0.379   0.398   0.426   0.462   0.484   0.516   0.526   0.541
  0.569   0.598   0.652   0.667   0.787   0.801   0.883   0.898
  0.955   1.043   1.047   1.083   1.197   1.201   1.275   1.279
  1.314   1.328   1.361   1.416   1.443   1.536   1.650   1.907
  2.022   2.127   2.158   2.375   2.392   2.451   2.556   2.576
  2.600   2.663   2.675   2.744   2.749   2.801   2.891   2.995
  3.023   3.034   3.056   3.064   3.126   3.169   3.178   3.300
  3.390   3.390   3.508   3.524   3.542   3.638   3.695   3.704
  3.941   3.970   4.064   4.093   4.171   4.328   4.349   4.399
  4.596   4.619   5.046   5.188   5.281   5.525   5.874   6.248
  6.366   6.665   6.676   6.752   6.778   6.834   7.103   7.361
  7.607   9.155   9.208   9.527   9.703   9.984  23.900  24.736
 27.116  27.320  27.942  28.117  28.149  28.270  40.756  40.848
 40.945  40.989  40.997  41.091  41.158  41.161  41.250  41.277
 50.176  50.192  50.330  50.366  50.499  55.648  55.713  56.149
 66.689
 --------------------------------------------------------------
 
          Ground-State Mulliken Net Atomic Charges

     Atom                 Charge (a.u.)    Spin (a.u.)
  --------------------------------------------------------
      1 C                     0.217797       0.397572
      2 C                     0.232845       0.596168
      3 F                    -0.006907       0.070082
      4 H                     0.216472      -0.017683
      5 H                     0.186343      -0.023645
      6 H                     0.153450      -0.022493
  --------------------------------------------------------
  Sum of atomic charges =     1.000000
  Sum of spin   charges =     1.000000

 -----------------------------------------------------------------
                    Cartesian Multipole Moments
 -----------------------------------------------------------------
    Charge (ESU x 10^10)
                 4.8032
    Dipole Moment (Debye)
         X      -1.1319      Y      -0.0003      Z       3.8586
       Tot       4.0211
    Quadrupole Moments (Debye-Ang)
        XX     -13.0103     XY       0.0003     YY     -14.8569
        XZ       1.0283     YZ       0.0000     ZZ      -7.1804
    Octapole Moments (Debye-Ang^2)
       XXX     -15.4168    XXY      -0.0002    XYY      -4.6095
       YYY      -0.0004    XXZ      -1.2485    XYZ      -0.0005
       YYZ      -4.4473    XZZ      -5.1430    YZZ      -0.0006
       ZZZ       0.2046
    Hexadecapole Moments (Debye-Ang^3)
      XXXX     -51.2358   XXXY       0.0005   XXYY     -11.3343
      XYYY       0.0002   YYYY     -11.3132   XXXZ      10.4709
      XXYZ      -0.0002   XYYZ       3.3914   YYYZ      -0.0001
      XXZZ     -16.0867   XYZZ      -0.0002   YYZZ     -18.0543
      XZZZ      10.9357   YZZZ      -0.0011   ZZZZ     -71.4159
 -----------------------------------------------------------------
 Total job time:  65.41s(wall), 64.83s(cpu) 
 Mon Jul  8 12:32:39 2013

        *************************************************************
        *                                                           *
        *  Thank you very much for using Q-Chem.  Have a nice day.  *
        *                                                           *
        *************************************************************


0 sent ACK to 0 
now end server 0 ... 
