Process 0 of 1 is on cl162.stfx.acenet.ca - thread support 1
initial socket setup ...start
initial socket setup ...done 
now start server 0 ... 

cmd = /usr/bin/ssh clhead /usr/local/qchem/bin/get_hostid 1947581685 > /scratch/tmp/6028531.1.medium.q/qchem4742/lic.dat
                  Welcome to Q-Chem
     A Quantum Leap Into The Future Of Chemistry

 Y. Shao, L. Fusti-Molnar, Y. Jung, J. Kussmann, C. Ochsenfeld,
 S. T. Brown, A. T. B. Gilbert, L. V. Slipchenko,S. V. Levchenko,
 D. P. O'Neill, R. A. DiStasio Jr., R. C. Lochan, T. Wang,
 G. J. O. Beran, N. A. Besley, J. M. Herbert, C. Y. Lin,
 T. Van Voorhis, S. H. Chien, A. Sodt, R. P. Steele, 
 V. A. Rassolov, P. E. Maslen, P. P. Korambath, R. D. Adamson,
 B. Austin, J. Baker, E. F. C. Byrd, H. Dachsel, R. J. Doerksen,
 A. Dreuw, B. D. Dunietz, A. D. Dutoi, T. R. Furlani,
 S. R. Gwaltney, A. Heyden, S. Hirata, C.-P. Hsu, G. Kedziora,
 R. Z. Khaliullin, P. Klunzinger, A. M. Lee, M. S. Lee, W. Liang,
 I. Lotan, N. Nair, B. Peters, E. I. Proynov, P. A. Pieniazek, 
 Y. M. Rhee, J. Ritchie, E. Rosta, C. D. Sherrill, 
 A. C. Simmonett, J. E. Subotnik, H. L. Woodcock III,
 W. Zhang, A. T. Bell, A. K. Chakraborty, D. M. Chipman,
 F. J. Keil, A. Warshel, W. J. Hehre, H. F. Schaefer III,
 J. Kong, A. I. Krylov, P. M. W. Gill, M. Head-Gordon,
 Q-Chem, Version 3.1, Q-Chem, Inc., Pittsburgh, PA (2007).

 Additional authors for Version 3.1: 
 Z. Gan, Y. Zhao, N. E. Schultz, D. Truhlar, E. Epifanovsky and M. Oana.

 Additional authors for Version 3.2: 
 R. Baer, B. R. Brooks, D. Casanova, J.-D. Chai, C.-L. Cheng, 
 C. Cramer, D. Crittenden, A. Ghysels, G. Hawkins, E. G. Hohenstein, 
 C. Kelley, W. Kurlancheek, D. Liotard, E. Livshits, P. Manohar, 
 A. Marenich, D. Neuhauser, R. Olson, M. A. Rohrdanz, K. S. Thanthiriwatte, 
 A. J. W. Thom, V. Vanovschi, C. F. Williams, Q. Wu and Z.-Q. You. 


 Intel X86 Linux Version

 Q-chem begins on Tue Jun  4 15:37:35 2013  

 Parallel job on  1  processors
Processing $rem in /usr/local/qchem/config/preferences.

theFileMan(): MAXOPENFILES=974 MAX_SUB_FILE_NUM=16
Maximum size of a physical file is 2.0 GB, maximum size of a tmp-file is 32.0 GB


--------------------------------------------------------------
User input:
--------------------------------------------------------------

$molecule
-1,1
C         -0.01114       -0.00000        0.01552
C         -0.09766       -0.00000        1.34199
H          0.95965       -0.00000       -0.47008
H         -0.91403        0.00000       -0.58541
H          0.80086        0.00000        1.95088
$end

$comment
negative
$end

$xc_functional
C PBE   1.00
X wPBE  1.00
$end

$rem
SYMMETRY_DECOMPOSITION	0
exchange 		general
LRC_DFT                 true
BASIS                   g3large
omega			400
mem_static              760
max_scf_cycles          200
scf_final_print         1
sym_ignore              true
$end

--------------------------------------------------------------
 Writing REM_CC_EA            5
 ----------------------------------------------------
       Standard Nuclear Orientation (Angstroms)
    I     Atom         X            Y            Z
 ----------------------------------------------------
    1      C      -0.011140     0.000000     0.015520
    2      C      -0.097660     0.000000     1.341990
    3      H       0.959650     0.000000    -0.470080
    4      H      -0.914030     0.000000    -0.585410
    5      H       0.800860     0.000000     1.950880
 ----------------------------------------------------
 Nuclear Repulsion Energy =    28.3249355481 hartrees
 There are        8 alpha and        8 beta electrons
 Requested basis set is G3large
 There are 38 shells and 114 basis functions

Total QAlloc Memory Limit   2000 MB
Mega-Array Size       743 MB
MEM_STATIC part       760 MB

                       Distance Matrix (Angstroms)
             C (  1)   C (  2)   H (  3)   H (  4)
   C (  2)  1.329289
   H (  3)  1.085468  2.097976
   H (  4)  1.084586  2.093163  1.877226
   H (  5)  2.098800  1.085396  2.426162  3.061636
 
 A cutoff of  1.0D-08 yielded    733 shell pairs
 There are   6649 function pairs (  8156 Cartesian)
Evaluating contribution to one-electron hamiltonian from nuclear
 Smallest overlap matrix eigenvalue = 1.40E-04
 Multipole matrices computed through 2nd order

  Scale SEOQF with 1.000000e-01/1.000000e-01/1.000000e-01

 Standard Electronic Orientation quadrupole field applied
 Nucleus-field energy     =    -0.0000000015 hartrees
 Guess from superposition of atomic densities
 Warning:  Energy on first SCF cycle will be non-variational
 Long-range K will be added via erf
 Coulomb attenuation parameter = 0.4 bohr**(-1)
 A restricted Kohn-Sham SCF calculation will be
 performed using Pulay DIIS extrapolation
 Exchange:  wPBE + LR-HF      Correlation:  PBE
 Using SG-1 standard quadrature grid
 SCF converges when DIIS error is below 1.0E-05
 Requested basis set is G3large
 There are 38 shells and 114 basis functions
 A cutoff of  1.0D-08 yielded    733 shell pairs
 There are   6649 function pairs (  8156 Cartesian)
 Warning!  Inaccurate integrated density:
   Number of electrons =    16
   Numerical integral  =    14.999933654394
   Relative error      =    -6.2504146600 %
 ---------------------------------------
  Cycle       Energy         DIIS Error
 ---------------------------------------
    1     -78.1254311492      3.65E-02
    2     -77.7469231255      7.46E-03
    3     -77.8129576182      5.85E-03
    4     -77.8720988883      6.01E-04
    5     -77.8739462017      4.30E-04
    6     -77.8747711671      1.55E-04
    7     -77.8751116566      6.17E-05
    8     -77.8751773847      1.51E-05
    9     -77.8751812771      4.94E-06 Convergence criterion met
 ---------------------------------------
 One-Electron    Energy =  -163.6250167970
 Total Coulomb   Energy =    69.4622098676
 Alpha Exchange  Energy =    -1.5423630930
 Beta  Exchange  Energy =    -1.5423630930
 DFT   Exchange  Energy =    -8.4647266194
 DFT Correlation Energy =    -0.4878570890
 Nuclear Repu.   Energy =    28.3249355466
 Nuclear Attr.   Energy =  -241.2459651367
 Kinetic         Energy =    77.6209483397
 SCF time:  CPU 19.19 s  wall 30.82 s
 Final Alpha MO Eigenvalues
            1           2           3           4           5           6
    1  -9.8543478  -9.8227808  -0.6440616  -0.4408032  -0.3341088  -0.2660910
            7           8           9          10          11          12
    1  -0.1392323  -0.0437989   0.1763297   0.1850305   0.1924957   0.2692027
           13
    1   0.2791739
 Analysis of SCF Wavefunction
 
 --------------------------------------------------------------
                    Orbital Energies (a.u.)
 --------------------------------------------------------------
 
 Alpha MOs
 -- Occupied --
 -9.854  -9.823  -0.644  -0.441  -0.334  -0.266  -0.139  -0.044
 -- Virtual --
  0.176   0.185   0.192   0.269   0.279   0.286   0.299   0.340
  0.347   0.361   0.385   0.399   0.423   0.457   0.521   0.657
  0.753   0.777   0.813   0.841   0.854   0.863   0.900   0.932
  0.934   0.957   1.003   1.007   1.083   1.097   1.150   1.219
  1.287   1.336   1.368   1.492   1.531   1.543   1.596   1.650
  1.717   1.747   1.784   1.823   1.857   1.991   2.756   2.830
  2.950   2.995   3.004   3.048   3.091   3.112   3.203   3.231
  3.236   3.330   3.404   3.428   3.487   3.492   3.552   3.607
  3.659   3.663   3.664   3.703   3.812   3.927   3.974   4.013
  4.046   4.081   4.323   4.449   4.450   4.560   4.669   4.700
  4.798   4.935   5.032   5.393   5.538   5.612   5.882   6.198
 24.054  24.918  27.480  27.671  27.929  28.394  28.458  28.550
 41.104  41.196  41.225  41.392  41.395  41.432  41.473  41.516
 41.577  41.593
 --------------------------------------------------------------
 
          Ground-State Mulliken Net Atomic Charges

     Atom                 Charge (a.u.)
  ----------------------------------------
      1 C                    -0.516375
      2 C                    -0.492724
      3 H                    -0.068916
      4 H                     0.056726
      5 H                     0.021289
  ----------------------------------------
  Sum of atomic charges =    -1.000000

 -----------------------------------------------------------------
                    Cartesian Multipole Moments
 -----------------------------------------------------------------
    Charge (ESU x 10^10)
                -4.8032
    Dipole Moment (Debye)
         X       2.1975      Y       0.0007      Z      -5.7352
       Tot       6.1417
    Quadrupole Moments (Debye-Ang)
        XX     -19.9042     XY      -0.0019     YY     -19.5538
        XZ       5.3280     YZ       0.0024     ZZ     -28.4995
    Octapole Moments (Debye-Ang^2)
       XXX       5.7706    XXY       0.0011    XYY       2.0804
       YYY       0.0034    XXZ     -18.0352    XYZ      -0.0030
       YYZ     -13.9377    XZZ      11.3168    YZZ       0.0059
       ZZZ     -58.3661
    Hexadecapole Moments (Debye-Ang^3)
      XXXX     -55.3390   XXXY      -0.0077   XXYY     -15.6137
      XYYY      -0.0076   YYYY     -36.6695   XXXZ      13.4966
      XXYZ       0.0038   XYYZ       4.3625   YYYZ       0.0108
      XXZZ     -46.6551   XYZZ      -0.0082   YYZZ     -34.9613
      XZZZ      30.0871   YZZZ       0.0195   ZZZZ    -203.2499
 -----------------------------------------------------------------
 Total job time:  31.60s(wall), 19.29s(cpu) 
 Tue Jun  4 15:38:07 2013

        *************************************************************
        *                                                           *
        *  Thank you very much for using Q-Chem.  Have a nice day.  *
        *                                                           *
        *************************************************************


0 sent ACK to 0 
now end server 0 ... 
 
**********************************************************************
Job 2 of 3 
**********************************************************************
 
Process 0 of 1 is on cl162.stfx.acenet.ca - thread support 1
initial socket setup ...start
initial socket setup ...done 
now start server 0 ... 

cmd = /usr/bin/ssh clhead /usr/local/qchem/bin/get_hostid 187563763 > /scratch/tmp/6028531.1.medium.q/qchem4742/lic.dat
                  Welcome to Q-Chem
     A Quantum Leap Into The Future Of Chemistry

 Y. Shao, L. Fusti-Molnar, Y. Jung, J. Kussmann, C. Ochsenfeld,
 S. T. Brown, A. T. B. Gilbert, L. V. Slipchenko,S. V. Levchenko,
 D. P. O'Neill, R. A. DiStasio Jr., R. C. Lochan, T. Wang,
 G. J. O. Beran, N. A. Besley, J. M. Herbert, C. Y. Lin,
 T. Van Voorhis, S. H. Chien, A. Sodt, R. P. Steele, 
 V. A. Rassolov, P. E. Maslen, P. P. Korambath, R. D. Adamson,
 B. Austin, J. Baker, E. F. C. Byrd, H. Dachsel, R. J. Doerksen,
 A. Dreuw, B. D. Dunietz, A. D. Dutoi, T. R. Furlani,
 S. R. Gwaltney, A. Heyden, S. Hirata, C.-P. Hsu, G. Kedziora,
 R. Z. Khaliullin, P. Klunzinger, A. M. Lee, M. S. Lee, W. Liang,
 I. Lotan, N. Nair, B. Peters, E. I. Proynov, P. A. Pieniazek, 
 Y. M. Rhee, J. Ritchie, E. Rosta, C. D. Sherrill, 
 A. C. Simmonett, J. E. Subotnik, H. L. Woodcock III,
 W. Zhang, A. T. Bell, A. K. Chakraborty, D. M. Chipman,
 F. J. Keil, A. Warshel, W. J. Hehre, H. F. Schaefer III,
 J. Kong, A. I. Krylov, P. M. W. Gill, M. Head-Gordon,
 Q-Chem, Version 3.1, Q-Chem, Inc., Pittsburgh, PA (2007).

 Additional authors for Version 3.1: 
 Z. Gan, Y. Zhao, N. E. Schultz, D. Truhlar, E. Epifanovsky and M. Oana.

 Additional authors for Version 3.2: 
 R. Baer, B. R. Brooks, D. Casanova, J.-D. Chai, C.-L. Cheng, 
 C. Cramer, D. Crittenden, A. Ghysels, G. Hawkins, E. G. Hohenstein, 
 C. Kelley, W. Kurlancheek, D. Liotard, E. Livshits, P. Manohar, 
 A. Marenich, D. Neuhauser, R. Olson, M. A. Rohrdanz, K. S. Thanthiriwatte, 
 A. J. W. Thom, V. Vanovschi, C. F. Williams, Q. Wu and Z.-Q. You. 


 Intel X86 Linux Version

 Q-chem begins on Tue Jun  4 15:38:09 2013  

 Parallel job on  1  processors
Processing $rem in /usr/local/qchem/config/preferences.

theFileMan(): MAXOPENFILES=974 MAX_SUB_FILE_NUM=16
Maximum size of a physical file is 2.0 GB, maximum size of a tmp-file is 32.0 GB


--------------------------------------------------------------
User input:
--------------------------------------------------------------

$molecule
0,2
C         -0.01114       -0.00000        0.01552
C         -0.09766       -0.00000        1.34199
H          0.95965       -0.00000       -0.47008
H         -0.91403        0.00000       -0.58541
H          0.80086        0.00000        1.95088
$end

$comment
neutral
$end

$xc_functional
C PBE   1.00
X wPBE  1.00
$end


$rem
SYMMETRY_DECOMPOSITION	0
LRC_DFT                 true
exchange 		general
BASIS                   g3large
omega			400
mem_static              760
max_scf_cycles          200
scf_final_print         1
sym_ignore              true
$end

--------------------------------------------------------------
 Writing REM_CC_EA            5
 ----------------------------------------------------
       Standard Nuclear Orientation (Angstroms)
    I     Atom         X            Y            Z
 ----------------------------------------------------
    1      C      -0.011140     0.000000     0.015520
    2      C      -0.097660     0.000000     1.341990
    3      H       0.959650     0.000000    -0.470080
    4      H      -0.914030     0.000000    -0.585410
    5      H       0.800860     0.000000     1.950880
 ----------------------------------------------------
 Nuclear Repulsion Energy =    28.3249355481 hartrees
 There are        8 alpha and        7 beta electrons
 Requested basis set is G3large
 There are 38 shells and 114 basis functions

Total QAlloc Memory Limit   2000 MB
Mega-Array Size       743 MB
MEM_STATIC part       760 MB

                       Distance Matrix (Angstroms)
             C (  1)   C (  2)   H (  3)   H (  4)
   C (  2)  1.329289
   H (  3)  1.085468  2.097976
   H (  4)  1.084586  2.093163  1.877226
   H (  5)  2.098800  1.085396  2.426162  3.061636
 
 A cutoff of  1.0D-08 yielded    733 shell pairs
 There are   6649 function pairs (  8156 Cartesian)
Evaluating contribution to one-electron hamiltonian from nuclear
 Smallest overlap matrix eigenvalue = 1.40E-04
 Multipole matrices computed through 2nd order

  Scale SEOQF with 1.000000e-01/1.000000e-01/1.000000e-01

 Standard Electronic Orientation quadrupole field applied
 Nucleus-field energy     =    -0.0000000015 hartrees
 Guess from superposition of atomic densities
 Warning:  Energy on first SCF cycle will be non-variational
 Long-range K will be added via erf
 Coulomb attenuation parameter = 0.4 bohr**(-1)
 An unrestricted Kohn-Sham SCF calculation will be
 performed using Pulay DIIS extrapolation
 Exchange:  wPBE + LR-HF      Correlation:  PBE
 Using SG-1 standard quadrature grid
 SCF converges when DIIS error is below 1.0E-05
 Requested basis set is G3large
 There are 38 shells and 114 basis functions
 A cutoff of  1.0D-08 yielded    733 shell pairs
 There are   6649 function pairs (  8156 Cartesian)
 ---------------------------------------
  Cycle       Energy         DIIS Error
 ---------------------------------------
    1     -78.1254311492      3.65E-02
    2     -77.8153491246      3.16E-03
    3     -77.8426252463      1.55E-03
    4     -77.8500938365      5.14E-04
    5     -77.8535024409      2.88E-04
    6     -77.8546921413      1.53E-04
    7     -77.8555568440      6.22E-05
    8     -77.8558656817      3.51E-05
    9     -77.8560262726      1.55E-05
   10     -77.8560742709      4.66E-06 Convergence criterion met
 ---------------------------------------
 One-Electron    Energy =  -159.5698966839
 Total Coulomb   Energy =    65.2065240295
 Alpha Exchange  Energy =    -1.5708297435
 Beta  Exchange  Energy =    -1.3772446868
 DFT   Exchange  Energy =    -8.4148173580
 DFT Correlation Energy =    -0.4547453747
 Nuclear Repu.   Energy =    28.3249355466
 Nuclear Attr.   Energy =  -237.0355189822
 Kinetic         Energy =    77.4656222983
 <S^2> = 0.7699
 SCF time:  CPU 25.37 s  wall 34.74 s
 Final Alpha MO Eigenvalues
            1           2           3           4           5           6
    1 -10.1412532 -10.1105614  -0.9194029  -0.7113159  -0.5986604  -0.5375096
            7           8           9          10          11          12
    1  -0.4074330  -0.3906874   0.0454557   0.0586815   0.0657676   0.0718384
           13
    1   0.1212136
 Final Beta MO Eigenvalues
            1           2           3           4           5           6
    1 -10.1258299 -10.1123192  -0.9019643  -0.6873014  -0.5763740  -0.5219605
            7           8           9          10          11          12
    1  -0.3976157   0.0045412   0.0471683   0.0591892   0.0672169   0.0831902
 Analysis of SCF Wavefunction
 
 --------------------------------------------------------------
                    Orbital Energies (a.u.)
 --------------------------------------------------------------
 
 Alpha MOs
 -- Occupied --
-10.141 -10.111  -0.919  -0.711  -0.599  -0.538  -0.407  -0.391
 -- Virtual --
  0.045   0.059   0.066   0.072   0.121   0.128   0.137   0.180
  0.181   0.183   0.200   0.217   0.229   0.262   0.331   0.436
  0.524   0.546   0.594   0.597   0.622   0.624   0.667   0.695
  0.705   0.736   0.746   0.759   0.822   0.850   0.904   0.999
  1.034   1.112   1.126   1.248   1.283   1.292   1.335   1.401
  1.463   1.518   1.528   1.576   1.625   1.725   2.500   2.571
  2.696   2.726   2.727   2.779   2.807   2.837   2.914   2.948
  2.957   3.030   3.144   3.155   3.217   3.226   3.282   3.329
  3.333   3.381   3.388   3.414   3.506   3.649   3.695   3.719
  3.755   3.813   4.070   4.168   4.188   4.311   4.395   4.432
  4.513   4.655   4.751   5.113   5.262   5.339   5.635   5.917
 23.763  24.637  27.195  27.387  27.598  28.125  28.176  28.274
 40.817  40.871  40.968  41.094  41.110  41.153  41.180  41.231
 41.282  41.315
 
 Beta MOs
 -- Occupied --
-10.126 -10.112  -0.902  -0.687  -0.576  -0.522  -0.398
 -- Virtual --
  0.005   0.047   0.059   0.067   0.083   0.122   0.136   0.143
  0.181   0.187   0.187   0.201   0.221   0.234   0.269   0.344
  0.449   0.539   0.559   0.598   0.606   0.629   0.648   0.682
  0.703   0.720   0.741   0.769   0.770   0.848   0.869   0.920
  1.004   1.053   1.116   1.133   1.265   1.300   1.304   1.359
  1.415   1.486   1.524   1.542   1.586   1.633   1.748   2.509
  2.584   2.710   2.739   2.739   2.789   2.834   2.846   2.944
  2.973   2.974   3.072   3.149   3.174   3.231   3.233   3.300
  3.351   3.400   3.407   3.410   3.444   3.555   3.668   3.713
  3.761   3.779   3.828   4.084   4.192   4.200   4.317   4.417
  4.446   4.533   4.678   4.764   5.128   5.284   5.357   5.641
  5.938  23.773  24.643  27.201  27.391  27.634  28.128  28.180
 28.277  40.824  40.900  40.965  41.112  41.117  41.153  41.191
 41.234  41.298  41.318
 --------------------------------------------------------------
 
          Ground-State Mulliken Net Atomic Charges

     Atom                 Charge (a.u.)    Spin (a.u.)
  --------------------------------------------------------
      1 C                    -0.210583      -0.168742
      2 C                    -0.081056       1.032358
      3 H                     0.090984       0.067233
      4 H                     0.094188       0.029884
      5 H                     0.106467       0.039267
  --------------------------------------------------------
  Sum of atomic charges =     0.000000
  Sum of spin   charges =     1.000000

 -----------------------------------------------------------------
                    Cartesian Multipole Moments
 -----------------------------------------------------------------
    Charge (ESU x 10^10)
                 0.0000
    Dipole Moment (Debye)
         X       0.7064      Y      -0.0001      Z      -0.4702
       Tot       0.8486
    Quadrupole Moments (Debye-Ang)
        XX     -11.9180     XY       0.0004     YY     -14.8993
        XZ       1.4164     YZ      -0.0004     ZZ     -12.5547
    Octapole Moments (Debye-Ang^2)
       XXX       1.2255    XXY       0.0000    XYY       0.1611
       YYY       0.0000    XXZ      -8.5347    XYZ       0.0003
       YYZ      -9.3256    XZZ       2.9293    YZZ      -0.0007
       ZZZ     -23.8284
    Hexadecapole Moments (Debye-Ang^3)
      XXXX     -23.2902   XXXY       0.0006   XXYY      -7.5619
      XYYY       0.0006   YYYY     -18.6048   XXXZ       0.9078
      XXYZ      -0.0002   XYYZ      -0.2207   YYYZ      -0.0005
      XXZZ     -18.1804   XYZZ       0.0010   YYZZ     -20.0458
      XZZZ       5.4022   YZZZ      -0.0019   ZZZZ     -93.4970
 -----------------------------------------------------------------
 Total job time:  34.86s(wall), 25.46s(cpu) 
 Tue Jun  4 15:38:44 2013

        *************************************************************
        *                                                           *
        *  Thank you very much for using Q-Chem.  Have a nice day.  *
        *                                                           *
        *************************************************************


0 sent ACK to 0 
now end server 0 ... 
 
**********************************************************************
Job 3 of 3 
**********************************************************************
 
Process 0 of 1 is on cl162.stfx.acenet.ca - thread support 1
initial socket setup ...start
initial socket setup ...done 
now start server 0 ... 

cmd = /usr/bin/ssh clhead /usr/local/qchem/bin/get_hostid 1518085351 > /scratch/tmp/6028531.1.medium.q/qchem4742/lic.dat
                  Welcome to Q-Chem
     A Quantum Leap Into The Future Of Chemistry

 Y. Shao, L. Fusti-Molnar, Y. Jung, J. Kussmann, C. Ochsenfeld,
 S. T. Brown, A. T. B. Gilbert, L. V. Slipchenko,S. V. Levchenko,
 D. P. O'Neill, R. A. DiStasio Jr., R. C. Lochan, T. Wang,
 G. J. O. Beran, N. A. Besley, J. M. Herbert, C. Y. Lin,
 T. Van Voorhis, S. H. Chien, A. Sodt, R. P. Steele, 
 V. A. Rassolov, P. E. Maslen, P. P. Korambath, R. D. Adamson,
 B. Austin, J. Baker, E. F. C. Byrd, H. Dachsel, R. J. Doerksen,
 A. Dreuw, B. D. Dunietz, A. D. Dutoi, T. R. Furlani,
 S. R. Gwaltney, A. Heyden, S. Hirata, C.-P. Hsu, G. Kedziora,
 R. Z. Khaliullin, P. Klunzinger, A. M. Lee, M. S. Lee, W. Liang,
 I. Lotan, N. Nair, B. Peters, E. I. Proynov, P. A. Pieniazek, 
 Y. M. Rhee, J. Ritchie, E. Rosta, C. D. Sherrill, 
 A. C. Simmonett, J. E. Subotnik, H. L. Woodcock III,
 W. Zhang, A. T. Bell, A. K. Chakraborty, D. M. Chipman,
 F. J. Keil, A. Warshel, W. J. Hehre, H. F. Schaefer III,
 J. Kong, A. I. Krylov, P. M. W. Gill, M. Head-Gordon,
 Q-Chem, Version 3.1, Q-Chem, Inc., Pittsburgh, PA (2007).

 Additional authors for Version 3.1: 
 Z. Gan, Y. Zhao, N. E. Schultz, D. Truhlar, E. Epifanovsky and M. Oana.

 Additional authors for Version 3.2: 
 R. Baer, B. R. Brooks, D. Casanova, J.-D. Chai, C.-L. Cheng, 
 C. Cramer, D. Crittenden, A. Ghysels, G. Hawkins, E. G. Hohenstein, 
 C. Kelley, W. Kurlancheek, D. Liotard, E. Livshits, P. Manohar, 
 A. Marenich, D. Neuhauser, R. Olson, M. A. Rohrdanz, K. S. Thanthiriwatte, 
 A. J. W. Thom, V. Vanovschi, C. F. Williams, Q. Wu and Z.-Q. You. 


 Intel X86 Linux Version

 Q-chem begins on Tue Jun  4 15:38:47 2013  

 Parallel job on  1  processors
Processing $rem in /usr/local/qchem/config/preferences.

theFileMan(): MAXOPENFILES=974 MAX_SUB_FILE_NUM=16
Maximum size of a physical file is 2.0 GB, maximum size of a tmp-file is 32.0 GB


--------------------------------------------------------------
User input:
--------------------------------------------------------------

$molecule
1,1
C         -0.01114       -0.00000        0.01552
C         -0.09766       -0.00000        1.34199
H          0.95965       -0.00000       -0.47008
H         -0.91403        0.00000       -0.58541
H          0.80086        0.00000        1.95088
$end

$comment
positive
$end

$xc_functional
C PBE   1.00
X wPBE  1.00
$end

$rem
SYMMETRY_DECOMPOSITION	0
LRC_DFT                 true
exchange 		general
BASIS                   g3large
omega			400
mem_static              760
max_scf_cycles          200
scf_final_print         1
sym_ignore              true
$end

--------------------------------------------------------------
 Writing REM_CC_EA            5
 ----------------------------------------------------
       Standard Nuclear Orientation (Angstroms)
    I     Atom         X            Y            Z
 ----------------------------------------------------
    1      C      -0.011140     0.000000     0.015520
    2      C      -0.097660     0.000000     1.341990
    3      H       0.959650     0.000000    -0.470080
    4      H      -0.914030     0.000000    -0.585410
    5      H       0.800860     0.000000     1.950880
 ----------------------------------------------------
 Nuclear Repulsion Energy =    28.3249355481 hartrees
 There are        7 alpha and        7 beta electrons
 Requested basis set is G3large
 There are 38 shells and 114 basis functions

Total QAlloc Memory Limit   2000 MB
Mega-Array Size       743 MB
MEM_STATIC part       760 MB

                       Distance Matrix (Angstroms)
             C (  1)   C (  2)   H (  3)   H (  4)
   C (  2)  1.329289
   H (  3)  1.085468  2.097976
   H (  4)  1.084586  2.093163  1.877226
   H (  5)  2.098800  1.085396  2.426162  3.061636
 
 A cutoff of  1.0D-08 yielded    733 shell pairs
 There are   6649 function pairs (  8156 Cartesian)
Evaluating contribution to one-electron hamiltonian from nuclear
 Smallest overlap matrix eigenvalue = 1.40E-04
 Multipole matrices computed through 2nd order

  Scale SEOQF with 1.000000e-01/1.000000e-01/1.000000e-01

 Standard Electronic Orientation quadrupole field applied
 Nucleus-field energy     =    -0.0000000015 hartrees
 Guess from superposition of atomic densities
 Warning:  Energy on first SCF cycle will be non-variational
 Long-range K will be added via erf
 Coulomb attenuation parameter = 0.4 bohr**(-1)
 A restricted Kohn-Sham SCF calculation will be
 performed using Pulay DIIS extrapolation
 Exchange:  wPBE + LR-HF      Correlation:  PBE
 Using SG-1 standard quadrature grid
 SCF converges when DIIS error is below 1.0E-05
 Requested basis set is G3large
 There are 38 shells and 114 basis functions
 A cutoff of  1.0D-08 yielded    733 shell pairs
 There are   6649 function pairs (  8156 Cartesian)
 Warning!  Inaccurate integrated density:
   Number of electrons =    14
   Numerical integral  =    14.999933654394
   Relative error      =     7.1423832457 %
 ---------------------------------------
  Cycle       Energy         DIIS Error
 ---------------------------------------
    1     -78.1254311492      3.65E-02
    2     -77.4103660709      4.34E-03
    3     -77.4344548367      3.80E-03
    4     -77.4571158609      8.16E-04
    5     -77.4596858170      3.22E-04
    6     -77.4607658941      2.30E-04
    7     -77.4621559218      1.63E-04
    8     -77.4634564882      8.01E-05
    9     -77.4636259660      2.56E-05
   10     -77.4636496254      8.97E-06 Convergence criterion met
 ---------------------------------------
 One-Electron    Energy =  -154.6936234372
 Total Coulomb   Energy =    60.3560955393
 Alpha Exchange  Energy =    -1.3836260832
 Beta  Exchange  Energy =    -1.3836260832
 DFT   Exchange  Energy =    -8.2568180685
 DFT Correlation Energy =    -0.4269870392
 Nuclear Repu.   Energy =    28.3249355466
 Nuclear Attr.   Energy =  -231.7256477930
 Kinetic         Energy =    77.0320243558
 SCF time:  CPU 21.00 s  wall 30.27 s
 Final Alpha MO Eigenvalues
            1           2           3           4           5           6
    1 -10.5289407 -10.4334832  -1.2351992  -1.0103953  -0.8951134  -0.8392150
            7           8           9          10          11          12
    1  -0.7189169  -0.3829305  -0.2043732  -0.1164936  -0.0909971  -0.0823185
 Analysis of SCF Wavefunction
 
 --------------------------------------------------------------
                    Orbital Energies (a.u.)
 --------------------------------------------------------------
 
 Alpha MOs
 -- Occupied --
-10.529 -10.433  -1.235  -1.010  -0.895  -0.839  -0.719
 -- Virtual --
 -0.383  -0.204  -0.116  -0.091  -0.082  -0.054  -0.036  -0.027
 -0.008   0.001   0.018   0.027   0.037   0.041   0.059   0.127
  0.191   0.288   0.304   0.321   0.351   0.371   0.376   0.426
  0.442   0.459   0.483   0.492   0.500   0.547   0.596   0.645
  0.745   0.770   0.860   0.862   0.986   1.018   1.022   1.063
  1.135   1.195   1.251   1.260   1.307   1.363   1.452   2.205
  2.281   2.400   2.404   2.429   2.461   2.499   2.525   2.604
  2.637   2.645   2.714   2.839   2.847   2.900   2.918   2.975
  3.019   3.024   3.068   3.082   3.103   3.193   3.338   3.379
  3.407   3.437   3.508   3.779   3.856   3.885   4.021   4.090
  4.129   4.194   4.346   4.430   4.792   4.953   5.029   5.340
  5.601  23.405  24.293  26.833  27.044  27.218  27.766  27.840
 27.942  40.459  40.488  40.642  40.713  40.741  40.808  40.826
 40.889  40.925  40.985
 --------------------------------------------------------------
 
          Ground-State Mulliken Net Atomic Charges

     Atom                 Charge (a.u.)
  ----------------------------------------
      1 C                     0.016962
      2 C                     0.329832
      3 H                     0.220013
      4 H                     0.184994
      5 H                     0.248198
  ----------------------------------------
  Sum of atomic charges =     1.000000

 -----------------------------------------------------------------
                    Cartesian Multipole Moments
 -----------------------------------------------------------------
    Charge (ESU x 10^10)
                 4.8032
    Dipole Moment (Debye)
         X       0.3604      Y       0.0004      Z       3.3870
       Tot       3.4061
    Quadrupole Moments (Debye-Ang)
        XX      -6.8308     XY      -0.0004     YY     -12.3604
        XZ       0.4692     YZ       0.0007     ZZ      -1.6956
    Octapole Moments (Debye-Ang^2)
       XXX       1.1695    XXY       0.0003    XYY      -0.0290
       YYY       0.0004    XXZ      -4.7154    XYZ      -0.0009
       YYZ      -7.8340    XZZ       1.5638    YZZ       0.0013
       ZZZ      -5.0675
    Hexadecapole Moments (Debye-Ang^3)
      XXXX     -12.3834   XXXY      -0.0002   XXYY      -5.0149
      XYYY      -0.0003   YYYY     -12.5796   XXXZ       0.2697
      XXYZ       0.0004   XYYZ      -0.6172   YYYZ       0.0007
      XXZZ      -6.7725   XYZZ      -0.0011   YYZZ     -15.3365
      XZZZ       3.1157   YZZZ       0.0027   ZZZZ     -45.3416
 -----------------------------------------------------------------
 Total job time:  30.38s(wall), 21.08s(cpu) 
 Tue Jun  4 15:39:18 2013

        *************************************************************
        *                                                           *
        *  Thank you very much for using Q-Chem.  Have a nice day.  *
        *                                                           *
        *************************************************************


0 sent ACK to 0 
now end server 0 ... 
