Process 0 of 1 is on cl105.stfx.acenet.ca - thread support 1
initial socket setup ...start
initial socket setup ...done 
now start server 0 ... 

cmd = /usr/bin/ssh clhead /usr/local/qchem/bin/get_hostid 1246880643 > /scratch/tmp/6021792.1.short.q/qchem12122/lic.dat
                  Welcome to Q-Chem
     A Quantum Leap Into The Future Of Chemistry

 Y. Shao, L. Fusti-Molnar, Y. Jung, J. Kussmann, C. Ochsenfeld,
 S. T. Brown, A. T. B. Gilbert, L. V. Slipchenko,S. V. Levchenko,
 D. P. O'Neill, R. A. DiStasio Jr., R. C. Lochan, T. Wang,
 G. J. O. Beran, N. A. Besley, J. M. Herbert, C. Y. Lin,
 T. Van Voorhis, S. H. Chien, A. Sodt, R. P. Steele, 
 V. A. Rassolov, P. E. Maslen, P. P. Korambath, R. D. Adamson,
 B. Austin, J. Baker, E. F. C. Byrd, H. Dachsel, R. J. Doerksen,
 A. Dreuw, B. D. Dunietz, A. D. Dutoi, T. R. Furlani,
 S. R. Gwaltney, A. Heyden, S. Hirata, C.-P. Hsu, G. Kedziora,
 R. Z. Khaliullin, P. Klunzinger, A. M. Lee, M. S. Lee, W. Liang,
 I. Lotan, N. Nair, B. Peters, E. I. Proynov, P. A. Pieniazek, 
 Y. M. Rhee, J. Ritchie, E. Rosta, C. D. Sherrill, 
 A. C. Simmonett, J. E. Subotnik, H. L. Woodcock III,
 W. Zhang, A. T. Bell, A. K. Chakraborty, D. M. Chipman,
 F. J. Keil, A. Warshel, W. J. Hehre, H. F. Schaefer III,
 J. Kong, A. I. Krylov, P. M. W. Gill, M. Head-Gordon,
 Q-Chem, Version 3.1, Q-Chem, Inc., Pittsburgh, PA (2007).

 Additional authors for Version 3.1: 
 Z. Gan, Y. Zhao, N. E. Schultz, D. Truhlar, E. Epifanovsky and M. Oana.

 Additional authors for Version 3.2: 
 R. Baer, B. R. Brooks, D. Casanova, J.-D. Chai, C.-L. Cheng, 
 C. Cramer, D. Crittenden, A. Ghysels, G. Hawkins, E. G. Hohenstein, 
 C. Kelley, W. Kurlancheek, D. Liotard, E. Livshits, P. Manohar, 
 A. Marenich, D. Neuhauser, R. Olson, M. A. Rohrdanz, K. S. Thanthiriwatte, 
 A. J. W. Thom, V. Vanovschi, C. F. Williams, Q. Wu and Z.-Q. You. 


 Intel X86 Linux Version

 Q-chem begins on Wed May 29 17:01:21 2013  

 Parallel job on  1  processors
Processing $rem in /usr/local/qchem/config/preferences.

theFileMan(): MAXOPENFILES=974 MAX_SUB_FILE_NUM=16
Maximum size of a physical file is 2.0 GB, maximum size of a tmp-file is 32.0 GB


--------------------------------------------------------------
User input:
--------------------------------------------------------------

$molecule
-1,2
N         -0.00003        0.00000       -0.03208
H          0.94356        0.00000       -0.38725
H         -0.47177       -0.81721       -0.38724
H         -0.47177        0.81721       -0.38724
$end

$comment
negative
$end

$xc_functional
C PBE   1.00
X wPBE  1.00
$end

$rem
SYMMETRY_DECOMPOSITION	0
exchange 		general
LRC_DFT                 true
BASIS                   g3large
omega			450
mem_static              760
max_scf_cycles          200
scf_final_print         1
sym_ignore              true
$end

--------------------------------------------------------------
 Writing REM_CC_EA            4
 ----------------------------------------------------
       Standard Nuclear Orientation (Angstroms)
    I     Atom         X            Y            Z
 ----------------------------------------------------
    1      N      -0.000030     0.000000    -0.032080
    2      H       0.943560     0.000000    -0.387250
    3      H      -0.471770    -0.817210    -0.387240
    4      H      -0.471770     0.817210    -0.387240
 ----------------------------------------------------
 Nuclear Repulsion Energy =    11.9934652368 hartrees
 There are        6 alpha and        5 beta electrons
 Requested basis set is G3large
 There are 28 shells and 72 basis functions

Total QAlloc Memory Limit   2000 MB
Mega-Array Size       743 MB
MEM_STATIC part       760 MB

                       Distance Matrix (Angstroms)
             N (  1)   H (  2)   H (  3)
   H (  2)  1.008220
   H (  3)  1.008221  1.634317
   H (  4)  1.008221  1.634317  1.634420
 
 A cutoff of  1.0D-08 yielded    406 shell pairs
 There are   2724 function pairs (  3216 Cartesian)
Evaluating contribution to one-electron hamiltonian from nuclear
 Smallest overlap matrix eigenvalue = 1.75E-03
 Multipole matrices computed through 2nd order

  Scale SEOQF with 1.000000e-01/1.000000e-01/1.000000e-01

 Standard Electronic Orientation quadrupole field applied
 Guess from superposition of atomic densities
 Warning:  Energy on first SCF cycle will be non-variational
 Long-range K will be added via erf
 Coulomb attenuation parameter = 0.45 bohr**(-1)
 An unrestricted Kohn-Sham SCF calculation will be
 performed using Pulay DIIS extrapolation
 Exchange:  wPBE + LR-HF      Correlation:  PBE
 Using SG-1 standard quadrature grid
 SCF converges when DIIS error is below 1.0E-05
 Requested basis set is G3large
 There are 28 shells and 72 basis functions
 A cutoff of  1.0D-08 yielded    406 shell pairs
 There are   2724 function pairs (  3216 Cartesian)
 Warning!  Inaccurate integrated density:
   Number of electrons =    11
   Numerical integral  =     9.999985442077
   Relative error      =    -9.0910414357 %
 ---------------------------------------
  Cycle       Energy         DIIS Error
 ---------------------------------------
    1     -56.5149366463      5.00E-02
    2     -56.4456390997      9.59E-03
    3     -56.4742104415      8.86E-03
    4     -56.5149032811      6.13E-04
    5     -56.5164134606      1.89E-04
    6     -56.5166799597      6.12E-05
    7     -56.5167077242      1.39E-05
    8     -56.5167092231      3.37E-06 Convergence criterion met
 ---------------------------------------
 One-Electron    Energy =  -101.5094228238
 Total Coulomb   Energy =    41.0917429813
 Alpha Exchange  Energy =    -1.1645277666
 Beta  Exchange  Energy =    -1.0890858165
 DFT   Exchange  Energy =    -5.5153584028
 DFT Correlation Energy =    -0.3235226316
 Nuclear Repu.   Energy =    11.9934652369
 Nuclear Attr.   Energy =  -157.9118578223
 Kinetic         Energy =    56.4024349985
 <S^2> = 0.7503
 SCF time:  CPU 9.29 s  wall 10.34 s
 Final Alpha MO Eigenvalues
            1           2           3           4           5           6
    1 -14.0215948  -0.8405579  -0.4273505  -0.4273280  -0.2288142   0.0302171
            7           8           9          10          11
    1   0.1670606   0.1670650   0.3005155   0.3453827   0.3453850
 Final Beta MO Eigenvalues
            1           2           3           4           5           6
    1 -14.0208432  -0.8378647  -0.4262199  -0.4261974  -0.2281293   0.1612697
            7           8           9          10
    1   0.1867237   0.1867287   0.3085632   0.3420960
 Analysis of SCF Wavefunction
 
 --------------------------------------------------------------
                    Orbital Energies (a.u.)
 --------------------------------------------------------------
 
 Alpha MOs
 -- Occupied --
-14.022  -0.841  -0.427  -0.427  -0.229   0.030
 -- Virtual --
  0.167   0.167   0.301   0.345   0.345   0.365   0.432   0.432
  0.441   0.749   0.749   0.857   0.857   0.883   0.938   0.972
  0.972   1.160   1.211   1.312   1.312   1.356   1.591   1.591
  1.676   1.845   1.845   1.939   2.074   2.074   2.806   2.806
  2.862   3.593   3.700   3.700   3.845   3.887   3.887   4.028
  4.028   4.123   4.329   4.622   4.622   4.699   5.006   5.006
  5.120   5.283   5.387   5.388   5.669   5.669   5.926   6.759
  6.759  35.811  37.765  38.443  38.443  40.783  40.821  40.890
 40.959  41.001
 
 Beta MOs
 -- Occupied --
-14.021  -0.838  -0.426  -0.426  -0.228
 -- Virtual --
  0.161   0.187   0.187   0.309   0.342   0.342   0.375   0.435
  0.435   0.440   0.746   0.746   0.859   0.859   0.881   0.938
  0.969   0.969   1.160   1.213   1.314   1.314   1.356   1.592
  1.592   1.677   1.846   1.846   1.940   2.073   2.073   2.806
  2.806   2.861   3.593   3.701   3.701   3.845   3.887   3.887
  4.029   4.029   4.123   4.331   4.623   4.623   4.699   5.006
  5.006   5.121   5.284   5.389   5.389   5.670   5.670   5.928
  6.761   6.761  35.812  37.766  38.444  38.444  40.783  40.821
 40.890  40.959  41.001
 --------------------------------------------------------------
 
          Ground-State Mulliken Net Atomic Charges

     Atom                 Charge (a.u.)    Spin (a.u.)
  --------------------------------------------------------
      1 N                     0.650270      -1.136917
      2 H                    -0.549966       0.712190
      3 H                    -0.550113       0.712323
      4 H                    -0.550192       0.712404
  --------------------------------------------------------
  Sum of atomic charges =    -1.000000
  Sum of spin   charges =     1.000000

 -----------------------------------------------------------------
                    Cartesian Multipole Moments
 -----------------------------------------------------------------
    Charge (ESU x 10^10)
                -4.8032
    Dipole Moment (Debye)
         X       0.0018      Y      -0.0003      Z       1.6137
       Tot       1.6137
    Quadrupole Moments (Debye-Ang)
        XX     -25.8341     XY       0.0001     YY     -25.8349
        XZ      -0.0005     YZ       0.0002     ZZ     -25.9085
    Octapole Moments (Debye-Ang^2)
       XXX      -0.8717    XXY      -0.0009    XYY       0.8913
       YYY      -0.0026    XXZ      10.5624    XYZ      -0.0001
       YYZ      10.5627    XZZ       0.0046    YZZ      -0.0008
       ZZZ      28.3313
    Hexadecapole Moments (Debye-Ang^3)
      XXXX    -192.0667   XXXY       0.0011   XXYY     -64.0260
      XYYY       0.0012   YYYY    -192.0872   XXXZ       0.3278
      XXYZ       0.0005   XYYZ      -0.3331   YYYZ       0.0014
      XXZZ     -59.2627   XYZZ       0.0004   YYZZ     -59.2660
      XZZZ      -0.0036   YZZZ       0.0013   ZZZZ    -162.2015
 -----------------------------------------------------------------
 Total job time:  10.54s(wall), 9.36s(cpu) 
 Wed May 29 17:01:31 2013

        *************************************************************
        *                                                           *
        *  Thank you very much for using Q-Chem.  Have a nice day.  *
        *                                                           *
        *************************************************************


0 sent ACK to 0 
now end server 0 ... 
 
**********************************************************************
Job 2 of 3 
**********************************************************************
 
Process 0 of 1 is on cl105.stfx.acenet.ca - thread support 1
initial socket setup ...start
initial socket setup ...done 
now start server 0 ... 

cmd = /usr/bin/ssh clhead /usr/local/qchem/bin/get_hostid 1599085230 > /scratch/tmp/6021792.1.short.q/qchem12122/lic.dat
                  Welcome to Q-Chem
     A Quantum Leap Into The Future Of Chemistry

 Y. Shao, L. Fusti-Molnar, Y. Jung, J. Kussmann, C. Ochsenfeld,
 S. T. Brown, A. T. B. Gilbert, L. V. Slipchenko,S. V. Levchenko,
 D. P. O'Neill, R. A. DiStasio Jr., R. C. Lochan, T. Wang,
 G. J. O. Beran, N. A. Besley, J. M. Herbert, C. Y. Lin,
 T. Van Voorhis, S. H. Chien, A. Sodt, R. P. Steele, 
 V. A. Rassolov, P. E. Maslen, P. P. Korambath, R. D. Adamson,
 B. Austin, J. Baker, E. F. C. Byrd, H. Dachsel, R. J. Doerksen,
 A. Dreuw, B. D. Dunietz, A. D. Dutoi, T. R. Furlani,
 S. R. Gwaltney, A. Heyden, S. Hirata, C.-P. Hsu, G. Kedziora,
 R. Z. Khaliullin, P. Klunzinger, A. M. Lee, M. S. Lee, W. Liang,
 I. Lotan, N. Nair, B. Peters, E. I. Proynov, P. A. Pieniazek, 
 Y. M. Rhee, J. Ritchie, E. Rosta, C. D. Sherrill, 
 A. C. Simmonett, J. E. Subotnik, H. L. Woodcock III,
 W. Zhang, A. T. Bell, A. K. Chakraborty, D. M. Chipman,
 F. J. Keil, A. Warshel, W. J. Hehre, H. F. Schaefer III,
 J. Kong, A. I. Krylov, P. M. W. Gill, M. Head-Gordon,
 Q-Chem, Version 3.1, Q-Chem, Inc., Pittsburgh, PA (2007).

 Additional authors for Version 3.1: 
 Z. Gan, Y. Zhao, N. E. Schultz, D. Truhlar, E. Epifanovsky and M. Oana.

 Additional authors for Version 3.2: 
 R. Baer, B. R. Brooks, D. Casanova, J.-D. Chai, C.-L. Cheng, 
 C. Cramer, D. Crittenden, A. Ghysels, G. Hawkins, E. G. Hohenstein, 
 C. Kelley, W. Kurlancheek, D. Liotard, E. Livshits, P. Manohar, 
 A. Marenich, D. Neuhauser, R. Olson, M. A. Rohrdanz, K. S. Thanthiriwatte, 
 A. J. W. Thom, V. Vanovschi, C. F. Williams, Q. Wu and Z.-Q. You. 


 Intel X86 Linux Version

 Q-chem begins on Wed May 29 17:01:35 2013  

 Parallel job on  1  processors
Processing $rem in /usr/local/qchem/config/preferences.

theFileMan(): MAXOPENFILES=974 MAX_SUB_FILE_NUM=16
Maximum size of a physical file is 2.0 GB, maximum size of a tmp-file is 32.0 GB


--------------------------------------------------------------
User input:
--------------------------------------------------------------

$molecule
0,1
N         -0.00003        0.00000       -0.03208
H          0.94356        0.00000       -0.38725
H         -0.47177       -0.81721       -0.38724
H         -0.47177        0.81721       -0.38724
$end

$comment
neutral
$end

$xc_functional
C PBE   1.00
X wPBE  1.00
$end


$rem
SYMMETRY_DECOMPOSITION	0
LRC_DFT                 true
exchange 		general
BASIS                   g3large
omega			450
mem_static              760
max_scf_cycles          200
scf_final_print         1
sym_ignore              true
$end

--------------------------------------------------------------
 Writing REM_CC_EA            4
 ----------------------------------------------------
       Standard Nuclear Orientation (Angstroms)
    I     Atom         X            Y            Z
 ----------------------------------------------------
    1      N      -0.000030     0.000000    -0.032080
    2      H       0.943560     0.000000    -0.387250
    3      H      -0.471770    -0.817210    -0.387240
    4      H      -0.471770     0.817210    -0.387240
 ----------------------------------------------------
 Nuclear Repulsion Energy =    11.9934652368 hartrees
 There are        5 alpha and        5 beta electrons
 Requested basis set is G3large
 There are 28 shells and 72 basis functions

Total QAlloc Memory Limit   2000 MB
Mega-Array Size       743 MB
MEM_STATIC part       760 MB

                       Distance Matrix (Angstroms)
             N (  1)   H (  2)   H (  3)
   H (  2)  1.008220
   H (  3)  1.008221  1.634317
   H (  4)  1.008221  1.634317  1.634420
 
 A cutoff of  1.0D-08 yielded    406 shell pairs
 There are   2724 function pairs (  3216 Cartesian)
Evaluating contribution to one-electron hamiltonian from nuclear
 Smallest overlap matrix eigenvalue = 1.75E-03
 Multipole matrices computed through 2nd order

  Scale SEOQF with 1.000000e-01/1.000000e-01/1.000000e-01

 Standard Electronic Orientation quadrupole field applied
 Guess from superposition of atomic densities
 Warning:  Energy on first SCF cycle will be non-variational
 Long-range K will be added via erf
 Coulomb attenuation parameter = 0.45 bohr**(-1)
 A restricted Kohn-Sham SCF calculation will be
 performed using Pulay DIIS extrapolation
 Exchange:  wPBE + LR-HF      Correlation:  PBE
 Using SG-1 standard quadrature grid
 SCF converges when DIIS error is below 1.0E-05
 Requested basis set is G3large
 There are 28 shells and 72 basis functions
 A cutoff of  1.0D-08 yielded    406 shell pairs
 There are   2724 function pairs (  3216 Cartesian)
 ---------------------------------------
  Cycle       Energy         DIIS Error
 ---------------------------------------
    1     -56.5149366463      5.00E-02
    2     -56.5126899708      8.32E-03
    3     -56.5300088975      6.63E-03
    4     -56.5510195482      3.97E-04
    5     -56.5511286658      1.00E-04
    6     -56.5511427503      2.02E-05
    7     -56.5511435493      3.29E-06 Convergence criterion met
 ---------------------------------------
 One-Electron    Energy =   -99.8011183028
 Total Coulomb   Energy =    39.2649096935
 Alpha Exchange  Energy =    -1.0908181657
 Beta  Exchange  Energy =    -1.0908181657
 DFT   Exchange  Energy =    -5.5107411090
 DFT Correlation Energy =    -0.3160227365
 Nuclear Repu.   Energy =    11.9934652369
 Nuclear Attr.   Energy =  -156.1287535142
 Kinetic         Energy =    56.3276352114
 SCF time:  CPU 6.81 s  wall 7.08 s
 Final Alpha MO Eigenvalues
            1           2           3           4           5           6
    1 -14.1974652  -1.0148209  -0.6024054  -0.6023815  -0.4004396   0.0405998
            7           8           9          10
    1   0.0716299   0.0716316   0.1743928   0.2105807
 Analysis of SCF Wavefunction
 
 --------------------------------------------------------------
                    Orbital Energies (a.u.)
 --------------------------------------------------------------
 
 Alpha MOs
 -- Occupied --
-14.197  -1.015  -0.602  -0.602  -0.400
 -- Virtual --
  0.041   0.072   0.072   0.174   0.211   0.211   0.228   0.279
  0.279   0.293   0.584   0.584   0.685   0.685   0.718   0.769
  0.811   0.811   0.998   1.036   1.140   1.140   1.186   1.418
  1.418   1.503   1.672   1.672   1.767   1.905   1.905   2.632
  2.632   2.686   3.417   3.525   3.525   3.670   3.711   3.711
  3.852   3.852   3.950   4.154   4.446   4.446   4.523   4.830
  4.830   4.945   5.111   5.214   5.214   5.497   5.497   5.752
  6.584   6.584  35.635  37.590  38.268  38.268  40.608  40.645
 40.714  40.784  40.825
 --------------------------------------------------------------
 
          Ground-State Mulliken Net Atomic Charges

     Atom                 Charge (a.u.)
  ----------------------------------------
      1 N                    -0.486804
      2 H                     0.162274
      3 H                     0.162264
      4 H                     0.162266
  ----------------------------------------
  Sum of atomic charges =     0.000000

 -----------------------------------------------------------------
                    Cartesian Multipole Moments
 -----------------------------------------------------------------
    Charge (ESU x 10^10)
                 0.0000
    Dipole Moment (Debye)
         X       0.0001      Y       0.0000      Z      -1.6057
       Tot       1.6057
    Quadrupole Moments (Debye-Ang)
        XX      -6.1765     XY       0.0000     YY      -6.1760
        XZ      -0.0001     YZ       0.0000     ZZ      -8.9777
    Octapole Moments (Debye-Ang^2)
       XXX       1.0070    XXY       0.0000    XYY      -1.0064
       YYY       0.0000    XXZ      -0.0888    XYZ       0.0000
       YYZ      -0.0890    XZZ       0.0003    YZZ       0.0000
       ZZZ       2.2588
    Hexadecapole Moments (Debye-Ang^3)
      XXXX     -10.0730   XXXY       0.0000   XXYY      -3.3577
      XYYY       0.0000   YYYY     -10.0727   XXXZ      -0.4993
      XXYZ       0.0000   XYYZ       0.4993   YYYZ       0.0000
      XXZZ      -3.8511   XYZZ       0.0000   YYZZ      -3.8511
      XZZZ       0.0000   YZZZ       0.0000   ZZZZ     -13.2439
 -----------------------------------------------------------------
 Total job time:  7.15s(wall), 6.88s(cpu) 
 Wed May 29 17:01:42 2013

        *************************************************************
        *                                                           *
        *  Thank you very much for using Q-Chem.  Have a nice day.  *
        *                                                           *
        *************************************************************


0 sent ACK to 0 
now end server 0 ... 
 
**********************************************************************
Job 3 of 3 
**********************************************************************
 
Process 0 of 1 is on cl105.stfx.acenet.ca - thread support 1
initial socket setup ...start
initial socket setup ...done 
now start server 0 ... 

cmd = /usr/bin/ssh clhead /usr/local/qchem/bin/get_hostid 685298540 > /scratch/tmp/6021792.1.short.q/qchem12122/lic.dat
                  Welcome to Q-Chem
     A Quantum Leap Into The Future Of Chemistry

 Y. Shao, L. Fusti-Molnar, Y. Jung, J. Kussmann, C. Ochsenfeld,
 S. T. Brown, A. T. B. Gilbert, L. V. Slipchenko,S. V. Levchenko,
 D. P. O'Neill, R. A. DiStasio Jr., R. C. Lochan, T. Wang,
 G. J. O. Beran, N. A. Besley, J. M. Herbert, C. Y. Lin,
 T. Van Voorhis, S. H. Chien, A. Sodt, R. P. Steele, 
 V. A. Rassolov, P. E. Maslen, P. P. Korambath, R. D. Adamson,
 B. Austin, J. Baker, E. F. C. Byrd, H. Dachsel, R. J. Doerksen,
 A. Dreuw, B. D. Dunietz, A. D. Dutoi, T. R. Furlani,
 S. R. Gwaltney, A. Heyden, S. Hirata, C.-P. Hsu, G. Kedziora,
 R. Z. Khaliullin, P. Klunzinger, A. M. Lee, M. S. Lee, W. Liang,
 I. Lotan, N. Nair, B. Peters, E. I. Proynov, P. A. Pieniazek, 
 Y. M. Rhee, J. Ritchie, E. Rosta, C. D. Sherrill, 
 A. C. Simmonett, J. E. Subotnik, H. L. Woodcock III,
 W. Zhang, A. T. Bell, A. K. Chakraborty, D. M. Chipman,
 F. J. Keil, A. Warshel, W. J. Hehre, H. F. Schaefer III,
 J. Kong, A. I. Krylov, P. M. W. Gill, M. Head-Gordon,
 Q-Chem, Version 3.1, Q-Chem, Inc., Pittsburgh, PA (2007).

 Additional authors for Version 3.1: 
 Z. Gan, Y. Zhao, N. E. Schultz, D. Truhlar, E. Epifanovsky and M. Oana.

 Additional authors for Version 3.2: 
 R. Baer, B. R. Brooks, D. Casanova, J.-D. Chai, C.-L. Cheng, 
 C. Cramer, D. Crittenden, A. Ghysels, G. Hawkins, E. G. Hohenstein, 
 C. Kelley, W. Kurlancheek, D. Liotard, E. Livshits, P. Manohar, 
 A. Marenich, D. Neuhauser, R. Olson, M. A. Rohrdanz, K. S. Thanthiriwatte, 
 A. J. W. Thom, V. Vanovschi, C. F. Williams, Q. Wu and Z.-Q. You. 


 Intel X86 Linux Version

 Q-chem begins on Wed May 29 17:01:45 2013  

 Parallel job on  1  processors
Processing $rem in /usr/local/qchem/config/preferences.

theFileMan(): MAXOPENFILES=974 MAX_SUB_FILE_NUM=16
Maximum size of a physical file is 2.0 GB, maximum size of a tmp-file is 32.0 GB


--------------------------------------------------------------
User input:
--------------------------------------------------------------

$molecule
1,2
N         -0.00003        0.00000       -0.03208
H          0.94356        0.00000       -0.38725
H         -0.47177       -0.81721       -0.38724
H         -0.47177        0.81721       -0.38724
$end

$comment
positive
$end

$xc_functional
C PBE   1.00
X wPBE  1.00
$end

$rem
SYMMETRY_DECOMPOSITION	0
LRC_DFT                 true
exchange 		general
BASIS                   g3large
omega			450
mem_static              760
max_scf_cycles          200
scf_final_print         1
sym_ignore              true
$end

--------------------------------------------------------------
 Writing REM_CC_EA            4
 ----------------------------------------------------
       Standard Nuclear Orientation (Angstroms)
    I     Atom         X            Y            Z
 ----------------------------------------------------
    1      N      -0.000030     0.000000    -0.032080
    2      H       0.943560     0.000000    -0.387250
    3      H      -0.471770    -0.817210    -0.387240
    4      H      -0.471770     0.817210    -0.387240
 ----------------------------------------------------
 Nuclear Repulsion Energy =    11.9934652368 hartrees
 There are        5 alpha and        4 beta electrons
 Requested basis set is G3large
 There are 28 shells and 72 basis functions

Total QAlloc Memory Limit   2000 MB
Mega-Array Size       743 MB
MEM_STATIC part       760 MB

                       Distance Matrix (Angstroms)
             N (  1)   H (  2)   H (  3)
   H (  2)  1.008220
   H (  3)  1.008221  1.634317
   H (  4)  1.008221  1.634317  1.634420
 
 A cutoff of  1.0D-08 yielded    406 shell pairs
 There are   2724 function pairs (  3216 Cartesian)
Evaluating contribution to one-electron hamiltonian from nuclear
 Smallest overlap matrix eigenvalue = 1.75E-03
 Multipole matrices computed through 2nd order

  Scale SEOQF with 1.000000e-01/1.000000e-01/1.000000e-01

 Standard Electronic Orientation quadrupole field applied
 Guess from superposition of atomic densities
 Warning:  Energy on first SCF cycle will be non-variational
 Long-range K will be added via erf
 Coulomb attenuation parameter = 0.45 bohr**(-1)
 An unrestricted Kohn-Sham SCF calculation will be
 performed using Pulay DIIS extrapolation
 Exchange:  wPBE + LR-HF      Correlation:  PBE
 Using SG-1 standard quadrature grid
 SCF converges when DIIS error is below 1.0E-05
 Requested basis set is G3large
 There are 28 shells and 72 basis functions
 A cutoff of  1.0D-08 yielded    406 shell pairs
 There are   2724 function pairs (  3216 Cartesian)
 Warning!  Inaccurate integrated density:
   Number of electrons =     9
   Numerical integral  =     9.999985442077
   Relative error      =    11.1109493564 %
 ---------------------------------------
  Cycle       Energy         DIIS Error
 ---------------------------------------
    1     -56.5149366463      5.00E-02
    2     -56.1187645638      5.83E-03
    3     -56.1467803328      3.48E-03
    4     -56.1524860140      4.18E-04
    5     -56.1527415510      7.68E-05
    6     -56.1527676249      2.79E-05
    7     -56.1527738240      8.17E-06 Convergence criterion met
 ---------------------------------------
 One-Electron    Energy =   -95.6188728556
 Total Coulomb   Energy =    35.1753364568
 Alpha Exchange  Energy =    -1.1142361448
 Beta  Exchange  Energy =    -0.8925624300
 DFT   Exchange  Energy =    -5.4192560859
 DFT Correlation Energy =    -0.2766480015
 Nuclear Repu.   Energy =    11.9934652369
 Nuclear Attr.   Energy =  -151.6866071982
 Kinetic         Energy =    56.0677343426
 <S^2> = 0.7529
 SCF time:  CPU 8.05 s  wall 8.26 s
 Final Alpha MO Eigenvalues
            1           2           3           4           5           6
    1 -14.6748255  -1.4481172  -1.0107706  -1.0107484  -0.9010589  -0.1605131
            7           8           9          10
    1  -0.0994529  -0.0994516  -0.0533545  -0.0256013
 Final Beta MO Eigenvalues
            1           2           3           4           5           6
    1 -14.6545218  -1.3914979  -0.9922989  -0.9922736  -0.3916090  -0.1557667
            7           8           9
    1  -0.0966289  -0.0966269  -0.0355306
 Analysis of SCF Wavefunction
 
 --------------------------------------------------------------
                    Orbital Energies (a.u.)
 --------------------------------------------------------------
 
 Alpha MOs
 -- Occupied --
-14.675  -1.448  -1.011  -1.011  -0.901
 -- Virtual --
 -0.161  -0.099  -0.099  -0.053  -0.026  -0.026   0.002   0.038
  0.038   0.051   0.291   0.291   0.353   0.353   0.420   0.437
  0.507   0.507   0.639   0.731   0.826   0.826   0.841   1.084
  1.084   1.154   1.296   1.296   1.407   1.545   1.545   2.260
  2.260   2.329   3.039   3.108   3.108   3.239   3.321   3.321
  3.457   3.457   3.479   3.747   4.038   4.038   4.120   4.425
  4.425   4.552   4.631   4.743   4.743   5.050   5.050   5.332
  6.173   6.173  35.160  37.090  37.799  37.799  40.108  40.177
 40.233  40.299  40.354
 
 Beta MOs
 -- Occupied --
-14.655  -1.391  -0.992  -0.992
 -- Virtual --
 -0.392  -0.156  -0.097  -0.097  -0.036  -0.020  -0.020   0.007
  0.043   0.043   0.061   0.293   0.293   0.376   0.376   0.433
  0.480   0.516   0.516   0.688   0.730   0.836   0.836   0.869
  1.098   1.098   1.186   1.327   1.327   1.438   1.565   1.565
  2.274   2.274   2.336   3.042   3.151   3.151   3.295   3.338
  3.339   3.474   3.474   3.573   3.786   4.071   4.071   4.151
  4.449   4.449   4.562   4.734   4.811   4.811   5.099   5.099
  5.369   6.194   6.194  35.184  37.146  37.813  37.813  40.164
 40.190  40.262  40.334  40.372
 --------------------------------------------------------------
 
          Ground-State Mulliken Net Atomic Charges

     Atom                 Charge (a.u.)    Spin (a.u.)
  --------------------------------------------------------
      1 N                     0.267255       1.034553
      2 H                     0.244254      -0.011516
      3 H                     0.244246      -0.011519
      4 H                     0.244246      -0.011518
  --------------------------------------------------------
  Sum of atomic charges =     1.000000
  Sum of spin   charges =     1.000000

 -----------------------------------------------------------------
                    Cartesian Multipole Moments
 -----------------------------------------------------------------
    Charge (ESU x 10^10)
                 4.8032
    Dipole Moment (Debye)
         X       0.0000      Y       0.0000      Z      -1.7045
       Tot       1.7045
    Quadrupole Moments (Debye-Ang)
        XX      -3.5061     XY       0.0000     YY      -3.5055
        XZ      -0.0001     YZ       0.0000     ZZ      -4.9385
    Octapole Moments (Debye-Ang^2)
       XXX       1.4809    XXY       0.0000    XYY      -1.4805
       YYY       0.0000    XXZ      -0.5198    XYZ       0.0000
       YYZ      -0.5200    XZZ       0.0002    YZZ       0.0000
       ZZZ       1.6255
    Hexadecapole Moments (Debye-Ang^3)
      XXXX      -5.1623   XXXY       0.0000   XXYY      -1.7207
      XYYY       0.0000   YYYY      -5.1617   XXXZ      -0.6931
      XXYZ       0.0000   XYYZ       0.6932   YYYZ       0.0000
      XXZZ      -1.5906   XYZZ       0.0000   YYZZ      -1.5906
      XZZZ       0.0000   YZZZ       0.0000   ZZZZ      -5.0197
 -----------------------------------------------------------------
 Total job time:  8.35s(wall), 8.12s(cpu) 
 Wed May 29 17:01:53 2013

        *************************************************************
        *                                                           *
        *  Thank you very much for using Q-Chem.  Have a nice day.  *
        *                                                           *
        *************************************************************


0 sent ACK to 0 
now end server 0 ... 
