Process 0 of 1 is on cl241.stfx.acenet.ca - thread support 1
initial socket setup ...start
initial socket setup ...done 
now start server 0 ... 

cmd = /usr/bin/ssh clhead /usr/local/qchem/bin/get_hostid 361161652 > /scratch/tmp/6021836.1.long.q/qchem17383/lic.dat
                  Welcome to Q-Chem
     A Quantum Leap Into The Future Of Chemistry

 Y. Shao, L. Fusti-Molnar, Y. Jung, J. Kussmann, C. Ochsenfeld,
 S. T. Brown, A. T. B. Gilbert, L. V. Slipchenko,S. V. Levchenko,
 D. P. O'Neill, R. A. DiStasio Jr., R. C. Lochan, T. Wang,
 G. J. O. Beran, N. A. Besley, J. M. Herbert, C. Y. Lin,
 T. Van Voorhis, S. H. Chien, A. Sodt, R. P. Steele, 
 V. A. Rassolov, P. E. Maslen, P. P. Korambath, R. D. Adamson,
 B. Austin, J. Baker, E. F. C. Byrd, H. Dachsel, R. J. Doerksen,
 A. Dreuw, B. D. Dunietz, A. D. Dutoi, T. R. Furlani,
 S. R. Gwaltney, A. Heyden, S. Hirata, C.-P. Hsu, G. Kedziora,
 R. Z. Khaliullin, P. Klunzinger, A. M. Lee, M. S. Lee, W. Liang,
 I. Lotan, N. Nair, B. Peters, E. I. Proynov, P. A. Pieniazek, 
 Y. M. Rhee, J. Ritchie, E. Rosta, C. D. Sherrill, 
 A. C. Simmonett, J. E. Subotnik, H. L. Woodcock III,
 W. Zhang, A. T. Bell, A. K. Chakraborty, D. M. Chipman,
 F. J. Keil, A. Warshel, W. J. Hehre, H. F. Schaefer III,
 J. Kong, A. I. Krylov, P. M. W. Gill, M. Head-Gordon,
 Q-Chem, Version 3.1, Q-Chem, Inc., Pittsburgh, PA (2007).

 Additional authors for Version 3.1: 
 Z. Gan, Y. Zhao, N. E. Schultz, D. Truhlar, E. Epifanovsky and M. Oana.

 Additional authors for Version 3.2: 
 R. Baer, B. R. Brooks, D. Casanova, J.-D. Chai, C.-L. Cheng, 
 C. Cramer, D. Crittenden, A. Ghysels, G. Hawkins, E. G. Hohenstein, 
 C. Kelley, W. Kurlancheek, D. Liotard, E. Livshits, P. Manohar, 
 A. Marenich, D. Neuhauser, R. Olson, M. A. Rohrdanz, K. S. Thanthiriwatte, 
 A. J. W. Thom, V. Vanovschi, C. F. Williams, Q. Wu and Z.-Q. You. 


 Intel X86 Linux Version

 Q-chem begins on Wed May 29 17:01:38 2013  

 Parallel job on  1  processors
Processing $rem in /usr/local/qchem/config/preferences.

theFileMan(): MAXOPENFILES=974 MAX_SUB_FILE_NUM=16
Maximum size of a physical file is 2.0 GB, maximum size of a tmp-file is 32.0 GB


--------------------------------------------------------------
User input:
--------------------------------------------------------------

$molecule
-1,2
Si         0.00004        0.00000       -0.00033
H         -0.00017        0.00000        1.47908
H          1.39525        0.00000       -0.49306
H         -0.69756       -1.20825       -0.49284
H         -0.69756        1.20825       -0.49284
$end

$comment
negative
$end

$xc_functional
C PBE   1.00
X wPBE  1.00
$end

$rem
SYMMETRY_DECOMPOSITION	0
exchange 		general
LRC_DFT                 true
BASIS                   g3large
omega			380
mem_static              760
max_scf_cycles          200
scf_final_print         1
sym_ignore              true
$end

--------------------------------------------------------------
 Writing REM_CC_EA            5
 ----------------------------------------------------
       Standard Nuclear Orientation (Angstroms)
    I     Atom         X            Y            Z
 ----------------------------------------------------
    1      Si      0.000040     0.000000    -0.000330
    2      H      -0.000170     0.000000     1.479080
    3      H       1.395250     0.000000    -0.493060
    4      H      -0.697560    -1.208250    -0.492840
    5      H      -0.697560     1.208250    -0.492840
 ----------------------------------------------------
 Nuclear Repulsion Energy =    21.3432211824 hartrees
 There are       10 alpha and        9 beta electrons
 Requested basis set is G3large
 There are 43 shells and 106 basis functions

Total QAlloc Memory Limit   2000 MB
Mega-Array Size       743 MB
MEM_STATIC part       760 MB

                       Distance Matrix (Angstroms)
             Si(  1)   H (  2)   H (  3)   H (  4)
   H (  2)  1.479410
   H (  3)  1.479660  2.415892
   H (  4)  1.479554  2.415510  2.416552
   H (  5)  1.479554  2.415510  2.416552  2.416500
 
 A cutoff of  1.0D-08 yielded    946 shell pairs
 There are   5819 function pairs (  7380 Cartesian)
Evaluating contribution to one-electron hamiltonian from nuclear
 Smallest overlap matrix eigenvalue = 7.87E-04
 Multipole matrices computed through 2nd order

  Scale SEOQF with 1.000000e-01/1.000000e-01/1.000000e-01

 Standard Electronic Orientation quadrupole field applied
 Guess from superposition of atomic densities
 Warning:  Energy on first SCF cycle will be non-variational
 Long-range K will be added via erf
 Coulomb attenuation parameter = 0.38 bohr**(-1)
 An unrestricted Kohn-Sham SCF calculation will be
 performed using Pulay DIIS extrapolation
 Exchange:  wPBE + LR-HF      Correlation:  PBE
 Using SG-1 standard quadrature grid
 SCF converges when DIIS error is below 1.0E-05
 Requested basis set is G3large
 There are 43 shells and 106 basis functions
 A cutoff of  1.0D-08 yielded    946 shell pairs
 There are   5819 function pairs (  7380 Cartesian)
 Warning!  Inaccurate integrated density:
   Number of electrons =    19
   Numerical integral  =    17.999850634120
   Relative error      =    -5.2639440309 %
 ---------------------------------------
  Cycle       Energy         DIIS Error
 ---------------------------------------
    1    -291.6015615080      2.78E-02
    2    -291.7147232402      2.15E-03
    3    -291.7360362444      8.41E-04
    4    -291.7387832231      2.68E-04
    5    -291.7396877377      1.10E-04
    6    -291.7399428517      4.37E-05
    7    -291.7400280406      2.41E-05
    8    -291.7400734533      1.67E-05
    9    -291.7401091051      1.12E-05
   10    -291.7401292216      7.58E-06 Convergence criterion met
 ---------------------------------------
 One-Electron    Energy =  -448.5659862842
 Total Coulomb   Energy =   157.8249463733
 Alpha Exchange  Energy =    -1.8017094780
 Beta  Exchange  Energy =    -1.7372633319
 DFT   Exchange  Energy =   -18.1790669495
 DFT Correlation Energy =    -0.6242707337
 Nuclear Repu.   Energy =    21.3432211824
 Nuclear Attr.   Energy =  -739.8686257720
 Kinetic         Energy =   291.3026394877
 <S^2> = 0.7503
 SCF time:  CPU 29.42 s  wall 30.03 s
 Final Alpha MO Eigenvalues
            1           2           3           4           5           6
    1 -65.4482963  -5.1119355  -3.5143502  -3.5143311  -3.5142885  -0.5425157
            7           8           9          10          11          12
    1  -0.3189899  -0.3187737  -0.3184904   0.0362504   0.1601629   0.1601985
           13          14          15
    1   0.1603106   0.1894422   0.1894630
 Final Beta MO Eigenvalues
            1           2           3           4           5           6
    1 -65.4479234  -5.1114313  -3.5138285  -3.5138083  -3.5137623  -0.5393890
            7           8           9          10          11          12
    1  -0.3181240  -0.3179112  -0.3176291   0.1467120   0.1731928   0.1732619
           13          14
    1   0.1733120   0.1928377
 Analysis of SCF Wavefunction
 
 --------------------------------------------------------------
                    Orbital Energies (a.u.)
 --------------------------------------------------------------
 
 Alpha MOs
 -- Occupied --
-65.448  -5.112  -3.514  -3.514  -3.514  -0.543  -0.319  -0.319
 -0.318   0.036
 -- Virtual --
  0.160   0.160   0.160   0.189   0.189   0.189   0.277   0.298
  0.298   0.298   0.346   0.358   0.358   0.472   0.472   0.472
  0.535   0.535   0.535   0.612   0.686   0.686   0.686   0.696
  0.696   0.696   0.774   0.908   0.908   0.908   0.927   0.927
  1.040   1.049   1.049   1.049   1.266   1.266   1.266   1.382
  1.382   1.408   1.408   1.408   1.522   1.567   1.567   1.567
  1.758   1.758   1.759   2.363   2.363   2.363   2.425   2.425
  2.425   2.616   3.028   3.028   3.028   3.280   3.768   3.769
  4.020   4.021   4.023   4.235   4.235   4.315   4.315   4.315
  4.329   4.329   4.329   4.616   4.747   4.748   4.748   6.239
 11.585  11.585  11.585  17.700  17.765  17.886  17.951  18.025
 22.340  22.345  22.349  22.358  22.365  22.366  22.396 141.092
 
 Beta MOs
 -- Occupied --
-65.448  -5.111  -3.514  -3.514  -3.514  -0.539  -0.318  -0.318
 -0.318
 -- Virtual --
  0.147   0.173   0.173   0.173   0.193   0.193   0.194   0.278
  0.298   0.298   0.298   0.351   0.359   0.359   0.474   0.474
  0.474   0.531   0.531   0.531   0.610   0.686   0.686   0.686
  0.695   0.695   0.695   0.774   0.907   0.907   0.907   0.928
  0.928   1.038   1.049   1.049   1.049   1.266   1.266   1.266
  1.383   1.383   1.408   1.408   1.409   1.523   1.568   1.568
  1.568   1.759   1.759   1.760   2.366   2.366   2.366   2.428
  2.428   2.428   2.618   3.027   3.027   3.027   3.279   3.769
  3.770   4.021   4.021   4.023   4.235   4.235   4.315   4.315
  4.315   4.328   4.329   4.329   4.616   4.747   4.748   4.749
  6.240  11.586  11.586  11.586  17.701  17.766  17.886  17.951
 18.026  22.340  22.345  22.350  22.358  22.365  22.366  22.397
141.092
 --------------------------------------------------------------
 
          Ground-State Mulliken Net Atomic Charges

     Atom                 Charge (a.u.)    Spin (a.u.)
  --------------------------------------------------------
      1 Si                    4.835254      -4.569170
      2 H                    -1.461497       1.395070
      3 H                    -1.454200       1.387128
      4 H                    -1.453932       1.386563
      5 H                    -1.465625       1.400409
  --------------------------------------------------------
  Sum of atomic charges =    -1.000000
  Sum of spin   charges =     1.000000

 -----------------------------------------------------------------
                    Cartesian Multipole Moments
 -----------------------------------------------------------------
    Charge (ESU x 10^10)
                -4.8032
    Dipole Moment (Debye)
         X       0.1143      Y      -0.2751      Z      -0.0359
       Tot       0.3000
    Quadrupole Moments (Debye-Ang)
        XX     -41.7579     XY       0.0042     YY     -41.7834
        XZ      -0.0015     YZ       0.0001     ZZ     -41.7694
    Octapole Moments (Debye-Ang^2)
       XXX     -12.1569    XXY      -1.0353    XYY      13.8800
       YYY      -3.1070    XXZ       9.3869    XYZ       0.0206
       YYZ       9.3771    XZZ       0.4343    YZZ      -1.0501
       ZZZ     -19.3863
    Hexadecapole Moments (Debye-Ang^3)
      XXXX    -343.5158   XXXY      -0.1287   XXYY    -114.8015
      XYYY       0.5222   YYYY    -344.1909   XXXZ       6.0927
      XXYZ       0.1152   XYYZ      -6.2941   YYYZ       0.3457
      XXZZ    -110.1641   XYZZ       0.0117   YYZZ    -110.2294
      XZZZ       0.0937   YZZZ      -0.2288   ZZZZ    -348.4712
 -----------------------------------------------------------------
 Total job time:  30.19s(wall), 29.53s(cpu) 
 Wed May 29 17:02:08 2013

        *************************************************************
        *                                                           *
        *  Thank you very much for using Q-Chem.  Have a nice day.  *
        *                                                           *
        *************************************************************


0 sent ACK to 0 
now end server 0 ... 
 
**********************************************************************
Job 2 of 3 
**********************************************************************
 
Process 0 of 1 is on cl241.stfx.acenet.ca - thread support 1
initial socket setup ...start
initial socket setup ...done 
now start server 0 ... 

cmd = /usr/bin/ssh clhead /usr/local/qchem/bin/get_hostid 2145642149 > /scratch/tmp/6021836.1.long.q/qchem17383/lic.dat
                  Welcome to Q-Chem
     A Quantum Leap Into The Future Of Chemistry

 Y. Shao, L. Fusti-Molnar, Y. Jung, J. Kussmann, C. Ochsenfeld,
 S. T. Brown, A. T. B. Gilbert, L. V. Slipchenko,S. V. Levchenko,
 D. P. O'Neill, R. A. DiStasio Jr., R. C. Lochan, T. Wang,
 G. J. O. Beran, N. A. Besley, J. M. Herbert, C. Y. Lin,
 T. Van Voorhis, S. H. Chien, A. Sodt, R. P. Steele, 
 V. A. Rassolov, P. E. Maslen, P. P. Korambath, R. D. Adamson,
 B. Austin, J. Baker, E. F. C. Byrd, H. Dachsel, R. J. Doerksen,
 A. Dreuw, B. D. Dunietz, A. D. Dutoi, T. R. Furlani,
 S. R. Gwaltney, A. Heyden, S. Hirata, C.-P. Hsu, G. Kedziora,
 R. Z. Khaliullin, P. Klunzinger, A. M. Lee, M. S. Lee, W. Liang,
 I. Lotan, N. Nair, B. Peters, E. I. Proynov, P. A. Pieniazek, 
 Y. M. Rhee, J. Ritchie, E. Rosta, C. D. Sherrill, 
 A. C. Simmonett, J. E. Subotnik, H. L. Woodcock III,
 W. Zhang, A. T. Bell, A. K. Chakraborty, D. M. Chipman,
 F. J. Keil, A. Warshel, W. J. Hehre, H. F. Schaefer III,
 J. Kong, A. I. Krylov, P. M. W. Gill, M. Head-Gordon,
 Q-Chem, Version 3.1, Q-Chem, Inc., Pittsburgh, PA (2007).

 Additional authors for Version 3.1: 
 Z. Gan, Y. Zhao, N. E. Schultz, D. Truhlar, E. Epifanovsky and M. Oana.

 Additional authors for Version 3.2: 
 R. Baer, B. R. Brooks, D. Casanova, J.-D. Chai, C.-L. Cheng, 
 C. Cramer, D. Crittenden, A. Ghysels, G. Hawkins, E. G. Hohenstein, 
 C. Kelley, W. Kurlancheek, D. Liotard, E. Livshits, P. Manohar, 
 A. Marenich, D. Neuhauser, R. Olson, M. A. Rohrdanz, K. S. Thanthiriwatte, 
 A. J. W. Thom, V. Vanovschi, C. F. Williams, Q. Wu and Z.-Q. You. 


 Intel X86 Linux Version

 Q-chem begins on Wed May 29 17:02:11 2013  

 Parallel job on  1  processors
Processing $rem in /usr/local/qchem/config/preferences.

theFileMan(): MAXOPENFILES=974 MAX_SUB_FILE_NUM=16
Maximum size of a physical file is 2.0 GB, maximum size of a tmp-file is 32.0 GB


--------------------------------------------------------------
User input:
--------------------------------------------------------------

$molecule
0,1
Si         0.00004        0.00000       -0.00033
H         -0.00017        0.00000        1.47908
H          1.39525        0.00000       -0.49306
H         -0.69756       -1.20825       -0.49284
H         -0.69756        1.20825       -0.49284
$end

$comment
neutral
$end

$xc_functional
C PBE   1.00
X wPBE  1.00
$end


$rem
SYMMETRY_DECOMPOSITION	0
LRC_DFT                 true
exchange 		general
BASIS                   g3large
omega			380
mem_static              760
max_scf_cycles          200
scf_final_print         1
sym_ignore              true
$end

--------------------------------------------------------------
 Writing REM_CC_EA            5
 ----------------------------------------------------
       Standard Nuclear Orientation (Angstroms)
    I     Atom         X            Y            Z
 ----------------------------------------------------
    1      Si      0.000040     0.000000    -0.000330
    2      H      -0.000170     0.000000     1.479080
    3      H       1.395250     0.000000    -0.493060
    4      H      -0.697560    -1.208250    -0.492840
    5      H      -0.697560     1.208250    -0.492840
 ----------------------------------------------------
 Nuclear Repulsion Energy =    21.3432211824 hartrees
 There are        9 alpha and        9 beta electrons
 Requested basis set is G3large
 There are 43 shells and 106 basis functions

Total QAlloc Memory Limit   2000 MB
Mega-Array Size       743 MB
MEM_STATIC part       760 MB

                       Distance Matrix (Angstroms)
             Si(  1)   H (  2)   H (  3)   H (  4)
   H (  2)  1.479410
   H (  3)  1.479660  2.415892
   H (  4)  1.479554  2.415510  2.416552
   H (  5)  1.479554  2.415510  2.416552  2.416500
 
 A cutoff of  1.0D-08 yielded    946 shell pairs
 There are   5819 function pairs (  7380 Cartesian)
Evaluating contribution to one-electron hamiltonian from nuclear
 Smallest overlap matrix eigenvalue = 7.87E-04
 Multipole matrices computed through 2nd order

  Scale SEOQF with 1.000000e-01/1.000000e-01/1.000000e-01

 Standard Electronic Orientation quadrupole field applied
 Guess from superposition of atomic densities
 Warning:  Energy on first SCF cycle will be non-variational
 Long-range K will be added via erf
 Coulomb attenuation parameter = 0.38 bohr**(-1)
 A restricted Kohn-Sham SCF calculation will be
 performed using Pulay DIIS extrapolation
 Exchange:  wPBE + LR-HF      Correlation:  PBE
 Using SG-1 standard quadrature grid
 SCF converges when DIIS error is below 1.0E-05
 Requested basis set is G3large
 There are 43 shells and 106 basis functions
 A cutoff of  1.0D-08 yielded    946 shell pairs
 There are   5819 function pairs (  7380 Cartesian)
 ---------------------------------------
  Cycle       Energy         DIIS Error
 ---------------------------------------
    1    -291.6015615080      2.78E-02
    2    -291.7677827551      2.04E-03
    3    -291.7797260667      5.30E-04
    4    -291.7804086441      1.73E-04
    5    -291.7804865412      4.88E-05
    6    -291.7804931371      1.14E-05
    7    -291.7804937710      2.61E-06 Convergence criterion met
 ---------------------------------------
 One-Electron    Energy =  -445.9210702792
 Total Coulomb   Energy =   155.0639935162
 Alpha Exchange  Energy =    -1.7386566106
 Beta  Exchange  Energy =    -1.7386566106
 DFT   Exchange  Energy =   -18.1728664112
 DFT Correlation Energy =    -0.6164585580
 Nuclear Repu.   Energy =    21.3432211824
 Nuclear Attr.   Energy =  -737.1291316743
 Kinetic         Energy =   291.2080613952
 SCF time:  CPU 16.84 s  wall 17.20 s
 Final Alpha MO Eigenvalues
            1           2           3           4           5           6
    1 -65.6007510  -5.2634868  -3.6658942  -3.6658761  -3.6658698  -0.6877193
            7           8           9          10          11          12
    1  -0.4652101  -0.4652081  -0.4651222   0.0459516   0.0716696   0.0716947
           13          14
    1   0.0716964   0.0896543
 Analysis of SCF Wavefunction
 
 --------------------------------------------------------------
                    Orbital Energies (a.u.)
 --------------------------------------------------------------
 
 Alpha MOs
 -- Occupied --
-65.601  -5.263  -3.666  -3.666  -3.666  -0.688  -0.465  -0.465
 -0.465
 -- Virtual --
  0.046   0.072   0.072   0.072   0.090   0.090   0.090   0.168
  0.168   0.168   0.171   0.216   0.216   0.218   0.342   0.342
  0.342   0.404   0.404   0.404   0.475   0.542   0.542   0.542
  0.555   0.555   0.555   0.637   0.767   0.767   0.767   0.783
  0.783   0.897   0.907   0.907   0.907   1.121   1.121   1.122
  1.237   1.237   1.264   1.264   1.264   1.380   1.422   1.422
  1.422   1.615   1.615   1.615   2.217   2.217   2.217   2.279
  2.279   2.279   2.471   2.882   2.882   2.882   3.134   3.618
  3.619   3.872   3.873   3.875   4.089   4.089   4.168   4.168
  4.168   4.182   4.182   4.182   4.470   4.599   4.600   4.600
  6.089  11.434  11.434  11.434  17.549  17.613  17.734  17.799
 17.874  22.188  22.193  22.197  22.206  22.213  22.214  22.245
140.939
 --------------------------------------------------------------
 
          Ground-State Mulliken Net Atomic Charges

     Atom                 Charge (a.u.)
  ----------------------------------------
      1 Si                    0.257457
      2 H                    -0.064420
      3 H                    -0.064266
      4 H                    -0.064401
      5 H                    -0.064370
  ----------------------------------------
  Sum of atomic charges =     0.000000

 -----------------------------------------------------------------
                    Cartesian Multipole Moments
 -----------------------------------------------------------------
    Charge (ESU x 10^10)
                 0.0000
    Dipole Moment (Debye)
         X       0.0004      Y       0.0000      Z      -0.0017
       Tot       0.0017
    Quadrupole Moments (Debye-Ang)
        XX     -16.4437     XY       0.0000     YY     -16.4444
        XZ      -0.0002     YZ      -0.0001     ZZ     -16.4456
    Octapole Moments (Debye-Ang^2)
       XXX      -0.7252    XXY       0.0000    XYY       0.7246
       YYY       0.0000    XXZ       0.5160    XYZ       0.0001
       YYZ       0.5166    XZZ      -0.0003    YZZ      -0.0001
       ZZZ      -1.0182
    Hexadecapole Moments (Debye-Ang^3)
      XXXX     -41.7641   XXXY       0.0000   XXYY     -13.9218
      XYYY      -0.0001   YYYY     -41.7653   XXXZ      -0.3301
      XXYZ      -0.0001   XYYZ       0.3318   YYYZ      -0.0003
      XXZZ     -14.1551   XYZZ      -0.0001   YYZZ     -14.1555
      XZZZ       0.0013   YZZZ      -0.0003   ZZZZ     -41.5171
 -----------------------------------------------------------------
 Total job time:  17.31s(wall), 16.95s(cpu) 
 Wed May 29 17:02:29 2013

        *************************************************************
        *                                                           *
        *  Thank you very much for using Q-Chem.  Have a nice day.  *
        *                                                           *
        *************************************************************


0 sent ACK to 0 
now end server 0 ... 
 
**********************************************************************
Job 3 of 3 
**********************************************************************
 
Process 0 of 1 is on cl241.stfx.acenet.ca - thread support 1
initial socket setup ...start
initial socket setup ...done 
now start server 0 ... 

cmd = /usr/bin/ssh clhead /usr/local/qchem/bin/get_hostid 366869531 > /scratch/tmp/6021836.1.long.q/qchem17383/lic.dat
                  Welcome to Q-Chem
     A Quantum Leap Into The Future Of Chemistry

 Y. Shao, L. Fusti-Molnar, Y. Jung, J. Kussmann, C. Ochsenfeld,
 S. T. Brown, A. T. B. Gilbert, L. V. Slipchenko,S. V. Levchenko,
 D. P. O'Neill, R. A. DiStasio Jr., R. C. Lochan, T. Wang,
 G. J. O. Beran, N. A. Besley, J. M. Herbert, C. Y. Lin,
 T. Van Voorhis, S. H. Chien, A. Sodt, R. P. Steele, 
 V. A. Rassolov, P. E. Maslen, P. P. Korambath, R. D. Adamson,
 B. Austin, J. Baker, E. F. C. Byrd, H. Dachsel, R. J. Doerksen,
 A. Dreuw, B. D. Dunietz, A. D. Dutoi, T. R. Furlani,
 S. R. Gwaltney, A. Heyden, S. Hirata, C.-P. Hsu, G. Kedziora,
 R. Z. Khaliullin, P. Klunzinger, A. M. Lee, M. S. Lee, W. Liang,
 I. Lotan, N. Nair, B. Peters, E. I. Proynov, P. A. Pieniazek, 
 Y. M. Rhee, J. Ritchie, E. Rosta, C. D. Sherrill, 
 A. C. Simmonett, J. E. Subotnik, H. L. Woodcock III,
 W. Zhang, A. T. Bell, A. K. Chakraborty, D. M. Chipman,
 F. J. Keil, A. Warshel, W. J. Hehre, H. F. Schaefer III,
 J. Kong, A. I. Krylov, P. M. W. Gill, M. Head-Gordon,
 Q-Chem, Version 3.1, Q-Chem, Inc., Pittsburgh, PA (2007).

 Additional authors for Version 3.1: 
 Z. Gan, Y. Zhao, N. E. Schultz, D. Truhlar, E. Epifanovsky and M. Oana.

 Additional authors for Version 3.2: 
 R. Baer, B. R. Brooks, D. Casanova, J.-D. Chai, C.-L. Cheng, 
 C. Cramer, D. Crittenden, A. Ghysels, G. Hawkins, E. G. Hohenstein, 
 C. Kelley, W. Kurlancheek, D. Liotard, E. Livshits, P. Manohar, 
 A. Marenich, D. Neuhauser, R. Olson, M. A. Rohrdanz, K. S. Thanthiriwatte, 
 A. J. W. Thom, V. Vanovschi, C. F. Williams, Q. Wu and Z.-Q. You. 


 Intel X86 Linux Version

 Q-chem begins on Wed May 29 17:02:32 2013  

 Parallel job on  1  processors
Processing $rem in /usr/local/qchem/config/preferences.

theFileMan(): MAXOPENFILES=974 MAX_SUB_FILE_NUM=16
Maximum size of a physical file is 2.0 GB, maximum size of a tmp-file is 32.0 GB


--------------------------------------------------------------
User input:
--------------------------------------------------------------

$molecule
1,2
Si         0.00004        0.00000       -0.00033
H         -0.00017        0.00000        1.47908
H          1.39525        0.00000       -0.49306
H         -0.69756       -1.20825       -0.49284
H         -0.69756        1.20825       -0.49284
$end

$comment
positive
$end

$xc_functional
C PBE   1.00
X wPBE  1.00
$end

$rem
SYMMETRY_DECOMPOSITION	0
LRC_DFT                 true
exchange 		general
BASIS                   g3large
omega			380
mem_static              760
max_scf_cycles          200
scf_final_print         1
sym_ignore              true
$end

--------------------------------------------------------------
 Writing REM_CC_EA            5
 ----------------------------------------------------
       Standard Nuclear Orientation (Angstroms)
    I     Atom         X            Y            Z
 ----------------------------------------------------
    1      Si      0.000040     0.000000    -0.000330
    2      H      -0.000170     0.000000     1.479080
    3      H       1.395250     0.000000    -0.493060
    4      H      -0.697560    -1.208250    -0.492840
    5      H      -0.697560     1.208250    -0.492840
 ----------------------------------------------------
 Nuclear Repulsion Energy =    21.3432211824 hartrees
 There are        9 alpha and        8 beta electrons
 Requested basis set is G3large
 There are 43 shells and 106 basis functions

Total QAlloc Memory Limit   2000 MB
Mega-Array Size       743 MB
MEM_STATIC part       760 MB

                       Distance Matrix (Angstroms)
             Si(  1)   H (  2)   H (  3)   H (  4)
   H (  2)  1.479410
   H (  3)  1.479660  2.415892
   H (  4)  1.479554  2.415510  2.416552
   H (  5)  1.479554  2.415510  2.416552  2.416500
 
 A cutoff of  1.0D-08 yielded    946 shell pairs
 There are   5819 function pairs (  7380 Cartesian)
Evaluating contribution to one-electron hamiltonian from nuclear
 Smallest overlap matrix eigenvalue = 7.87E-04
 Multipole matrices computed through 2nd order

  Scale SEOQF with 1.000000e-01/1.000000e-01/1.000000e-01

 Standard Electronic Orientation quadrupole field applied
 Guess from superposition of atomic densities
 Warning:  Energy on first SCF cycle will be non-variational
 Long-range K will be added via erf
 Coulomb attenuation parameter = 0.38 bohr**(-1)
 An unrestricted Kohn-Sham SCF calculation will be
 performed using Pulay DIIS extrapolation
 Exchange:  wPBE + LR-HF      Correlation:  PBE
 Using SG-1 standard quadrature grid
 SCF converges when DIIS error is below 1.0E-05
 Requested basis set is G3large
 There are 43 shells and 106 basis functions
 A cutoff of  1.0D-08 yielded    946 shell pairs
 There are   5819 function pairs (  7380 Cartesian)
 Warning!  Inaccurate integrated density:
   Number of electrons =    17
   Numerical integral  =    17.999850634120
   Relative error      =     5.8814743184 %
 ---------------------------------------
  Cycle       Energy         DIIS Error
 ---------------------------------------
    1    -291.6015615080      2.78E-02
    2    -291.2674833026      3.40E-03
    3    -291.3074579030      1.18E-03
    4    -291.3098332960      3.88E-04
    5    -291.3102112028      7.00E-05
    6    -291.3103112983      2.24E-05
    7    -291.3103369176      1.19E-05
    8    -291.3103452919      9.62E-06 Convergence criterion met
 ---------------------------------------
 One-Electron    Energy =  -440.3758397805
 Total Coulomb   Energy =   149.6738005573
 Alpha Exchange  Energy =    -1.7519122232
 Beta  Exchange  Energy =    -1.5553086815
 DFT   Exchange  Energy =   -18.0628664010
 DFT Correlation Energy =    -0.5814399453
 Nuclear Repu.   Energy =    21.3432211824
 Nuclear Attr.   Energy =  -731.3488994112
 Kinetic         Energy =   290.9730596307
 <S^2> = 0.7678
 SCF time:  CPU 22.99 s  wall 23.43 s
 Final Alpha MO Eigenvalues
            1           2           3           4           5           6
    1 -65.9143120  -5.5763530  -3.9867093  -3.9758366  -3.9745938  -1.0117849
            7           8           9          10          11          12
    1  -0.8352376  -0.7559760  -0.7229528  -0.1436592  -0.1388097  -0.1331579
           13          14
    1  -0.1230892  -0.0752321
 Final Beta MO Eigenvalues
            1           2           3           4           5           6
    1 -65.9132824  -5.5751937  -3.9823646  -3.9757170  -3.9741158  -0.9482863
            7           8           9          10          11          12
    1  -0.7230398  -0.7186959  -0.4705388  -0.1289776  -0.1216755  -0.1187634
           13
    1  -0.1118204
 Analysis of SCF Wavefunction
 
 --------------------------------------------------------------
                    Orbital Energies (a.u.)
 --------------------------------------------------------------
 
 Alpha MOs
 -- Occupied --
-65.914  -5.576  -3.987  -3.976  -3.975  -1.012  -0.835  -0.756
 -0.723
 -- Virtual --
 -0.144  -0.139  -0.133  -0.123  -0.075  -0.064  -0.061  -0.036
 -0.028  -0.016  -0.007  -0.003   0.000   0.022   0.122   0.140
  0.144   0.196   0.204   0.210   0.241   0.285   0.294   0.309
  0.312   0.324   0.325   0.405   0.507   0.514   0.521   0.527
  0.530   0.614   0.643   0.662   0.665   0.849   0.855   0.880
  0.955   0.967   1.004   1.012   1.019   1.107   1.147   1.152
  1.155   1.308   1.348   1.370   1.896   1.908   1.930   1.971
  1.982   1.983   2.175   2.492   2.577   2.632   2.837   3.307
  3.314   3.524   3.569   3.597   3.708   3.709   3.811   3.819
  3.890   3.904   3.926   3.930   4.137   4.248   4.300   4.329
  5.778  11.113  11.126  11.129  17.234  17.301  17.424  17.486
 17.560  21.874  21.880  21.886  21.894  21.901  21.902  21.933
140.626
 
 Beta MOs
 -- Occupied --
-65.913  -5.575  -3.982  -3.976  -3.974  -0.948  -0.723  -0.719
 -- Virtual --
 -0.471  -0.129  -0.122  -0.119  -0.112  -0.069  -0.064  -0.061
 -0.022  -0.016  -0.003  -0.002  -0.002   0.009   0.024   0.139
  0.142   0.145   0.204   0.209   0.210   0.260   0.306   0.308
  0.312   0.328   0.329   0.331   0.410   0.520   0.521   0.535
  0.537   0.539   0.647   0.660   0.667   0.668   0.876   0.880
  0.888   0.980   0.983   1.017   1.021   1.023   1.133   1.157
  1.160   1.163   1.341   1.360   1.371   1.922   1.925   1.932
  1.989   1.990   1.994   2.189   2.591   2.615   2.634   2.866
  3.313   3.316   3.572   3.586   3.598   3.810   3.811   3.876
  3.884   3.904   3.919   3.927   3.933   4.195   4.300   4.320
  4.333   5.787  11.122  11.127  11.130  17.237  17.302  17.425
 17.488  17.562  21.875  21.881  21.887  21.895  21.902  21.903
 21.933 140.628
 --------------------------------------------------------------
 
          Ground-State Mulliken Net Atomic Charges

     Atom                 Charge (a.u.)    Spin (a.u.)
  --------------------------------------------------------
      1 Si                    0.538766       0.198523
      2 H                     0.059469      -0.012389
      3 H                     0.125179       0.261527
      4 H                     0.208407       0.526617
      5 H                     0.068180       0.025721
  --------------------------------------------------------
  Sum of atomic charges =     1.000000
  Sum of spin   charges =     1.000000

 -----------------------------------------------------------------
                    Cartesian Multipole Moments
 -----------------------------------------------------------------
    Charge (ESU x 10^10)
                 4.8032
    Dipole Moment (Debye)
         X      -0.0683      Y      -1.2811      Z      -0.8806
       Tot       1.5560
    Quadrupole Moments (Debye-Ang)
        XX      -9.9514     XY       1.7999     YY      -9.7958
        XZ       0.0796     YZ       0.7402     ZZ     -12.1188
    Octapole Moments (Debye-Ang^2)
       XXX       1.9852    XXY      -0.8855    XYY      -2.1640
       YYY      -2.6595    XXZ      -1.4862    XYZ      -0.6041
       YYZ      -1.5726    XZZ      -0.0082    YZZ      -0.4527
       ZZZ       0.3098
    Hexadecapole Moments (Debye-Ang^3)
      XXXX     -21.9573   XXXY       2.4512   XXYY      -7.2144
      XYYY       2.8365   YYYY     -21.5201   XXXZ      -1.3886
      XXYZ       0.4348   XYYZ       1.5496   YYYZ       1.3064
      XXZZ      -9.2862   XYZZ       0.8470   YYZZ      -9.2223
      XZZZ       0.0820   YZZZ       0.9658   ZZZZ     -27.5080
 -----------------------------------------------------------------
 Total job time:  23.55s(wall), 23.10s(cpu) 
 Wed May 29 17:02:55 2013

        *************************************************************
        *                                                           *
        *  Thank you very much for using Q-Chem.  Have a nice day.  *
        *                                                           *
        *************************************************************


0 sent ACK to 0 
now end server 0 ... 
