Process 0 of 1 is on cl072.stfx.acenet.ca - thread support 1
initial socket setup ...start
initial socket setup ...done 
now start server 0 ... 

cmd = /usr/bin/ssh clhead /usr/local/qchem/bin/get_hostid 374281500 > /scratch/tmp/5955878.1.short.q/qchem27072/lic.dat
                  Welcome to Q-Chem
     A Quantum Leap Into The Future Of Chemistry

 Y. Shao, L. Fusti-Molnar, Y. Jung, J. Kussmann, C. Ochsenfeld,
 S. T. Brown, A. T. B. Gilbert, L. V. Slipchenko,S. V. Levchenko,
 D. P. O'Neill, R. A. DiStasio Jr., R. C. Lochan, T. Wang,
 G. J. O. Beran, N. A. Besley, J. M. Herbert, C. Y. Lin,
 T. Van Voorhis, S. H. Chien, A. Sodt, R. P. Steele, 
 V. A. Rassolov, P. E. Maslen, P. P. Korambath, R. D. Adamson,
 B. Austin, J. Baker, E. F. C. Byrd, H. Dachsel, R. J. Doerksen,
 A. Dreuw, B. D. Dunietz, A. D. Dutoi, T. R. Furlani,
 S. R. Gwaltney, A. Heyden, S. Hirata, C.-P. Hsu, G. Kedziora,
 R. Z. Khaliullin, P. Klunzinger, A. M. Lee, M. S. Lee, W. Liang,
 I. Lotan, N. Nair, B. Peters, E. I. Proynov, P. A. Pieniazek, 
 Y. M. Rhee, J. Ritchie, E. Rosta, C. D. Sherrill, 
 A. C. Simmonett, J. E. Subotnik, H. L. Woodcock III,
 W. Zhang, A. T. Bell, A. K. Chakraborty, D. M. Chipman,
 F. J. Keil, A. Warshel, W. J. Hehre, H. F. Schaefer III,
 J. Kong, A. I. Krylov, P. M. W. Gill, M. Head-Gordon,
 Q-Chem, Version 3.1, Q-Chem, Inc., Pittsburgh, PA (2007).

 Additional authors for Version 3.1: 
 Z. Gan, Y. Zhao, N. E. Schultz, D. Truhlar, E. Epifanovsky and M. Oana.

 Additional authors for Version 3.2: 
 R. Baer, B. R. Brooks, D. Casanova, J.-D. Chai, C.-L. Cheng, 
 C. Cramer, D. Crittenden, A. Ghysels, G. Hawkins, E. G. Hohenstein, 
 C. Kelley, W. Kurlancheek, D. Liotard, E. Livshits, P. Manohar, 
 A. Marenich, D. Neuhauser, R. Olson, M. A. Rohrdanz, K. S. Thanthiriwatte, 
 A. J. W. Thom, V. Vanovschi, C. F. Williams, Q. Wu and Z.-Q. You. 


 Intel X86 Linux Version

 Q-chem begins on Tue Apr 30 21:34:04 2013  

 Parallel job on  1  processors
Processing $rem in /usr/local/qchem/config/preferences.

theFileMan(): MAXOPENFILES=974 MAX_SUB_FILE_NUM=16
Maximum size of a physical file is 2.0 GB, maximum size of a tmp-file is 32.0 GB


--------------------------------------------------------------
User input:
--------------------------------------------------------------

$molecule
-1,2
B
X,1,1.
X,1,1.,2,90.
Cl,1,R2,2,ALPHA,3,0.,0
Cl,1,R2,2,ALPHA,3,120.,0
Cl,1,R2,2,ALPHA,3,-120.,0

 R2=1.75274159
 ALPHA=90.

$end

$comment
negative
$end

$xc_functional
C PBE   1.00
X wPBE  1.00
$end

$rem
SYMMETRY_DECOMPOSITION	0
exchange 		general
LRC_DFT                 true
BASIS                   g3large
omega			440
mem_static              760
max_scf_cycles          200
scf_final_print         1
sym_ignore              true
$end

--------------------------------------------------------------
 Writing REM_CC_EA            4
 ----------------------------------------------------
       Standard Nuclear Orientation (Angstroms)
    I     Atom         X            Y            Z
 ----------------------------------------------------
    1      B       0.000000     0.000000     0.000000
    2      Cl      1.752742     0.000000     0.000000
    3      Cl     -0.876371    -1.517919     0.000000
    4      Cl     -0.876371     1.517919     0.000000
 ----------------------------------------------------
 Nuclear Repulsion Energy =   228.1149461282 hartrees
 There are       29 alpha and       28 beta electrons
 Requested basis set is G3large
 There are 67 shells and 240 basis functions

Total QAlloc Memory Limit   2000 MB
Mega-Array Size       743 MB
MEM_STATIC part       760 MB

                       Distance Matrix (Angstroms)
             B (  1)   Cl(  2)   Cl(  3)
   Cl(  2)  1.752742
   Cl(  3)  1.752742  3.035837
   Cl(  4)  1.752742  3.035837  3.035837
 
 A cutoff of  1.0D-08 yielded   1837 shell pairs
 There are  24483 function pairs ( 34446 Cartesian)
Evaluating contribution to one-electron hamiltonian from nuclear
 Smallest overlap matrix eigenvalue = 8.96E-04
 Multipole matrices computed through 2nd order

  Scale SEOQF with 1.000000e-01/1.000000e-01/1.000000e-01

 Standard Electronic Orientation quadrupole field applied
 Nucleus-field energy     =     0.0000000084 hartrees
 Guess from superposition of atomic densities
 Warning:  Energy on first SCF cycle will be non-variational
 Long-range K will be added via erf
 Coulomb attenuation parameter = 0.44 bohr**(-1)
 An unrestricted Kohn-Sham SCF calculation will be
 performed using Pulay DIIS extrapolation
 Exchange:  wPBE + LR-HF      Correlation:  PBE
 Using SG-1 standard quadrature grid
 SCF converges when DIIS error is below 1.0E-05
 Requested basis set is G3large
 There are 67 shells and 240 basis functions
 A cutoff of  1.0D-08 yielded   1837 shell pairs
 There are  24483 function pairs ( 34446 Cartesian)
 Warning!  Inaccurate integrated density:
   Number of electrons =    57
   Numerical integral  =    55.999955102590
   Relative error      =    -1.7544647323 %
 ---------------------------------------
  Cycle       Energy         DIIS Error
 ---------------------------------------
    1   -1405.7796174623      2.20E-02
    2   -1405.1399894017      1.81E-03
    3   -1405.1722682614      9.87E-04
    4   -1405.1766486365      1.86E-04
    5   -1405.1772984103      7.40E-05
    6   -1405.1774193455      3.66E-05
    7   -1405.1774488111      9.22E-06 Convergence criterion met
 ---------------------------------------
 One-Electron    Energy = -2406.5210127813
 Total Coulomb   Energy =   861.9507626310
 Alpha Exchange  Energy =    -6.4991213892
 Beta  Exchange  Energy =    -6.3071465131
 DFT   Exchange  Energy =   -73.7269914303
 DFT Correlation Energy =    -2.1888854648
 Nuclear Repu.   Energy =   228.1149461366
 Nuclear Attr.   Energy = -3809.9777442609
 Kinetic         Energy =  1403.4567314796
 <S^2> = 0.7577
 SCF time:  CPU 166.93 s  wall 168.48 s
 Final Alpha MO Eigenvalues
            1           2           3           4           5           6
    1-100.6981393-100.6981221-100.6981128  -9.2226432  -9.2226354  -9.2226057
            7           8           9          10          11          12
    1  -7.0363888  -7.0363794  -7.0362526  -7.0311003  -7.0310845  -7.0310783
           13          14          15          16          17          18
    1  -7.0306860  -7.0305471  -7.0305257  -6.5997064  -0.8374007  -0.7854001
           19          20          21          22          23          24
    1  -0.7853949  -0.4557930  -0.3653270  -0.3653133  -0.3409243  -0.2684054
           25          26          27          28          29          30
    1  -0.2683994  -0.2652367  -0.2652225  -0.2344384  -0.0254816   0.1769546
           31          32          33          34
    1   0.1825698   0.1825711   0.2070733   0.2634386
 Final Beta MO Eigenvalues
            1           2           3           4           5           6
    1-100.6979781-100.6979598-100.6979507  -9.2224246  -9.2224162  -9.2223860
            7           8           9          10          11          12
    1  -7.0366297  -7.0366167  -7.0365172  -7.0306010  -7.0304864  -7.0304645
           13          14          15          16          17          18
    1  -7.0300937  -7.0300762  -7.0300721  -6.5894509  -0.8304363  -0.7830091
           19          20          21          22          23          24
    1  -0.7830057  -0.4314772  -0.3605480  -0.3605395  -0.3102050  -0.2650807
           25          26          27          28          29          30
    1  -0.2650661  -0.2547625  -0.2547583  -0.2338440   0.1784723   0.1827857
           31          32          33
    1   0.1827872   0.2072557   0.2642083
 Analysis of SCF Wavefunction
 
 --------------------------------------------------------------
                    Orbital Energies (a.u.)
 --------------------------------------------------------------
 
 Alpha MOs
 -- Occupied --
*******-100.698-100.698  -9.223  -9.223  -9.223  -7.036  -7.036
 -7.036  -7.031  -7.031  -7.031  -7.031  -7.031  -7.031  -6.600
 -0.837  -0.785  -0.785  -0.456  -0.365  -0.365  -0.341  -0.268
 -0.268  -0.265  -0.265  -0.234  -0.025
 -- Virtual --
  0.177   0.183   0.183   0.207   0.263   0.263   0.269   0.283
  0.283   0.310   0.318   0.318   0.335   0.337   0.355   0.373
  0.373   0.434   0.434   0.500   0.500   0.527   0.558   0.558
  0.612   0.612   0.619   0.619   0.621   0.625   0.657   0.689
  0.699   0.736   0.736   0.745   0.762   0.762   0.787   0.787
  0.864   0.864   0.885   0.938   0.953   0.960   0.960   1.030
  1.045   1.045   1.145   1.145   1.338   1.338   1.366   1.377
  1.380   1.380   1.394   1.394   1.412   1.418   1.418   1.428
  1.428   1.433   1.451   1.451   1.454   1.483   1.494   1.534
  1.534   1.633   1.642   1.642   1.644   1.645   1.645   1.703
  1.716   1.793   1.793   1.894   1.894   1.914   1.914   1.973
  1.974   2.011   2.068   2.163   2.290   2.290   2.448   2.459
  2.459   2.473   2.505   2.553   2.553   2.647   2.648   2.746
  2.757   2.757   2.811   2.811   2.841   2.934   2.934   2.992
  3.204   3.351   3.352   4.651   4.665   4.665   4.665   4.665
  4.697   4.722   4.729   4.730   4.742   4.754   4.754   4.781
  4.877   4.877   4.882   4.885   4.885   4.910   4.910   4.982
  5.321   5.321   5.349   5.371   5.399   5.399   5.483   5.483
  5.494   5.515   5.517   5.701   5.805   6.027   6.028  10.124
 10.162  10.162  15.085  19.148  19.705  19.705  20.830  20.831
 20.831  20.866  20.957  20.957  21.108  21.109  21.155  27.326
 27.346  27.348  27.390  27.390  27.404  27.412  27.442  27.453
 27.453  27.462  27.524  27.524  27.611  27.639  36.233  36.289
 36.691  36.691  36.761  37.040  37.043  37.044  37.044  37.045
 37.046  37.048  37.050  37.050  37.052  37.053  37.054  37.058
 37.069  37.070  37.070  37.070  37.072  37.074  37.075  37.088
216.018 216.069 216.069
 
 Beta MOs
 -- Occupied --
*******-100.698-100.698  -9.222  -9.222  -9.222  -7.037  -7.037
 -7.037  -7.031  -7.030  -7.030  -7.030  -7.030  -7.030  -6.589
 -0.830  -0.783  -0.783  -0.431  -0.361  -0.361  -0.310  -0.265
 -0.265  -0.255  -0.255  -0.234
 -- Virtual --
  0.178   0.183   0.183   0.207   0.264   0.264   0.271   0.284
  0.284   0.285   0.310   0.318   0.318   0.338   0.344   0.374
  0.374   0.389   0.442   0.442   0.510   0.510   0.531   0.561
  0.561   0.615   0.615   0.624   0.632   0.632   0.661   0.661
  0.689   0.716   0.737   0.737   0.763   0.763   0.773   0.793
  0.793   0.870   0.870   0.894   0.938   0.968   0.968   0.974
  1.045   1.066   1.066   1.150   1.150   1.344   1.344   1.369
  1.378   1.382   1.382   1.397   1.397   1.414   1.421   1.421
  1.430   1.430   1.434   1.455   1.455   1.458   1.488   1.495
  1.538   1.538   1.637   1.643   1.644   1.647   1.654   1.654
  1.716   1.737   1.795   1.795   1.898   1.898   1.921   1.921
  1.976   1.977   2.038   2.069   2.221   2.317   2.317   2.456
  2.469   2.469   2.484   2.506   2.597   2.597   2.664   2.664
  2.759   2.759   2.793   2.840   2.840   2.866   2.945   2.945
  2.997   3.208   3.357   3.357   4.655   4.668   4.668   4.668
  4.668   4.700   4.724   4.732   4.732   4.744   4.755   4.755
  4.784   4.877   4.877   4.882   4.887   4.887   4.909   4.909
  4.983   5.322   5.322   5.350   5.372   5.400   5.400   5.486
  5.486   5.497   5.515   5.517   5.702   5.806   6.028   6.029
 10.126  10.163  10.163  15.097  19.176  19.712  19.712  20.831
 20.833  20.833  20.868  20.957  20.958  21.108  21.108  21.155
 27.327  27.347  27.349  27.390  27.390  27.404  27.412  27.442
 27.454  27.454  27.463  27.524  27.524  27.611  27.638  36.256
 36.293  36.708  36.708  36.765  37.040  37.044  37.044  37.044
 37.045  37.046  37.048  37.050  37.051  37.052  37.053  37.054
 37.058  37.068  37.070  37.070  37.070  37.072  37.074  37.075
 37.088 216.019 216.069 216.069
 --------------------------------------------------------------
 
          Ground-State Mulliken Net Atomic Charges

     Atom                 Charge (a.u.)    Spin (a.u.)
  --------------------------------------------------------
      1 B                     0.233805       0.886615
      2 Cl                   -0.410979       0.037838
      3 Cl                   -0.411431       0.037810
      4 Cl                   -0.411395       0.037738
  --------------------------------------------------------
  Sum of atomic charges =    -1.000000
  Sum of spin   charges =     1.000000

 -----------------------------------------------------------------
                    Cartesian Multipole Moments
 -----------------------------------------------------------------
    Charge (ESU x 10^10)
                -4.8032
    Dipole Moment (Debye)
         X      -0.0004      Y      -0.0001      Z      -0.0001
       Tot       0.0004
    Quadrupole Moments (Debye-Ang)
        XX     -55.4092     XY       0.0003     YY     -55.4084
        XZ       0.0004     YZ       0.0010     ZZ     -47.8245
    Octapole Moments (Debye-Ang^2)
       XXX      -6.0077    XXY      -0.0004    XYY       6.0029
       YYY      -0.0013    XXZ      -0.0014    XYZ      -0.0022
       YYZ      -0.0034    XZZ      -0.0003    YZZ      -0.0005
       ZZZ       0.0002
    Hexadecapole Moments (Debye-Ang^3)
      XXXX    -453.7531   XXXY       0.0000   XXYY    -151.2514
      XYYY       0.0003   YYYY    -453.7529   XXXZ       0.0025
      XXYZ       0.0034   XYYZ       0.0038   YYYZ       0.0101
      XXZZ     -86.7862   XYZZ       0.0006   YYZZ     -86.7859
      XZZZ       0.0011   YZZZ       0.0036   ZZZZ     -63.4139
 -----------------------------------------------------------------
 Total job time:  168.87s(wall), 167.27s(cpu) 
 Tue Apr 30 21:36:53 2013

        *************************************************************
        *                                                           *
        *  Thank you very much for using Q-Chem.  Have a nice day.  *
        *                                                           *
        *************************************************************


0 sent ACK to 0 
now end server 0 ... 
 
**********************************************************************
Job 2 of 3 
**********************************************************************
 
Process 0 of 1 is on cl072.stfx.acenet.ca - thread support 1
initial socket setup ...start
initial socket setup ...done 
now start server 0 ... 

cmd = /usr/bin/ssh clhead /usr/local/qchem/bin/get_hostid 1760390923 > /scratch/tmp/5955878.1.short.q/qchem27072/lic.dat
                  Welcome to Q-Chem
     A Quantum Leap Into The Future Of Chemistry

 Y. Shao, L. Fusti-Molnar, Y. Jung, J. Kussmann, C. Ochsenfeld,
 S. T. Brown, A. T. B. Gilbert, L. V. Slipchenko,S. V. Levchenko,
 D. P. O'Neill, R. A. DiStasio Jr., R. C. Lochan, T. Wang,
 G. J. O. Beran, N. A. Besley, J. M. Herbert, C. Y. Lin,
 T. Van Voorhis, S. H. Chien, A. Sodt, R. P. Steele, 
 V. A. Rassolov, P. E. Maslen, P. P. Korambath, R. D. Adamson,
 B. Austin, J. Baker, E. F. C. Byrd, H. Dachsel, R. J. Doerksen,
 A. Dreuw, B. D. Dunietz, A. D. Dutoi, T. R. Furlani,
 S. R. Gwaltney, A. Heyden, S. Hirata, C.-P. Hsu, G. Kedziora,
 R. Z. Khaliullin, P. Klunzinger, A. M. Lee, M. S. Lee, W. Liang,
 I. Lotan, N. Nair, B. Peters, E. I. Proynov, P. A. Pieniazek, 
 Y. M. Rhee, J. Ritchie, E. Rosta, C. D. Sherrill, 
 A. C. Simmonett, J. E. Subotnik, H. L. Woodcock III,
 W. Zhang, A. T. Bell, A. K. Chakraborty, D. M. Chipman,
 F. J. Keil, A. Warshel, W. J. Hehre, H. F. Schaefer III,
 J. Kong, A. I. Krylov, P. M. W. Gill, M. Head-Gordon,
 Q-Chem, Version 3.1, Q-Chem, Inc., Pittsburgh, PA (2007).

 Additional authors for Version 3.1: 
 Z. Gan, Y. Zhao, N. E. Schultz, D. Truhlar, E. Epifanovsky and M. Oana.

 Additional authors for Version 3.2: 
 R. Baer, B. R. Brooks, D. Casanova, J.-D. Chai, C.-L. Cheng, 
 C. Cramer, D. Crittenden, A. Ghysels, G. Hawkins, E. G. Hohenstein, 
 C. Kelley, W. Kurlancheek, D. Liotard, E. Livshits, P. Manohar, 
 A. Marenich, D. Neuhauser, R. Olson, M. A. Rohrdanz, K. S. Thanthiriwatte, 
 A. J. W. Thom, V. Vanovschi, C. F. Williams, Q. Wu and Z.-Q. You. 


 Intel X86 Linux Version

 Q-chem begins on Tue Apr 30 21:36:56 2013  

 Parallel job on  1  processors
Processing $rem in /usr/local/qchem/config/preferences.

theFileMan(): MAXOPENFILES=974 MAX_SUB_FILE_NUM=16
Maximum size of a physical file is 2.0 GB, maximum size of a tmp-file is 32.0 GB


--------------------------------------------------------------
User input:
--------------------------------------------------------------

$molecule
0,1
B
X,1,1.
X,1,1.,2,90.
Cl,1,R2,2,ALPHA,3,0.,0
Cl,1,R2,2,ALPHA,3,120.,0
Cl,1,R2,2,ALPHA,3,-120.,0

 R2=1.75274159
 ALPHA=90.

$end

$comment
neutral
$end

$xc_functional
C PBE   1.00
X wPBE  1.00
$end


$rem
SYMMETRY_DECOMPOSITION	0
LRC_DFT                 true
exchange 		general
BASIS                   g3large
omega			440
mem_static              760
max_scf_cycles          200
scf_final_print         1
sym_ignore              true
$end

--------------------------------------------------------------
 Writing REM_CC_EA            4
 ----------------------------------------------------
       Standard Nuclear Orientation (Angstroms)
    I     Atom         X            Y            Z
 ----------------------------------------------------
    1      B       0.000000     0.000000     0.000000
    2      Cl      1.752742     0.000000     0.000000
    3      Cl     -0.876371    -1.517919     0.000000
    4      Cl     -0.876371     1.517919     0.000000
 ----------------------------------------------------
 Nuclear Repulsion Energy =   228.1149461282 hartrees
 There are       28 alpha and       28 beta electrons
 Requested basis set is G3large
 There are 67 shells and 240 basis functions

Total QAlloc Memory Limit   2000 MB
Mega-Array Size       743 MB
MEM_STATIC part       760 MB

                       Distance Matrix (Angstroms)
             B (  1)   Cl(  2)   Cl(  3)
   Cl(  2)  1.752742
   Cl(  3)  1.752742  3.035837
   Cl(  4)  1.752742  3.035837  3.035837
 
 A cutoff of  1.0D-08 yielded   1837 shell pairs
 There are  24483 function pairs ( 34446 Cartesian)
Evaluating contribution to one-electron hamiltonian from nuclear
 Smallest overlap matrix eigenvalue = 8.96E-04
 Multipole matrices computed through 2nd order

  Scale SEOQF with 1.000000e-01/1.000000e-01/1.000000e-01

 Standard Electronic Orientation quadrupole field applied
 Nucleus-field energy     =     0.0000000084 hartrees
 Guess from superposition of atomic densities
 Warning:  Energy on first SCF cycle will be non-variational
 Long-range K will be added via erf
 Coulomb attenuation parameter = 0.44 bohr**(-1)
 A restricted Kohn-Sham SCF calculation will be
 performed using Pulay DIIS extrapolation
 Exchange:  wPBE + LR-HF      Correlation:  PBE
 Using SG-1 standard quadrature grid
 SCF converges when DIIS error is below 1.0E-05
 Requested basis set is G3large
 There are 67 shells and 240 basis functions
 A cutoff of  1.0D-08 yielded   1837 shell pairs
 There are  24483 function pairs ( 34446 Cartesian)
 ---------------------------------------
  Cycle       Energy         DIIS Error
 ---------------------------------------
    1   -1405.7796174623      2.20E-02
    2   -1405.1125217405      2.55E-03
    3   -1405.1350367328      2.41E-03
    4   -1405.1705895217      1.83E-04
    5   -1405.1710599164      5.63E-05
    6   -1405.1711211152      1.59E-05
    7   -1405.1711220244      5.17E-06 Convergence criterion met
 ---------------------------------------
 One-Electron    Energy = -2393.8084030478
 Total Coulomb   Energy =   848.9345375544
 Alpha Exchange  Energy =    -6.3164512687
 Beta  Exchange  Energy =    -6.3164512687
 DFT   Exchange  Energy =   -73.6213408514
 DFT Correlation Energy =    -2.1579592789
 Nuclear Repu.   Energy =   228.1149461366
 Nuclear Attr.   Energy = -3796.9287119443
 Kinetic         Energy =  1403.1203088965
 SCF time:  CPU 138.45 s  wall 139.77 s
 Final Alpha MO Eigenvalues
            1           2           3           4           5           6
    1-100.9245536-100.9244862-100.9244120  -9.4490278  -9.4489897  -9.4489294
            7           8           9          10          11          12
    1  -7.2635552  -7.2634608  -7.2633604  -7.2579370  -7.2578857  -7.2578445
           13          14          15          16          17          18
    1  -7.2558046  -7.2556705  -7.2555739  -6.9148721  -1.0661422  -1.0106677
           19          20          21          22          23          24
    1  -1.0106526  -0.6750110  -0.5929730  -0.5929585  -0.5491686  -0.4820540
           25          26          27          28          29          30
    1  -0.4820348  -0.4753252  -0.4753096  -0.4492419   0.0160851   0.0432427
           31          32          33
    1   0.0651957   0.0651986   0.0766319
 Analysis of SCF Wavefunction
 
 --------------------------------------------------------------
                    Orbital Energies (a.u.)
 --------------------------------------------------------------
 
 Alpha MOs
 -- Occupied --
*******-100.924-100.924  -9.449  -9.449  -9.449  -7.264  -7.263
 -7.263  -7.258  -7.258  -7.258  -7.256  -7.256  -7.256  -6.915
 -1.066  -1.011  -1.011  -0.675  -0.593  -0.593  -0.549  -0.482
 -0.482  -0.475  -0.475  -0.449
 -- Virtual --
  0.016   0.043   0.065   0.065   0.077   0.115   0.122   0.122
  0.144   0.144   0.155   0.178   0.183   0.183   0.185   0.199
  0.219   0.219   0.223   0.223   0.301   0.301   0.328   0.358
  0.358   0.417   0.417   0.423   0.426   0.426   0.434   0.474
  0.497   0.523   0.557   0.565   0.566   0.579   0.579   0.602
  0.602   0.655   0.655   0.696   0.744   0.745   0.765   0.765
  0.822   0.841   0.841   0.940   0.940   1.126   1.126   1.159
  1.167   1.172   1.172   1.185   1.185   1.204   1.208   1.208
  1.216   1.216   1.226   1.244   1.244   1.245   1.273   1.290
  1.317   1.317   1.422   1.431   1.431   1.431   1.436   1.436
  1.495   1.499   1.585   1.585   1.680   1.680   1.709   1.709
  1.771   1.771   1.791   1.853   1.921   2.055   2.055   2.232
  2.238   2.238   2.253   2.296   2.311   2.311   2.410   2.410
  2.502   2.544   2.544   2.578   2.578   2.609   2.686   2.686
  2.760   2.967   3.115   3.115   4.430   4.444   4.444   4.444
  4.444   4.476   4.499   4.507   4.507   4.519   4.532   4.532
  4.557   4.653   4.653   4.659   4.661   4.661   4.688   4.688
  4.758   5.097   5.098   5.126   5.148   5.177   5.177   5.256
  5.257   5.267   5.292   5.293   5.475   5.580   5.796   5.797
  9.900   9.938   9.938  14.780  18.841  19.395  19.395  20.606
 20.606  20.606  20.641  20.733  20.733  20.882  20.882  20.928
 27.100  27.120  27.123  27.164  27.164  27.178  27.186  27.216
 27.226  27.227  27.235  27.297  27.298  27.384  27.412  35.919
 35.973  36.376  36.376  36.446  36.814  36.817  36.818  36.818
 36.819  36.820  36.822  36.823  36.824  36.826  36.827  36.828
 36.831  36.842  36.843  36.843  36.844  36.846  36.848  36.848
 36.862 215.792 215.843 215.843
 --------------------------------------------------------------
 
          Ground-State Mulliken Net Atomic Charges

     Atom                 Charge (a.u.)
  ----------------------------------------
      1 B                     0.537408
      2 Cl                   -0.178895
      3 Cl                   -0.179208
      4 Cl                   -0.179304
  ----------------------------------------
  Sum of atomic charges =     0.000000

 -----------------------------------------------------------------
                    Cartesian Multipole Moments
 -----------------------------------------------------------------
    Charge (ESU x 10^10)
                 0.0000
    Dipole Moment (Debye)
         X      -0.0001      Y      -0.0007      Z       0.0000
       Tot       0.0007
    Quadrupole Moments (Debye-Ang)
        XX     -43.0262     XY       0.0006     YY     -43.0256
        XZ       0.0004     YZ      -0.0010     ZZ     -42.0717
    Octapole Moments (Debye-Ang^2)
       XXX       3.7359    XXY      -0.0011    XYY      -3.7402
       YYY      -0.0034    XXZ       0.0002    XYZ       0.0006
       YYZ      -0.0002    XZZ      -0.0003    YZZ      -0.0004
       ZZZ       0.0000
    Hexadecapole Moments (Debye-Ang^3)
      XXXX    -374.2772   XXXY      -0.0018   XXYY    -124.7607
      XYYY       0.0012   YYYY    -374.2769   XXXZ       0.0033
      XXYZ      -0.0025   XYYZ       0.0011   YYYZ      -0.0077
      XXZZ     -73.3031   XYZZ       0.0005   YYZZ     -73.3032
      XZZZ       0.0004   YZZZ      -0.0009   ZZZZ     -47.5095
 -----------------------------------------------------------------
 Total job time:  140.11s(wall), 138.78s(cpu) 
 Tue Apr 30 21:39:16 2013

        *************************************************************
        *                                                           *
        *  Thank you very much for using Q-Chem.  Have a nice day.  *
        *                                                           *
        *************************************************************


0 sent ACK to 0 
now end server 0 ... 
 
**********************************************************************
Job 3 of 3 
**********************************************************************
 
Process 0 of 1 is on cl072.stfx.acenet.ca - thread support 1
initial socket setup ...start
initial socket setup ...done 
now start server 0 ... 

cmd = /usr/bin/ssh clhead /usr/local/qchem/bin/get_hostid 152444333 > /scratch/tmp/5955878.1.short.q/qchem27072/lic.dat
                  Welcome to Q-Chem
     A Quantum Leap Into The Future Of Chemistry

 Y. Shao, L. Fusti-Molnar, Y. Jung, J. Kussmann, C. Ochsenfeld,
 S. T. Brown, A. T. B. Gilbert, L. V. Slipchenko,S. V. Levchenko,
 D. P. O'Neill, R. A. DiStasio Jr., R. C. Lochan, T. Wang,
 G. J. O. Beran, N. A. Besley, J. M. Herbert, C. Y. Lin,
 T. Van Voorhis, S. H. Chien, A. Sodt, R. P. Steele, 
 V. A. Rassolov, P. E. Maslen, P. P. Korambath, R. D. Adamson,
 B. Austin, J. Baker, E. F. C. Byrd, H. Dachsel, R. J. Doerksen,
 A. Dreuw, B. D. Dunietz, A. D. Dutoi, T. R. Furlani,
 S. R. Gwaltney, A. Heyden, S. Hirata, C.-P. Hsu, G. Kedziora,
 R. Z. Khaliullin, P. Klunzinger, A. M. Lee, M. S. Lee, W. Liang,
 I. Lotan, N. Nair, B. Peters, E. I. Proynov, P. A. Pieniazek, 
 Y. M. Rhee, J. Ritchie, E. Rosta, C. D. Sherrill, 
 A. C. Simmonett, J. E. Subotnik, H. L. Woodcock III,
 W. Zhang, A. T. Bell, A. K. Chakraborty, D. M. Chipman,
 F. J. Keil, A. Warshel, W. J. Hehre, H. F. Schaefer III,
 J. Kong, A. I. Krylov, P. M. W. Gill, M. Head-Gordon,
 Q-Chem, Version 3.1, Q-Chem, Inc., Pittsburgh, PA (2007).

 Additional authors for Version 3.1: 
 Z. Gan, Y. Zhao, N. E. Schultz, D. Truhlar, E. Epifanovsky and M. Oana.

 Additional authors for Version 3.2: 
 R. Baer, B. R. Brooks, D. Casanova, J.-D. Chai, C.-L. Cheng, 
 C. Cramer, D. Crittenden, A. Ghysels, G. Hawkins, E. G. Hohenstein, 
 C. Kelley, W. Kurlancheek, D. Liotard, E. Livshits, P. Manohar, 
 A. Marenich, D. Neuhauser, R. Olson, M. A. Rohrdanz, K. S. Thanthiriwatte, 
 A. J. W. Thom, V. Vanovschi, C. F. Williams, Q. Wu and Z.-Q. You. 


 Intel X86 Linux Version

 Q-chem begins on Tue Apr 30 21:39:19 2013  

 Parallel job on  1  processors
Processing $rem in /usr/local/qchem/config/preferences.

theFileMan(): MAXOPENFILES=974 MAX_SUB_FILE_NUM=16
Maximum size of a physical file is 2.0 GB, maximum size of a tmp-file is 32.0 GB


--------------------------------------------------------------
User input:
--------------------------------------------------------------

$molecule
1,2
B
X,1,1.
X,1,1.,2,90.
Cl,1,R2,2,ALPHA,3,0.,0
Cl,1,R2,2,ALPHA,3,120.,0
Cl,1,R2,2,ALPHA,3,-120.,0

 R2=1.75274159
 ALPHA=90.

$end

$comment
positive
$end

$xc_functional
C PBE   1.00
X wPBE  1.00
$end

$rem
SYMMETRY_DECOMPOSITION	0
LRC_DFT                 true
exchange 		general
BASIS                   g3large
omega			440
mem_static              760
max_scf_cycles          200
scf_final_print         1
sym_ignore              true
$end

--------------------------------------------------------------
 Writing REM_CC_EA            4
 ----------------------------------------------------
       Standard Nuclear Orientation (Angstroms)
    I     Atom         X            Y            Z
 ----------------------------------------------------
    1      B       0.000000     0.000000     0.000000
    2      Cl      1.752742     0.000000     0.000000
    3      Cl     -0.876371    -1.517919     0.000000
    4      Cl     -0.876371     1.517919     0.000000
 ----------------------------------------------------
 Nuclear Repulsion Energy =   228.1149461282 hartrees
 There are       28 alpha and       27 beta electrons
 Requested basis set is G3large
 There are 67 shells and 240 basis functions

Total QAlloc Memory Limit   2000 MB
Mega-Array Size       743 MB
MEM_STATIC part       760 MB

                       Distance Matrix (Angstroms)
             B (  1)   Cl(  2)   Cl(  3)
   Cl(  2)  1.752742
   Cl(  3)  1.752742  3.035837
   Cl(  4)  1.752742  3.035837  3.035837
 
 A cutoff of  1.0D-08 yielded   1837 shell pairs
 There are  24483 function pairs ( 34446 Cartesian)
Evaluating contribution to one-electron hamiltonian from nuclear
 Smallest overlap matrix eigenvalue = 8.96E-04
 Multipole matrices computed through 2nd order

  Scale SEOQF with 1.000000e-01/1.000000e-01/1.000000e-01

 Standard Electronic Orientation quadrupole field applied
 Nucleus-field energy     =     0.0000000084 hartrees
 Guess from superposition of atomic densities
 Warning:  Energy on first SCF cycle will be non-variational
 Long-range K will be added via erf
 Coulomb attenuation parameter = 0.44 bohr**(-1)
 An unrestricted Kohn-Sham SCF calculation will be
 performed using Pulay DIIS extrapolation
 Exchange:  wPBE + LR-HF      Correlation:  PBE
 Using SG-1 standard quadrature grid
 SCF converges when DIIS error is below 1.0E-05
 Requested basis set is G3large
 There are 67 shells and 240 basis functions
 A cutoff of  1.0D-08 yielded   1837 shell pairs
 There are  24483 function pairs ( 34446 Cartesian)
 Warning!  Inaccurate integrated density:
   Number of electrons =    55
   Numerical integral  =    55.999955102590
   Relative error      =     1.8181001865 %
 ---------------------------------------
  Cycle       Energy         DIIS Error
 ---------------------------------------
    1   -1405.7796174623      2.20E-02
    2   -1404.6132453060      3.14E-03
    3   -1404.6535425807      3.18E-03
    4   -1404.7198898015      3.39E-04
    5   -1404.7214097739      1.41E-04
    6   -1404.7219794077      5.60E-05
    7   -1404.7223074060      4.36E-05
    8   -1404.7225132132      3.13E-05
    9   -1404.7228084334      2.37E-05
   10   -1404.7230270390      1.94E-05
   11   -1404.7232542300      1.54E-05
   12   -1404.7233646506      1.15E-05
   13   -1404.7234400212      8.80E-06 Convergence criterion met
 ---------------------------------------
 One-Electron    Energy = -2379.7025575288
 Total Coulomb   Energy =   834.8672173471
 Alpha Exchange  Energy =    -6.3380505090
 Beta  Exchange  Energy =    -6.0738657028
 DFT   Exchange  Energy =   -73.4735833846
 DFT Correlation Energy =    -2.1175463797
 Nuclear Repu.   Energy =   228.1149461366
 Nuclear Attr.   Energy = -3782.3270287256
 Kinetic         Energy =  1402.6244711968
 <S^2> = 0.7609
 SCF time:  CPU 308.00 s  wall 312.41 s
 Final Alpha MO Eigenvalues
            1           2           3           4           5           6
    1-101.2336347-101.1698559-101.1694572  -9.7534614  -9.6912170  -9.6908213
            7           8           9          10          11          12
    1  -7.5711582  -7.5646906  -7.5583921  -7.5051218  -7.5047647  -7.5022235
           13          14          15          16          17          18
    1  -7.5017708  -7.4984268  -7.4980509  -7.1490745  -1.3285634  -1.2673751
           19          20          21          22          23          24
    1  -1.2438996  -0.9188427  -0.8403717  -0.8361526  -0.7900991  -0.7569212
           25          26          27          28          29          30
    1  -0.7241662  -0.7229068  -0.6963622  -0.6955167  -0.2052742  -0.1126882
           31          32          33
    1  -0.0866940  -0.0652412  -0.0624954
 Final Beta MO Eigenvalues
            1           2           3           4           5           6
    1-101.2297658-101.1681274-101.1677294  -9.7499589  -9.6896660  -9.6892731
            7           8           9          10          11          12
    1  -7.5622625  -7.5608175  -7.5563254  -7.5037598  -7.5032864  -7.4979112
           13          14          15          16          17          18
    1  -7.4976147  -7.4975051  -7.4970977  -7.1494068  -1.3068622  -1.2474474
           19          20          21          22          23          24
    1  -1.2299840  -0.9102162  -0.8280740  -0.8069231  -0.7846320  -0.7163154
           25          26          27          28          29          30
    1  -0.6916290  -0.6686563  -0.6635845  -0.4443684  -0.2052574  -0.1093241
           31          32
    1  -0.0831801  -0.0633494
 Analysis of SCF Wavefunction
 
 --------------------------------------------------------------
                    Orbital Energies (a.u.)
 --------------------------------------------------------------
 
 Alpha MOs
 -- Occupied --
*******-101.170-101.169  -9.753  -9.691  -9.691  -7.571  -7.565
 -7.558  -7.505  -7.505  -7.502  -7.502  -7.498  -7.498  -7.149
 -1.329  -1.267  -1.244  -0.919  -0.840  -0.836  -0.790  -0.757
 -0.724  -0.723  -0.696  -0.696
 -- Virtual --
 -0.205  -0.113  -0.087  -0.065  -0.062  -0.058  -0.053  -0.048
 -0.013  -0.002   0.003   0.020   0.020   0.027   0.032   0.035
  0.042   0.063   0.072   0.073   0.077   0.090   0.119   0.140
  0.148   0.196   0.209   0.212   0.223   0.224   0.246   0.282
  0.284   0.339   0.351   0.373   0.383   0.391   0.394   0.403
  0.419   0.437   0.440   0.506   0.530   0.532   0.565   0.570
  0.600   0.633   0.636   0.723   0.726   0.884   0.890   0.920
  0.936   0.938   0.942   0.951   0.960   0.971   0.976   0.980
  0.982   0.995   1.008   1.009   1.021   1.030   1.060   1.061
  1.075   1.091   1.191   1.199   1.201   1.218   1.221   1.224
  1.275   1.284   1.355   1.356   1.454   1.458   1.494   1.501
  1.547   1.549   1.567   1.618   1.701   1.828   1.837   1.990
  2.006   2.016   2.032   2.049   2.083   2.088   2.172   2.180
  2.273   2.287   2.318   2.342   2.360   2.386   2.449   2.454
  2.526   2.730   2.875   2.892   4.138   4.149   4.185   4.195
  4.198   4.224   4.230   4.238   4.260   4.279   4.281   4.286
  4.307   4.381   4.381   4.412   4.419   4.428   4.437   4.445
  4.512   4.810   4.849   4.855   4.898   4.916   4.936   4.981
  5.012   5.022   5.031   5.052   5.220   5.322   5.531   5.562
  9.623   9.682   9.701  14.546  18.607  19.161  19.162  20.315
 20.328  20.367  20.394  20.451  20.486  20.594  20.641  20.679
 26.809  26.862  26.864  26.875  26.889  26.909  26.936  26.942
 26.960  26.985  26.993  27.036  27.048  27.113  27.158  35.685
 35.739  36.142  36.142  36.212  36.511  36.513  36.520  36.522
 36.536  36.537  36.551  36.574  36.575  36.576  36.578  36.583
 36.583  36.584  36.586  36.597  36.601  36.601  36.603  36.606
 36.616 215.508 215.575 215.599
 
 Beta MOs
 -- Occupied --
*******-101.168-101.168  -9.750  -9.690  -9.689  -7.562  -7.561
 -7.556  -7.504  -7.503  -7.498  -7.498  -7.498  -7.497  -7.149
 -1.307  -1.247  -1.230  -0.910  -0.828  -0.807  -0.785  -0.716
 -0.692  -0.669  -0.664
 -- Virtual --
 -0.444  -0.205  -0.109  -0.083  -0.063  -0.060  -0.057  -0.048
 -0.046  -0.012  -0.002   0.004   0.022   0.029   0.030   0.035
  0.037   0.044   0.063   0.075   0.076   0.087   0.092   0.128
  0.154   0.159   0.213   0.215   0.219   0.229   0.229   0.245
  0.287   0.299   0.341   0.353   0.383   0.388   0.395   0.397
  0.405   0.421   0.445   0.448   0.507   0.533   0.542   0.568
  0.572   0.604   0.633   0.636   0.730   0.733   0.896   0.899
  0.937   0.942   0.947   0.953   0.957   0.968   0.981   0.984
  0.990   0.993   1.002   1.016   1.020   1.027   1.038   1.062
  1.074   1.086   1.099   1.200   1.204   1.205   1.222   1.226
  1.229   1.278   1.288   1.365   1.366   1.459   1.464   1.496
  1.504   1.557   1.557   1.571   1.627   1.701   1.829   1.837
  1.995   2.009   2.018   2.034   2.070   2.081   2.087   2.174
  2.182   2.273   2.306   2.328   2.343   2.360   2.386   2.451
  2.455   2.530   2.731   2.877   2.893   4.172   4.181   4.204
  4.207   4.215   4.242   4.247   4.256   4.271   4.289   4.292
  4.300   4.314   4.393   4.405   4.415   4.427   4.432   4.448
  4.458   4.520   4.820   4.859   4.860   4.904   4.922   4.941
  4.983   5.020   5.023   5.032   5.057   5.225   5.330   5.534
  5.564   9.630   9.685   9.704  14.546  18.607  19.160  19.161
 20.318  20.340  20.368  20.395  20.462  20.493  20.598  20.643
 20.680  26.817  26.866  26.872  26.880  26.896  26.912  26.940
 26.945  26.964  26.986  26.993  27.039  27.052  27.116  27.160
 35.685  35.739  36.141  36.142  36.211  36.515  36.516  36.523
 36.525  36.537  36.540  36.552  36.576  36.577  36.577  36.579
 36.584  36.584  36.585  36.588  36.597  36.601  36.602  36.604
 36.606  36.616 215.512 215.577 215.601
 --------------------------------------------------------------
 
          Ground-State Mulliken Net Atomic Charges

     Atom                 Charge (a.u.)    Spin (a.u.)
  --------------------------------------------------------
      1 B                     0.569928      -0.048692
      2 Cl                    0.084609       0.242253
      3 Cl                    0.261163       0.564494
      4 Cl                    0.084300       0.241945
  --------------------------------------------------------
  Sum of atomic charges =     1.000000
  Sum of spin   charges =     1.000000

 -----------------------------------------------------------------
                    Cartesian Multipole Moments
 -----------------------------------------------------------------
    Charge (ESU x 10^10)
                 4.8032
    Dipole Moment (Debye)
         X      -0.7014      Y      -1.2156      Z       0.0015
       Tot       1.4034
    Quadrupole Moments (Debye-Ang)
        XX     -30.7751     XY       1.2660     YY     -29.3184
        XZ       0.0234     YZ       0.0007     ZZ     -38.9934
    Octapole Moments (Debye-Ang^2)
       XXX       7.9593    XXY      -1.3468    XYY     -11.0669
       YYY      -4.0423    XXZ      -0.0508    XYZ      -0.0054
       YYZ       0.0629    XZZ      -0.3059    YZZ      -0.5304
       ZZZ       0.0023
    Hexadecapole Moments (Debye-Ang^3)
      XXXX    -310.6229   XXXY       5.1194   XXYY    -103.1283
      XYYY       2.4178   YYYY    -301.9682   XXXZ       0.0880
      XXYZ       0.0256   XYYZ       0.0235   YYYZ      -0.0074
      XXZZ     -65.7429   XYZZ       0.5738   YYZZ     -65.0828
      XZZZ       0.0141   YZZZ       0.0012   ZZZZ     -40.4350
 -----------------------------------------------------------------
 Total job time:  312.77s(wall), 308.34s(cpu) 
 Tue Apr 30 21:44:31 2013

        *************************************************************
        *                                                           *
        *  Thank you very much for using Q-Chem.  Have a nice day.  *
        *                                                           *
        *************************************************************


0 sent ACK to 0 
now end server 0 ... 
