Process 0 of 1 is on cl183 - thread support 1
initial socket setup ...start
initial socket setup ...done 
now start server 0 ... 

cmd = /usr/bin/ssh clhead /usr/local/qchem/bin/get_hostid 1072227620 > /tmp/1591249.1.medium.q/qchem18732/lic.dat

cmd = /usr/bin/ssh clhead /usr/local/qchem/bin/get_hostid 1072227620 > /tmp/1591249.1.medium.q/qchem18732/lic.dat

cmd = /usr/bin/ssh clhead /usr/local/qchem/bin/get_hostid 1072227620 > /tmp/1591249.1.medium.q/qchem18732/lic.dat

cmd = /usr/bin/ssh clhead /usr/local/qchem/bin/get_hostid 1072227620 > /tmp/1591249.1.medium.q/qchem18732/lic.dat

cmd = /usr/bin/ssh clhead /usr/local/qchem/bin/get_hostid 1072227620 > /tmp/1591249.1.medium.q/qchem18732/lic.dat
                  Welcome to Q-Chem
     A Quantum Leap Into The Future Of Chemistry

 Y. Shao, L. Fusti-Molnar, Y. Jung, J. Kussmann, C. Ochsenfeld,
 S. T. Brown, A. T. B. Gilbert, L. V. Slipchenko,S. V. Levchenko,
 D. P. O'Neill, R. A. DiStasio Jr., R. C. Lochan, T. Wang,
 G. J. O. Beran, N. A. Besley, J. M. Herbert, C. Y. Lin,
 T. Van Voorhis, S. H. Chien, A. Sodt, R. P. Steele, 
 V. A. Rassolov, P. E. Maslen, P. P. Korambath, R. D. Adamson,
 B. Austin, J. Baker, E. F. C. Byrd, H. Dachsel, R. J. Doerksen,
 A. Dreuw, B. D. Dunietz, A. D. Dutoi, T. R. Furlani,
 S. R. Gwaltney, A. Heyden, S. Hirata, C.-P. Hsu, G. Kedziora,
 R. Z. Khaliullin, P. Klunzinger, A. M. Lee, M. S. Lee, W. Liang,
 I. Lotan, N. Nair, B. Peters, E. I. Proynov, P. A. Pieniazek, 
 Y. M. Rhee, J. Ritchie, E. Rosta, C. D. Sherrill, 
 A. C. Simmonett, J. E. Subotnik, H. L. Woodcock III,
 W. Zhang, A. T. Bell, A. K. Chakraborty, D. M. Chipman,
 F. J. Keil, A. Warshel, W. J. Hehre, H. F. Schaefer III,
 J. Kong, A. I. Krylov, P. M. W. Gill, M. Head-Gordon,
 Q-Chem, Version 3.1, Q-Chem, Inc., Pittsburgh, PA (2007).

 Additional authors for Version 3.1: 
 Z. Gan, Y. Zhao, N. E. Schultz, D. Truhlar, E. Epifanovsky and M. Oana.

 Additional authors for Version 3.2: 
 R. Baer, B. R. Brooks, D. Casanova, J.-D. Chai, C.-L. Cheng, 
 C. Cramer, D. Crittenden, A. Ghysels, G. Hawkins, E. G. Hohenstein, 
 C. Kelley, W. Kurlancheek, D. Liotard, E. Livshits, P. Manohar, 
 A. Marenich, D. Neuhauser, R. Olson, M. A. Rohrdanz, K. S. Thanthiriwatte, 
 A. J. W. Thom, V. Vanovschi, C. F. Williams, Q. Wu and Z.-Q. You. 


 Intel X86 Linux Version

 Q-chem begins on Fri Mar  7 23:02:00 2014  

 Parallel job on  1  processors
Processing $rem in /usr/local/qchem/config/preferences.

theFileMan(): MAXOPENFILES=974 MAX_SUB_FILE_NUM=16
Maximum size of a physical file is 2.0 GB, maximum size of a tmp-file is 32.0 GB


--------------------------------------------------------------
User input:
--------------------------------------------------------------

$molecule
-1,2
Si        -0.00009        0.00000        0.00110
Cl         0.00019        0.00000        2.01284
Cl         1.89621        0.00000       -0.67116
Cl        -0.94815        1.64199       -0.67139
Cl        -0.94815       -1.64199       -0.67139
$end

$comment
negative
$end

$xc_functional
C PBE   1.00
X wPBE  1.00
$end

$rem
SYMMETRY_DECOMPOSITION	0
exchange 		general
LRC_DFT                 true
BASIS                   g3large
omega			450
mem_static              760
max_scf_cycles          200
scf_final_print         1
sym_ignore              true
$end

--------------------------------------------------------------
 Writing REM_CC_EA            5
 ----------------------------------------------------
       Standard Nuclear Orientation (Angstroms)
    I     Atom         X            Y            Z
 ----------------------------------------------------
    1      Si     -0.000090     0.000000     0.001100
    2      Cl      0.000190     0.000000     2.012840
    3      Cl      1.896210     0.000000    -0.671160
    4      Cl     -0.948150     1.641990    -0.671390
    5      Cl     -0.948150    -1.641990    -0.671390
 ----------------------------------------------------
 Nuclear Repulsion Energy =   529.7173585981 hartrees
 There are       42 alpha and       41 beta electrons
 Requested basis set is G3large
 There are 95 shells and 330 basis functions

Total QAlloc Memory Limit   2000 MB
Mega-Array Size       743 MB
MEM_STATIC part       760 MB

                       Distance Matrix (Angstroms)
             Si(  1)   Cl(  2)   Cl(  3)   Cl(  4)
   Cl(  2)  2.011740
   Cl(  3)  2.011936  3.286145
   Cl(  4)  2.011763  3.286422  3.284283
   Cl(  5)  2.011763  3.286422  3.284283  3.283980
 
 A cutoff of  1.0D-08 yielded   3472 shell pairs
 There are  43435 function pairs ( 61990 Cartesian)
Evaluating contribution to one-electron hamiltonian from nuclear
 Smallest overlap matrix eigenvalue = 2.86E-04
 Multipole matrices computed through 2nd order

  Scale SEOQF with 1.000000e-01/1.000000e-01/1.000000e-01

 Standard Electronic Orientation quadrupole field applied
 Guess from superposition of atomic densities
 Warning:  Energy on first SCF cycle will be non-variational
 Long-range K will be added via erf
 Coulomb attenuation parameter = 0.45 bohr**(-1)
 An unrestricted Kohn-Sham SCF calculation will be
 performed using Pulay DIIS extrapolation
 Exchange:  wPBE + LR-HF      Correlation:  PBE
 Using SG-1 standard quadrature grid
 SCF converges when DIIS error is below 1.0E-05
 Requested basis set is G3large
 There are 95 shells and 330 basis functions
 A cutoff of  1.0D-08 yielded   3472 shell pairs
 There are  43435 function pairs ( 61990 Cartesian)
 Warning!  Inaccurate integrated density:
   Number of electrons =    83
   Numerical integral  =    82.000036047218
   Relative error      =    -1.2047758467 %
 ---------------------------------------
  Cycle       Energy         DIIS Error
 ---------------------------------------
    1   -2130.7530820276      1.94E-02
    2   -2129.8071785143      1.87E-03
    3   -2129.8507611558      1.30E-03
    4   -2129.8664410907      2.37E-04
    5   -2129.8680983834      9.23E-05
    6   -2129.8691101144      7.43E-05
    7   -2129.8700184735      5.49E-05
    8   -2129.8714727029      4.88E-05
    9   -2129.8734507900      3.25E-05
   10   -2129.8747495566      2.02E-05
   11   -2129.8745109362      3.71E-05
   12   -2129.8751353611      3.71E-05
   13   -2129.8751523254      1.79E-05
   14   -2129.8751538730      8.21E-06 Convergence criterion met
 ---------------------------------------
 One-Electron    Energy = -4010.8347196274
 Total Coulomb   Energy =  1484.7896814659
 Alpha Exchange  Energy =    -9.5568579519
 Beta  Exchange  Energy =    -9.4859361263
 DFT   Exchange  Energy =  -111.2820330109
 DFT Correlation Energy =    -3.2226472205
 Nuclear Repu.   Energy =   529.7173585980
 Nuclear Attr.   Energy = -6138.0811543467
 Kinetic         Energy =  2127.2464347193
 <S^2> = 0.7508
 SCF time:  CPU 895.02 s  wall 901.74 s
 Final Alpha MO Eigenvalues
            1           2           3           4           5           6
    1-100.7888509-100.7888502-100.7888359-100.7887620 -65.6484056  -9.3144259
            7           8           9          10          11          12
    1  -9.3144180  -9.3144177  -9.3143303  -7.1282120  -7.1282110  -7.1281506
           13          14          15          16          17          18
    1  -7.1279725  -7.1219303  -7.1219178  -7.1219133  -7.1218650  -7.1218584
           19          20          21          22          23          24
    1  -7.1218578  -7.1218308  -7.1218295  -5.2968209  -3.6963992  -3.6963736
           25          26          27          28          29          30
    1  -3.6963680  -0.9362790  -0.8785449  -0.8785408  -0.8785178  -0.5622813
           31          32          33          34          35          36
    1  -0.4500152  -0.4500054  -0.4499974  -0.3772852  -0.3772664  -0.3604514
           37          38          39          40          41          42
    1  -0.3603287  -0.3602988  -0.3278302  -0.3278277  -0.3278094   0.0332561
           43          44          45          46          47
    1   0.1562844   0.1563293   0.1564185   0.1941011   0.2114181
 Final Beta MO Eigenvalues
            1           2           3           4           5           6
    1-100.7886088-100.7886074-100.7885938-100.7885158 -65.6479210  -9.3141549
            7           8           9          10          11          12
    1  -9.3141476  -9.3141474  -9.3140549  -7.1278369  -7.1278355  -7.1277699
           13          14          15          16          17          18
    1  -7.1275791  -7.1216991  -7.1216821  -7.1216788  -7.1216281  -7.1216223
           19          20          21          22          23          24
    1  -7.1216220  -7.1215904  -7.1215903  -5.2961649  -3.6957221  -3.6956991
           25          26          27          28          29          30
    1  -3.6956917  -0.9341888  -0.8765094  -0.8765030  -0.8764716  -0.5583082
           31          32          33          34          35          36
    1  -0.4487453  -0.4487248  -0.4487165  -0.3767046  -0.3766877  -0.3586416
           37          38          39          40          41          42
    1  -0.3585335  -0.3585055  -0.3274620  -0.3274594  -0.3274463   0.1436984
           43          44          45          46
    1   0.1705259   0.1707144   0.1707817   0.2043349
 Analysis of SCF Wavefunction
 
 --------------------------------------------------------------
                    Orbital Energies (a.u.)
 --------------------------------------------------------------
 
 Alpha MOs
 -- Occupied --
*******-100.789-100.789-100.789 -65.648  -9.314  -9.314  -9.314
 -9.314  -7.128  -7.128  -7.128  -7.128  -7.122  -7.122  -7.122
 -7.122  -7.122  -7.122  -7.122  -7.122  -5.297  -3.696  -3.696
 -3.696  -0.936  -0.879  -0.879  -0.879  -0.562  -0.450  -0.450
 -0.450  -0.377  -0.377  -0.360  -0.360  -0.360  -0.328  -0.328
 -0.328   0.033
 -- Virtual --
  0.156   0.156   0.156   0.194   0.211   0.211   0.211   0.237
  0.237   0.252   0.252   0.252   0.275   0.275   0.275   0.277
  0.303   0.303   0.303   0.307   0.316   0.316   0.316   0.372
  0.372   0.427   0.427   0.427   0.492   0.492   0.493   0.526
  0.526   0.526   0.541   0.541   0.553   0.553   0.553   0.599
  0.599   0.599   0.615   0.670   0.670   0.670   0.695   0.695
  0.695   0.731   0.731   0.731   0.810   0.823   0.823   0.823
  0.826   0.826   0.826   0.865   0.865   0.865   0.929   0.929
  1.016   1.027   1.027   1.027   1.050   1.050   1.085   1.085
  1.085   1.148   1.148   1.148   1.306   1.306   1.306   1.317
  1.317   1.317   1.335   1.335   1.346   1.346   1.346   1.360
  1.360   1.361   1.373   1.418   1.425   1.425   1.425   1.452
  1.452   1.453   1.477   1.477   1.478   1.479   1.479   1.573
  1.574   1.574   1.594   1.595   1.595   1.762   1.762   1.763
  1.769   1.773   1.773   1.773   1.838   1.838   1.839   1.859
  1.859   1.860   1.921   1.921   1.922   1.974   1.975   2.085
  2.208   2.208   2.208   2.457   2.461   2.461   2.481   2.482
  2.482   2.496   2.497   2.497   2.606   2.606   2.607   2.715
  2.716   2.716   2.810   2.810   2.810   2.909   3.975   3.976
  4.126   4.127   4.129   4.612   4.617   4.617   4.617   4.618
  4.618   4.618   4.641   4.641   4.655   4.721   4.721   4.722
  4.730   4.730   4.730   4.742   4.742   4.796   4.822   4.823
  4.823   4.825   4.825   4.826   4.840   4.840   4.840   5.286
  5.287   5.288   5.289   5.290   5.302   5.303   5.304   5.386
  5.386   5.386   5.465   5.466   5.466   5.492   5.505   5.506
  5.688   5.690   5.690   6.619  10.049  10.049  10.049  10.197
 11.820  11.820  11.820  17.724  17.799  17.805  17.880  17.937
 20.748  20.749  20.780  20.781  20.781  20.855  20.855  20.855
 21.038  21.039  21.039  21.077  22.254  22.257  22.262  22.264
 22.264  22.266  22.276  27.254  27.257  27.263  27.276  27.300
 27.318  27.330  27.330  27.339  27.347  27.360  27.372  27.376
 27.378  27.382  27.405  27.423  27.426  27.455  27.456  36.965
 36.965  36.965  36.965  36.966  36.966  36.967  36.968  36.969
 36.971  36.976  36.978  36.979  36.979  36.980  36.981  36.981
 36.983  36.989  36.989  36.991  36.992  36.992  36.992  36.992
 36.993  36.993  36.994 141.578 215.962 215.962 215.962 216.141
 
 Beta MOs
 -- Occupied --
*******-100.789-100.789-100.789 -65.648  -9.314  -9.314  -9.314
 -9.314  -7.128  -7.128  -7.128  -7.128  -7.122  -7.122  -7.122
 -7.122  -7.122  -7.122  -7.122  -7.122  -5.296  -3.696  -3.696
 -3.696  -0.934  -0.877  -0.877  -0.876  -0.558  -0.449  -0.449
 -0.449  -0.377  -0.377  -0.359  -0.359  -0.359  -0.327  -0.327
 -0.327
 -- Virtual --
  0.144   0.171   0.171   0.171   0.204   0.216   0.216   0.216
  0.239   0.239   0.255   0.255   0.255   0.275   0.275   0.275
  0.287   0.303   0.303   0.303   0.309   0.317   0.317   0.317
  0.373   0.373   0.428   0.428   0.428   0.491   0.491   0.491
  0.527   0.527   0.527   0.542   0.542   0.555   0.555   0.555
  0.600   0.600   0.600   0.618   0.670   0.670   0.670   0.694
  0.696   0.696   0.733   0.733   0.733   0.813   0.823   0.823
  0.823   0.827   0.827   0.827   0.865   0.865   0.865   0.931
  0.931   1.017   1.028   1.028   1.028   1.050   1.050   1.086
  1.086   1.086   1.149   1.149   1.149   1.308   1.308   1.308
  1.318   1.318   1.318   1.337   1.337   1.347   1.347   1.347
  1.362   1.362   1.362   1.374   1.418   1.426   1.427   1.427
  1.453   1.453   1.453   1.478   1.478   1.478   1.480   1.480
  1.574   1.575   1.575   1.594   1.596   1.596   1.762   1.762
  1.763   1.769   1.773   1.774   1.774   1.838   1.838   1.839
  1.859   1.859   1.859   1.922   1.922   1.923   1.974   1.974
  2.086   2.209   2.209   2.209   2.461   2.461   2.461   2.482
  2.482   2.483   2.500   2.500   2.500   2.607   2.607   2.607
  2.718   2.719   2.719   2.811   2.811   2.811   2.911   3.976
  3.977   4.127   4.128   4.130   4.613   4.618   4.618   4.618
  4.619   4.619   4.619   4.643   4.643   4.656   4.722   4.722
  4.723   4.731   4.731   4.732   4.743   4.743   4.797   4.824
  4.824   4.824   4.827   4.827   4.827   4.841   4.842   4.842
  5.287   5.287   5.289   5.290   5.290   5.302   5.303   5.304
  5.386   5.386   5.386   5.466   5.466   5.466   5.492   5.506
  5.506   5.689   5.690   5.691   6.620  10.049  10.049  10.049
 10.197  11.820  11.821  11.821  17.725  17.800  17.805  17.881
 17.937  20.749  20.749  20.781  20.781  20.781  20.855  20.855
 20.855  21.039  21.039  21.039  21.078  22.255  22.257  22.263
 22.265  22.265  22.267  22.277  27.254  27.257  27.263  27.276
 27.301  27.318  27.331  27.331  27.340  27.347  27.360  27.373
 27.376  27.378  27.383  27.405  27.424  27.427  27.456  27.456
 36.965  36.965  36.965  36.966  36.966  36.966  36.967  36.969
 36.969  36.971  36.976  36.978  36.979  36.979  36.980  36.981
 36.982  36.983  36.989  36.989  36.991  36.992  36.992  36.992
 36.993  36.993  36.994  36.994 141.579 215.962 215.962 215.962
216.141
 --------------------------------------------------------------
 
          Ground-State Mulliken Net Atomic Charges

     Atom                 Charge (a.u.)    Spin (a.u.)
  --------------------------------------------------------
      1 Si                   -3.356538       5.048649
      2 Cl                    0.597808      -1.020142
      3 Cl                    0.585354      -1.008603
      4 Cl                    0.586416      -1.009741
      5 Cl                    0.586959      -1.010163
  --------------------------------------------------------
  Sum of atomic charges =    -1.000000
  Sum of spin   charges =     1.000000

 -----------------------------------------------------------------
                    Cartesian Multipole Moments
 -----------------------------------------------------------------
    Charge (ESU x 10^10)
                -4.8032
    Dipole Moment (Debye)
         X      -0.0096      Y       0.0057      Z      -0.0764
       Tot       0.0772
    Quadrupole Moments (Debye-Ang)
        XX     -89.9890     XY       0.0067     YY     -90.0317
        XZ       0.0041     YZ       0.0049     ZZ     -90.0547
    Octapole Moments (Debye-Ang^2)
       XXX      -0.1778    XXY       0.0261    XYY       0.0270
       YYY       0.0788    XXZ      -0.2388    XYZ      -0.0043
       YYZ      -0.2075    XZZ      -0.0528    YZZ       0.0290
       ZZZ      -1.4294
    Hexadecapole Moments (Debye-Ang^3)
      XXXX    -826.3643   XXXY       0.0522   XXYY    -275.4943
      XYYY       0.0633   YYYY    -827.0598   XXXZ       5.5495
      XXYZ       0.0158   XYYZ      -5.4957   YYYZ       0.0471
      XXZZ    -272.0042   XYZZ       0.0184   YYZZ    -272.1251
      XZZZ      -0.0508   YZZZ       0.0373   ZZZZ    -832.6878
 -----------------------------------------------------------------
 Total job time:  902.46s(wall), 895.64s(cpu) 
 Fri Mar  7 23:17:03 2014

        *************************************************************
        *                                                           *
        *  Thank you very much for using Q-Chem.  Have a nice day.  *
        *                                                           *
        *************************************************************


0 sent ACK to 0 
now end server 0 ... 
 
**********************************************************************
Job 2 of 3 
**********************************************************************
 
Process 0 of 1 is on cl183 - thread support 1
initial socket setup ...start
initial socket setup ...done 
now start server 0 ... 

cmd = /usr/bin/ssh clhead /usr/local/qchem/bin/get_hostid 1183911458 > /tmp/1591249.1.medium.q/qchem18732/lic.dat

cmd = /usr/bin/ssh clhead /usr/local/qchem/bin/get_hostid 1183911458 > /tmp/1591249.1.medium.q/qchem18732/lic.dat

cmd = /usr/bin/ssh clhead /usr/local/qchem/bin/get_hostid 1183911458 > /tmp/1591249.1.medium.q/qchem18732/lic.dat

cmd = /usr/bin/ssh clhead /usr/local/qchem/bin/get_hostid 1183911458 > /tmp/1591249.1.medium.q/qchem18732/lic.dat

cmd = /usr/bin/ssh clhead /usr/local/qchem/bin/get_hostid 1183911458 > /tmp/1591249.1.medium.q/qchem18732/lic.dat
                  Welcome to Q-Chem
     A Quantum Leap Into The Future Of Chemistry

 Y. Shao, L. Fusti-Molnar, Y. Jung, J. Kussmann, C. Ochsenfeld,
 S. T. Brown, A. T. B. Gilbert, L. V. Slipchenko,S. V. Levchenko,
 D. P. O'Neill, R. A. DiStasio Jr., R. C. Lochan, T. Wang,
 G. J. O. Beran, N. A. Besley, J. M. Herbert, C. Y. Lin,
 T. Van Voorhis, S. H. Chien, A. Sodt, R. P. Steele, 
 V. A. Rassolov, P. E. Maslen, P. P. Korambath, R. D. Adamson,
 B. Austin, J. Baker, E. F. C. Byrd, H. Dachsel, R. J. Doerksen,
 A. Dreuw, B. D. Dunietz, A. D. Dutoi, T. R. Furlani,
 S. R. Gwaltney, A. Heyden, S. Hirata, C.-P. Hsu, G. Kedziora,
 R. Z. Khaliullin, P. Klunzinger, A. M. Lee, M. S. Lee, W. Liang,
 I. Lotan, N. Nair, B. Peters, E. I. Proynov, P. A. Pieniazek, 
 Y. M. Rhee, J. Ritchie, E. Rosta, C. D. Sherrill, 
 A. C. Simmonett, J. E. Subotnik, H. L. Woodcock III,
 W. Zhang, A. T. Bell, A. K. Chakraborty, D. M. Chipman,
 F. J. Keil, A. Warshel, W. J. Hehre, H. F. Schaefer III,
 J. Kong, A. I. Krylov, P. M. W. Gill, M. Head-Gordon,
 Q-Chem, Version 3.1, Q-Chem, Inc., Pittsburgh, PA (2007).

 Additional authors for Version 3.1: 
 Z. Gan, Y. Zhao, N. E. Schultz, D. Truhlar, E. Epifanovsky and M. Oana.

 Additional authors for Version 3.2: 
 R. Baer, B. R. Brooks, D. Casanova, J.-D. Chai, C.-L. Cheng, 
 C. Cramer, D. Crittenden, A. Ghysels, G. Hawkins, E. G. Hohenstein, 
 C. Kelley, W. Kurlancheek, D. Liotard, E. Livshits, P. Manohar, 
 A. Marenich, D. Neuhauser, R. Olson, M. A. Rohrdanz, K. S. Thanthiriwatte, 
 A. J. W. Thom, V. Vanovschi, C. F. Williams, Q. Wu and Z.-Q. You. 


 Intel X86 Linux Version

 Q-chem begins on Fri Mar  7 23:17:07 2014  

 Parallel job on  1  processors
Processing $rem in /usr/local/qchem/config/preferences.

theFileMan(): MAXOPENFILES=974 MAX_SUB_FILE_NUM=16
Maximum size of a physical file is 2.0 GB, maximum size of a tmp-file is 32.0 GB


--------------------------------------------------------------
User input:
--------------------------------------------------------------

$molecule
0,1
Si        -0.00009        0.00000        0.00110
Cl         0.00019        0.00000        2.01284
Cl         1.89621        0.00000       -0.67116
Cl        -0.94815        1.64199       -0.67139
Cl        -0.94815       -1.64199       -0.67139
$end

$comment
neutral
$end

$xc_functional
C PBE   1.00
X wPBE  1.00
$end


$rem
SYMMETRY_DECOMPOSITION	0
LRC_DFT                 true
exchange 		general
BASIS                   g3large
omega			450
mem_static              760
max_scf_cycles          200
scf_final_print         1
sym_ignore              true
$end

--------------------------------------------------------------
 Writing REM_CC_EA            5
 ----------------------------------------------------
       Standard Nuclear Orientation (Angstroms)
    I     Atom         X            Y            Z
 ----------------------------------------------------
    1      Si     -0.000090     0.000000     0.001100
    2      Cl      0.000190     0.000000     2.012840
    3      Cl      1.896210     0.000000    -0.671160
    4      Cl     -0.948150     1.641990    -0.671390
    5      Cl     -0.948150    -1.641990    -0.671390
 ----------------------------------------------------
 Nuclear Repulsion Energy =   529.7173585981 hartrees
 There are       41 alpha and       41 beta electrons
 Requested basis set is G3large
 There are 95 shells and 330 basis functions

Total QAlloc Memory Limit   2000 MB
Mega-Array Size       743 MB
MEM_STATIC part       760 MB

                       Distance Matrix (Angstroms)
             Si(  1)   Cl(  2)   Cl(  3)   Cl(  4)
   Cl(  2)  2.011740
   Cl(  3)  2.011936  3.286145
   Cl(  4)  2.011763  3.286422  3.284283
   Cl(  5)  2.011763  3.286422  3.284283  3.283980
 
 A cutoff of  1.0D-08 yielded   3472 shell pairs
 There are  43435 function pairs ( 61990 Cartesian)
Evaluating contribution to one-electron hamiltonian from nuclear
 Smallest overlap matrix eigenvalue = 2.86E-04
 Multipole matrices computed through 2nd order

  Scale SEOQF with 1.000000e-01/1.000000e-01/1.000000e-01

 Standard Electronic Orientation quadrupole field applied
 Guess from superposition of atomic densities
 Warning:  Energy on first SCF cycle will be non-variational
 Long-range K will be added via erf
 Coulomb attenuation parameter = 0.45 bohr**(-1)
 A restricted Kohn-Sham SCF calculation will be
 performed using Pulay DIIS extrapolation
 Exchange:  wPBE + LR-HF      Correlation:  PBE
 Using SG-1 standard quadrature grid
 SCF converges when DIIS error is below 1.0E-05
 Requested basis set is G3large
 There are 95 shells and 330 basis functions
 A cutoff of  1.0D-08 yielded   3472 shell pairs
 There are  43435 function pairs ( 61990 Cartesian)
 ---------------------------------------
  Cycle       Energy         DIIS Error
 ---------------------------------------
    1   -2130.7530820276      1.94E-02
    2   -2129.8349545013      2.24E-03
    3   -2129.8672924957      2.05E-03
    4   -2129.9125965061      1.66E-04
    5   -2129.9131304834      6.05E-05
    6   -2129.9132092750      2.15E-05
    7   -2129.9132160765      4.59E-06 Convergence criterion met
 ---------------------------------------
 One-Electron    Energy = -3999.3340827843
 Total Coulomb   Energy =  1473.1530837175
 Alpha Exchange  Energy =    -9.4893729424
 Beta  Exchange  Energy =    -9.4893729424
 DFT   Exchange  Energy =  -111.2584011434
 DFT Correlation Energy =    -3.2124285795
 Nuclear Repu.   Energy =   529.7173585980
 Nuclear Attr.   Energy = -6126.2907321675
 Kinetic         Energy =  2126.9566493832
 SCF time:  CPU 351.59 s  wall 354.56 s
 Final Alpha MO Eigenvalues
            1           2           3           4           5           6
    1-100.9296311-100.9294800-100.9293908-100.9293424 -65.7966148  -9.4546582
            7           8           9          10          11          12
    1  -9.4544822  -9.4544346  -9.4543913  -7.2684227  -7.2684206  -7.2683195
           13          14          15          16          17          18
    1  -7.2682974  -7.2621549  -7.2621538  -7.2619401  -7.2619117  -7.2618490
           19          20          21          22          23          24
    1  -7.2618478  -7.2618396  -7.2617562  -5.4437496  -3.8433604  -3.8433333
           25          26          27          28          29          30
    1  -3.8433266  -1.0748483  -1.0161407  -1.0159402  -1.0159203  -0.6979772
           31          32          33          34          35          36
    1  -0.5880225  -0.5879069  -0.5878989  -0.5150619  -0.5150476  -0.4968366
           37          38          39          40          41          42
    1  -0.4967380  -0.4967152  -0.4655024  -0.4654975  -0.4653700   0.0424405
           43          44          45          46
    1   0.0735382   0.0735565   0.0735637   0.0755258
 Analysis of SCF Wavefunction
 
 --------------------------------------------------------------
                    Orbital Energies (a.u.)
 --------------------------------------------------------------
 
 Alpha MOs
 -- Occupied --
*******-100.929-100.929-100.929 -65.797  -9.455  -9.454  -9.454
 -9.454  -7.268  -7.268  -7.268  -7.268  -7.262  -7.262  -7.262
 -7.262  -7.262  -7.262  -7.262  -7.262  -5.444  -3.843  -3.843
 -3.843  -1.075  -1.016  -1.016  -1.016  -0.698  -0.588  -0.588
 -0.588  -0.515  -0.515  -0.497  -0.497  -0.497  -0.466  -0.465
 -0.465
 -- Virtual --
  0.042   0.074   0.074   0.074   0.076   0.100   0.100   0.100
  0.135   0.135   0.135   0.136   0.136   0.173   0.173   0.173
  0.173   0.190   0.190   0.190   0.197   0.213   0.213   0.213
  0.236   0.236   0.297   0.297   0.297   0.367   0.367   0.368
  0.391   0.391   0.391   0.408   0.408   0.431   0.431   0.432
  0.469   0.469   0.469   0.490   0.545   0.545   0.545   0.569
  0.569   0.575   0.600   0.600   0.600   0.678   0.692   0.692
  0.692   0.693   0.693   0.693   0.737   0.737   0.737   0.791
  0.791   0.880   0.892   0.893   0.893   0.918   0.918   0.954
  0.954   0.954   1.012   1.013   1.013   1.171   1.171   1.171
  1.181   1.181   1.182   1.200   1.200   1.211   1.211   1.211
  1.226   1.226   1.226   1.240   1.282   1.289   1.290   1.290
  1.318   1.318   1.319   1.341   1.341   1.341   1.343   1.343
  1.438   1.438   1.438   1.459   1.461   1.461   1.625   1.625
  1.626   1.638   1.639   1.639   1.639   1.702   1.702   1.702
  1.725   1.725   1.725   1.785   1.785   1.786   1.839   1.839
  1.948   2.071   2.071   2.071   2.318   2.324   2.324   2.345
  2.345   2.345   2.357   2.357   2.357   2.471   2.471   2.471
  2.576   2.576   2.577   2.672   2.672   2.672   2.772   3.831
  3.832   3.983   3.984   3.986   4.474   4.479   4.479   4.479
  4.480   4.480   4.480   4.503   4.503   4.517   4.583   4.583
  4.584   4.592   4.592   4.592   4.604   4.604   4.657   4.685
  4.685   4.685   4.687   4.688   4.688   4.702   4.703   4.703
  5.147   5.148   5.150   5.151   5.151   5.163   5.164   5.165
  5.247   5.247   5.247   5.327   5.327   5.327   5.353   5.367
  5.367   5.549   5.550   5.551   6.475   9.910   9.910   9.910
 10.059  11.673  11.674  11.674  17.578  17.653  17.658  17.733
 17.790  20.609  20.609  20.641  20.641  20.641  20.715  20.715
 20.715  20.898  20.899  20.899  20.937  22.107  22.109  22.115
 22.117  22.117  22.119  22.129  27.114  27.117  27.123  27.136
 27.160  27.178  27.190  27.190  27.200  27.207  27.220  27.232
 27.236  27.238  27.242  27.264  27.283  27.286  27.315  27.316
 36.824  36.825  36.825  36.825  36.826  36.826  36.827  36.828
 36.829  36.831  36.836  36.837  36.838  36.839  36.840  36.841
 36.841  36.843  36.848  36.849  36.851  36.851  36.852  36.852
 36.852  36.853  36.853  36.854 141.430 215.821 215.821 215.821
216.000
 --------------------------------------------------------------
 
          Ground-State Mulliken Net Atomic Charges

     Atom                 Charge (a.u.)
  ----------------------------------------
      1 Si                    1.623216
      2 Cl                   -0.405469
      3 Cl                   -0.405929
      4 Cl                   -0.406032
      5 Cl                   -0.405786
  ----------------------------------------
  Sum of atomic charges =     0.000000

 -----------------------------------------------------------------
                    Cartesian Multipole Moments
 -----------------------------------------------------------------
    Charge (ESU x 10^10)
                 0.0000
    Dipole Moment (Debye)
         X      -0.0003      Y      -0.0012      Z       0.0081
       Tot       0.0082
    Quadrupole Moments (Debye-Ang)
        XX     -61.9294     XY       0.0002     YY     -61.9249
        XZ       0.0020     YZ       0.0009     ZZ     -61.9100
    Octapole Moments (Debye-Ang^2)
       XXX       2.1809    XXY      -0.0021    XYY      -2.1863
       YYY      -0.0063    XXZ      -1.5499    XYZ      -0.0004
       YYZ      -1.5561    XZZ      -0.0022    YZZ      -0.0018
       ZZZ       3.1305
    Hexadecapole Moments (Debye-Ang^3)
      XXXX    -457.1737   XXXY      -0.0020   XXYY    -152.3730
      XYYY       0.0003   YYYY    -457.0458   XXXZ      -4.7574
      XXYZ       0.0008   XYYZ       4.7276   YYYZ       0.0023
      XXZZ    -155.8032   XYZZ      -0.0006   YYZZ    -155.7792
      XZZZ      -0.0192   YZZZ      -0.0002   ZZZZ    -454.3578
 -----------------------------------------------------------------
 Total job time:  355.22s(wall), 352.17s(cpu) 
 Fri Mar  7 23:23:02 2014

        *************************************************************
        *                                                           *
        *  Thank you very much for using Q-Chem.  Have a nice day.  *
        *                                                           *
        *************************************************************


0 sent ACK to 0 
now end server 0 ... 
 
**********************************************************************
Job 3 of 3 
**********************************************************************
 
Process 0 of 1 is on cl183 - thread support 1
initial socket setup ...start
initial socket setup ...done 
now start server 0 ... 

cmd = /usr/bin/ssh clhead /usr/local/qchem/bin/get_hostid 1522797928 > /tmp/1591249.1.medium.q/qchem18732/lic.dat

cmd = /usr/bin/ssh clhead /usr/local/qchem/bin/get_hostid 1522797928 > /tmp/1591249.1.medium.q/qchem18732/lic.dat

cmd = /usr/bin/ssh clhead /usr/local/qchem/bin/get_hostid 1522797928 > /tmp/1591249.1.medium.q/qchem18732/lic.dat

cmd = /usr/bin/ssh clhead /usr/local/qchem/bin/get_hostid 1522797928 > /tmp/1591249.1.medium.q/qchem18732/lic.dat

cmd = /usr/bin/ssh clhead /usr/local/qchem/bin/get_hostid 1522797928 > /tmp/1591249.1.medium.q/qchem18732/lic.dat
                  Welcome to Q-Chem
     A Quantum Leap Into The Future Of Chemistry

 Y. Shao, L. Fusti-Molnar, Y. Jung, J. Kussmann, C. Ochsenfeld,
 S. T. Brown, A. T. B. Gilbert, L. V. Slipchenko,S. V. Levchenko,
 D. P. O'Neill, R. A. DiStasio Jr., R. C. Lochan, T. Wang,
 G. J. O. Beran, N. A. Besley, J. M. Herbert, C. Y. Lin,
 T. Van Voorhis, S. H. Chien, A. Sodt, R. P. Steele, 
 V. A. Rassolov, P. E. Maslen, P. P. Korambath, R. D. Adamson,
 B. Austin, J. Baker, E. F. C. Byrd, H. Dachsel, R. J. Doerksen,
 A. Dreuw, B. D. Dunietz, A. D. Dutoi, T. R. Furlani,
 S. R. Gwaltney, A. Heyden, S. Hirata, C.-P. Hsu, G. Kedziora,
 R. Z. Khaliullin, P. Klunzinger, A. M. Lee, M. S. Lee, W. Liang,
 I. Lotan, N. Nair, B. Peters, E. I. Proynov, P. A. Pieniazek, 
 Y. M. Rhee, J. Ritchie, E. Rosta, C. D. Sherrill, 
 A. C. Simmonett, J. E. Subotnik, H. L. Woodcock III,
 W. Zhang, A. T. Bell, A. K. Chakraborty, D. M. Chipman,
 F. J. Keil, A. Warshel, W. J. Hehre, H. F. Schaefer III,
 J. Kong, A. I. Krylov, P. M. W. Gill, M. Head-Gordon,
 Q-Chem, Version 3.1, Q-Chem, Inc., Pittsburgh, PA (2007).

 Additional authors for Version 3.1: 
 Z. Gan, Y. Zhao, N. E. Schultz, D. Truhlar, E. Epifanovsky and M. Oana.

 Additional authors for Version 3.2: 
 R. Baer, B. R. Brooks, D. Casanova, J.-D. Chai, C.-L. Cheng, 
 C. Cramer, D. Crittenden, A. Ghysels, G. Hawkins, E. G. Hohenstein, 
 C. Kelley, W. Kurlancheek, D. Liotard, E. Livshits, P. Manohar, 
 A. Marenich, D. Neuhauser, R. Olson, M. A. Rohrdanz, K. S. Thanthiriwatte, 
 A. J. W. Thom, V. Vanovschi, C. F. Williams, Q. Wu and Z.-Q. You. 


 Intel X86 Linux Version

 Q-chem begins on Fri Mar  7 23:23:06 2014  

 Parallel job on  1  processors
Processing $rem in /usr/local/qchem/config/preferences.

theFileMan(): MAXOPENFILES=974 MAX_SUB_FILE_NUM=16
Maximum size of a physical file is 2.0 GB, maximum size of a tmp-file is 32.0 GB


--------------------------------------------------------------
User input:
--------------------------------------------------------------

$molecule
1,2
Si        -0.00009        0.00000        0.00110
Cl         0.00019        0.00000        2.01284
Cl         1.89621        0.00000       -0.67116
Cl        -0.94815        1.64199       -0.67139
Cl        -0.94815       -1.64199       -0.67139
$end

$comment
positive
$end

$xc_functional
C PBE   1.00
X wPBE  1.00
$end

$rem
SYMMETRY_DECOMPOSITION	0
LRC_DFT                 true
exchange 		general
BASIS                   g3large
omega			450
mem_static              760
max_scf_cycles          200
scf_final_print         1
sym_ignore              true
$end

--------------------------------------------------------------
 Writing REM_CC_EA            5
 ----------------------------------------------------
       Standard Nuclear Orientation (Angstroms)
    I     Atom         X            Y            Z
 ----------------------------------------------------
    1      Si     -0.000090     0.000000     0.001100
    2      Cl      0.000190     0.000000     2.012840
    3      Cl      1.896210     0.000000    -0.671160
    4      Cl     -0.948150     1.641990    -0.671390
    5      Cl     -0.948150    -1.641990    -0.671390
 ----------------------------------------------------
 Nuclear Repulsion Energy =   529.7173585981 hartrees
 There are       41 alpha and       40 beta electrons
 Requested basis set is G3large
 There are 95 shells and 330 basis functions

Total QAlloc Memory Limit   2000 MB
Mega-Array Size       743 MB
MEM_STATIC part       760 MB

                       Distance Matrix (Angstroms)
             Si(  1)   Cl(  2)   Cl(  3)   Cl(  4)
   Cl(  2)  2.011740
   Cl(  3)  2.011936  3.286145
   Cl(  4)  2.011763  3.286422  3.284283
   Cl(  5)  2.011763  3.286422  3.284283  3.283980
 
 A cutoff of  1.0D-08 yielded   3472 shell pairs
 There are  43435 function pairs ( 61990 Cartesian)
Evaluating contribution to one-electron hamiltonian from nuclear
 Smallest overlap matrix eigenvalue = 2.86E-04
 Multipole matrices computed through 2nd order

  Scale SEOQF with 1.000000e-01/1.000000e-01/1.000000e-01

 Standard Electronic Orientation quadrupole field applied
 Guess from superposition of atomic densities
 Warning:  Energy on first SCF cycle will be non-variational
 Long-range K will be added via erf
 Coulomb attenuation parameter = 0.45 bohr**(-1)
 An unrestricted Kohn-Sham SCF calculation will be
 performed using Pulay DIIS extrapolation
 Exchange:  wPBE + LR-HF      Correlation:  PBE
 Using SG-1 standard quadrature grid
 SCF converges when DIIS error is below 1.0E-05
 Requested basis set is G3large
 There are 95 shells and 330 basis functions
 A cutoff of  1.0D-08 yielded   3472 shell pairs
 There are  43435 function pairs ( 61990 Cartesian)
 Warning!  Inaccurate integrated density:
   Number of electrons =    81
   Numerical integral  =    82.000036047218
   Relative error      =     1.2346124040 %
 ---------------------------------------
  Cycle       Energy         DIIS Error
 ---------------------------------------
    1   -2130.7530820276      1.94E-02
    2   -2129.3294786437      2.57E-03
    3   -2129.3855802347      2.41E-03
    4   -2129.4514006498      2.38E-04
    5   -2129.4529680986      9.80E-05
    6   -2129.4535689570      4.55E-05
    7   -2129.4539234386      3.17E-05
    8   -2129.4541657598      2.28E-05
    9   -2129.4543994298      1.47E-05
   10   -2129.4545106829      1.03E-05
   11   -2129.4545639198      8.22E-06 Convergence criterion met
 ---------------------------------------
 One-Electron    Energy = -3981.4538540518
 Total Coulomb   Energy =  1455.3162708312
 Alpha Exchange  Energy =    -9.5121522971
 Beta  Exchange  Energy =    -9.2364178811
 DFT   Exchange  Energy =  -111.1135998145
 DFT Correlation Energy =    -3.1721693044
 Nuclear Repu.   Energy =   529.7173585980
 Nuclear Attr.   Energy = -6107.9524616589
 Kinetic         Energy =  2126.4986076070
 <S^2> = 0.7664
 SCF time:  CPU 674.74 s  wall 679.71 s
 Final Alpha MO Eigenvalues
            1           2           3           4           5           6
    1-101.2026313-101.1803836-101.1503242-101.1050093 -66.0003788  -9.7240611
            7           8           9          10          11          12
    1  -9.7021981  -9.6728894  -9.6286563  -7.5406639  -7.5348660  -7.5284489
           13          14          15          16          17          18
    1  -7.5170040  -7.5137824  -7.5070804  -7.4858633  -7.4845736  -7.4787159
           19          20          21          22          23          24
    1  -7.4431990  -7.4361587  -7.4358250  -5.6475889  -4.0479388  -4.0472453
           25          26          27          28          29          30
    1  -4.0462348  -1.3047047  -1.2627450  -1.2355358  -1.1955923  -0.9111040
           31          32          33          34          35          36
    1  -0.8139414  -0.8083121  -0.7852743  -0.7541448  -0.7422414  -0.7271048
           37          38          39          40          41          42
    1  -0.7078734  -0.6991988  -0.6951694  -0.6556483  -0.6504030  -0.1335319
           43          44          45          46
    1  -0.0968897  -0.0944394  -0.0914815  -0.0872189
 Final Beta MO Eigenvalues
            1           2           3           4           5           6
    1-101.1994240-101.1778620-101.1487237-101.1049883 -66.0005060  -9.7211565
            7           8           9          10          11          12
    1  -9.6999222  -9.6714483  -9.6286387  -7.5332919  -7.5321520  -7.5262360
           13          14          15          16          17          18
    1  -7.5126789  -7.5099371  -7.5056035  -7.4847870  -7.4805663  -7.4776866
           19          20          21          22          23          24
    1  -7.4432098  -7.4360567  -7.4358379  -5.6477958  -4.0482481  -4.0475631
           25          26          27          28          29          30
    1  -4.0463779  -1.2881579  -1.2376226  -1.2199386  -1.1935495  -0.9053142
           31          32          33          34          35          36
    1  -0.8047172  -0.7875424  -0.7822565  -0.7249892  -0.7048208  -0.6939964
           37          38          39          40          41          42
    1  -0.6696533  -0.6660177  -0.6473500  -0.6454192  -0.4510034  -0.1294839
           43          44          45
    1  -0.0944027  -0.0897085  -0.0874718
 Analysis of SCF Wavefunction
 
 --------------------------------------------------------------
                    Orbital Energies (a.u.)
 --------------------------------------------------------------
 
 Alpha MOs
 -- Occupied --
*******-101.180-101.150-101.105 -66.000  -9.724  -9.702  -9.673
 -9.629  -7.541  -7.535  -7.528  -7.517  -7.514  -7.507  -7.486
 -7.485  -7.479  -7.443  -7.436  -7.436  -5.648  -4.048  -4.047
 -4.046  -1.305  -1.263  -1.236  -1.196  -0.911  -0.814  -0.808
 -0.785  -0.754  -0.742  -0.727  -0.708  -0.699  -0.695  -0.656
 -0.650
 -- Virtual --
 -0.134  -0.097  -0.094  -0.091  -0.087  -0.050  -0.049  -0.047
 -0.010  -0.008  -0.003  -0.002  -0.002   0.020   0.027   0.032
  0.037   0.038   0.043   0.045   0.046   0.049   0.066   0.080
  0.083   0.085   0.114   0.118   0.126   0.180   0.184   0.194
  0.196   0.198   0.204   0.224   0.229   0.257   0.261   0.266
  0.270   0.285   0.295   0.318   0.367   0.368   0.377   0.394
  0.395   0.414   0.414   0.416   0.419   0.489   0.492   0.496
  0.502   0.506   0.512   0.520   0.560   0.561   0.565   0.597
  0.597   0.683   0.700   0.705   0.709   0.726   0.729   0.766
  0.768   0.771   0.811   0.818   0.828   0.955   0.958   0.972
  0.973   0.980   0.991   0.996   0.997   0.998   1.007   1.014
  1.016   1.037   1.041   1.045   1.071   1.078   1.086   1.107
  1.112   1.114   1.125   1.127   1.131   1.147   1.152   1.158
  1.226   1.233   1.248   1.264   1.269   1.269   1.409   1.425
  1.430   1.432   1.438   1.447   1.464   1.492   1.503   1.509
  1.530   1.531   1.539   1.577   1.588   1.597   1.644   1.645
  1.747   1.862   1.871   1.885   2.101   2.106   2.110   2.120
  2.148   2.149   2.154   2.155   2.158   2.259   2.268   2.272
  2.364   2.375   2.379   2.447   2.461   2.484   2.570   3.626
  3.627   3.773   3.780   3.788   4.210   4.212   4.231   4.238
  4.255   4.270   4.273   4.276   4.296   4.320   4.342   4.348
  4.354   4.365   4.371   4.381   4.388   4.392   4.429   4.445
  4.461   4.465   4.472   4.489   4.490   4.495   4.501   4.504
  4.888   4.892   4.912   4.916   4.938   4.939   4.961   4.968
  5.013   5.031   5.041   5.087   5.102   5.123   5.131   5.158
  5.164   5.307   5.329   5.362   6.271   9.654   9.680   9.718
  9.844  11.469  11.470  11.472  17.374  17.448  17.454  17.529
 17.586  20.361  20.364  20.388  20.418  20.426  20.478  20.508
 20.514  20.639  20.662  20.693  20.739  21.903  21.906  21.911
 21.913  21.913  21.915  21.926  26.843  26.877  26.896  26.921
 26.922  26.942  26.956  26.961  26.974  26.981  26.986  26.990
 26.997  27.018  27.035  27.041  27.061  27.070  27.081  27.137
 36.554  36.555  36.567  36.569  36.574  36.577  36.578  36.580
 36.584  36.589  36.593  36.599  36.601  36.603  36.609  36.610
 36.622  36.623  36.626  36.630  36.632  36.654  36.657  36.665
 36.667  36.671  36.673  36.674 141.226 215.557 215.585 215.626
215.779
 
 Beta MOs
 -- Occupied --
*******-101.178-101.149-101.105 -66.001  -9.721  -9.700  -9.671
 -9.629  -7.533  -7.532  -7.526  -7.513  -7.510  -7.506  -7.485
 -7.481  -7.478  -7.443  -7.436  -7.436  -5.648  -4.048  -4.048
 -4.046  -1.288  -1.238  -1.220  -1.194  -0.905  -0.805  -0.788
 -0.782  -0.725  -0.705  -0.694  -0.670  -0.666  -0.647  -0.645
 -- Virtual --
 -0.451  -0.129  -0.094  -0.090  -0.087  -0.087  -0.049  -0.049
 -0.047  -0.008  -0.006  -0.003  -0.002  -0.001   0.020   0.034
  0.036   0.040   0.040   0.044   0.046   0.047   0.051   0.066
  0.083   0.084   0.085   0.120   0.122   0.127   0.195   0.196
  0.200   0.202   0.205   0.210   0.229   0.234   0.260   0.264
  0.270   0.282   0.290   0.297   0.318   0.373   0.375   0.378
  0.399   0.399   0.416   0.418   0.419   0.420   0.491   0.502
  0.504   0.506   0.509   0.515   0.522   0.563   0.564   0.566
  0.597   0.597   0.684   0.700   0.705   0.711   0.731   0.733
  0.769   0.771   0.774   0.814   0.821   0.829   0.967   0.969
  0.979   0.980   0.986   0.998   1.000   1.004   1.007   1.014
  1.019   1.025   1.042   1.045   1.048   1.077   1.088   1.091
  1.111   1.116   1.122   1.133   1.133   1.138   1.152   1.156
  1.161   1.232   1.239   1.251   1.269   1.272   1.273   1.418
  1.429   1.436   1.437   1.443   1.450   1.465   1.500   1.506
  1.510   1.536   1.537   1.541   1.583   1.592   1.600   1.647
  1.648   1.751   1.864   1.873   1.886   2.110   2.112   2.117
  2.135   2.152   2.153   2.154   2.154   2.155   2.263   2.275
  2.279   2.367   2.375   2.378   2.451   2.464   2.485   2.571
  3.627   3.627   3.774   3.780   3.788   4.238   4.240   4.253
  4.259   4.270   4.284   4.286   4.289   4.301   4.324   4.358
  4.363   4.368   4.371   4.380   4.384   4.394   4.399   4.442
  4.456   4.467   4.474   4.480   4.492   4.494   4.498   4.505
  4.510   4.897   4.901   4.918   4.923   4.942   4.944   4.964
  4.970   5.016   5.034   5.044   5.093   5.103   5.124   5.134
  5.160   5.166   5.310   5.331   5.362   6.271   9.660   9.684
  9.720   9.847  11.469  11.469  11.472  17.374  17.448  17.454
 17.529  17.586  20.367  20.371  20.397  20.421  20.431  20.480
 20.510  20.516  20.641  20.664  20.694  20.740  21.903  21.906
 21.911  21.913  21.913  21.915  21.926  26.851  26.883  26.900
 26.925  26.929  26.944  26.959  26.965  26.976  26.984  26.988
 26.993  27.000  27.020  27.036  27.042  27.064  27.071  27.082
 27.137  36.558  36.558  36.570  36.571  36.577  36.578  36.580
 36.582  36.585  36.591  36.595  36.601  36.601  36.603  36.610
 36.612  36.623  36.625  36.627  36.630  36.632  36.654  36.657
 36.665  36.667  36.671  36.673  36.674 141.226 215.560 215.587
215.627 215.780
 --------------------------------------------------------------
 
          Ground-State Mulliken Net Atomic Charges

     Atom                 Charge (a.u.)    Spin (a.u.)
  --------------------------------------------------------
      1 Si                    1.570841      -0.096150
      2 Cl                   -0.031834       0.483931
      3 Cl                   -0.169219       0.231336
      4 Cl                   -0.090754       0.375710
      5 Cl                   -0.279034       0.005173
  --------------------------------------------------------
  Sum of atomic charges =     1.000000
  Sum of spin   charges =     1.000000

 -----------------------------------------------------------------
                    Cartesian Multipole Moments
 -----------------------------------------------------------------
    Charge (ESU x 10^10)
                 4.8032
    Dipole Moment (Debye)
         X       0.1746      Y       1.4994      Z       1.4088
       Tot       2.0648
    Quadrupole Moments (Debye-Ang)
        XX     -51.1162     XY      -2.0951     YY     -51.6187
        XZ      -0.2118     YZ      -1.4604     ZZ     -47.5240
    Octapole Moments (Debye-Ang^2)
       XXX       9.9661    XXY       1.8382    XYY      -9.1161
       YYY       5.4737    XXZ      -5.3335    XYZ      -0.0851
       YYZ      -5.7796    XZZ       0.3547    YZZ       1.8417
       ZZZ      19.4492
    Hexadecapole Moments (Debye-Ang^3)
      XXXX    -399.3041   XXXY      -5.4620   XXYY    -133.2482
      XYYY      -5.6859   YYYY    -402.5532   XXXZ     -10.6092
      XXYZ      -1.2179   XYYZ       9.5637   YYYZ      -3.9816
      XXZZ    -136.1718   XYZZ      -3.0546   YYZZ    -136.1301
      XZZZ      -0.3435   YZZZ      -5.1721   ZZZZ    -371.8857
 -----------------------------------------------------------------
 Total job time:  680.39s(wall), 675.35s(cpu) 
 Fri Mar  7 23:34:27 2014

        *************************************************************
        *                                                           *
        *  Thank you very much for using Q-Chem.  Have a nice day.  *
        *                                                           *
        *************************************************************


0 sent ACK to 0 
now end server 0 ... 
