Process 0 of 1 is on cl085.stfx.acenet.ca - thread support 1
initial socket setup ...start
initial socket setup ...done 
now start server 0 ... 

cmd = /usr/bin/ssh clhead /usr/local/qchem/bin/get_hostid 1887090393 > /scratch/tmp/5956369.1.short.q/qchem4392/lic.dat
                  Welcome to Q-Chem
     A Quantum Leap Into The Future Of Chemistry

 Y. Shao, L. Fusti-Molnar, Y. Jung, J. Kussmann, C. Ochsenfeld,
 S. T. Brown, A. T. B. Gilbert, L. V. Slipchenko,S. V. Levchenko,
 D. P. O'Neill, R. A. DiStasio Jr., R. C. Lochan, T. Wang,
 G. J. O. Beran, N. A. Besley, J. M. Herbert, C. Y. Lin,
 T. Van Voorhis, S. H. Chien, A. Sodt, R. P. Steele, 
 V. A. Rassolov, P. E. Maslen, P. P. Korambath, R. D. Adamson,
 B. Austin, J. Baker, E. F. C. Byrd, H. Dachsel, R. J. Doerksen,
 A. Dreuw, B. D. Dunietz, A. D. Dutoi, T. R. Furlani,
 S. R. Gwaltney, A. Heyden, S. Hirata, C.-P. Hsu, G. Kedziora,
 R. Z. Khaliullin, P. Klunzinger, A. M. Lee, M. S. Lee, W. Liang,
 I. Lotan, N. Nair, B. Peters, E. I. Proynov, P. A. Pieniazek, 
 Y. M. Rhee, J. Ritchie, E. Rosta, C. D. Sherrill, 
 A. C. Simmonett, J. E. Subotnik, H. L. Woodcock III,
 W. Zhang, A. T. Bell, A. K. Chakraborty, D. M. Chipman,
 F. J. Keil, A. Warshel, W. J. Hehre, H. F. Schaefer III,
 J. Kong, A. I. Krylov, P. M. W. Gill, M. Head-Gordon,
 Q-Chem, Version 3.1, Q-Chem, Inc., Pittsburgh, PA (2007).

 Additional authors for Version 3.1: 
 Z. Gan, Y. Zhao, N. E. Schultz, D. Truhlar, E. Epifanovsky and M. Oana.

 Additional authors for Version 3.2: 
 R. Baer, B. R. Brooks, D. Casanova, J.-D. Chai, C.-L. Cheng, 
 C. Cramer, D. Crittenden, A. Ghysels, G. Hawkins, E. G. Hohenstein, 
 C. Kelley, W. Kurlancheek, D. Liotard, E. Livshits, P. Manohar, 
 A. Marenich, D. Neuhauser, R. Olson, M. A. Rohrdanz, K. S. Thanthiriwatte, 
 A. J. W. Thom, V. Vanovschi, C. F. Williams, Q. Wu and Z.-Q. You. 


 Intel X86 Linux Version

 Q-chem begins on Tue Apr 30 22:44:04 2013  

 Parallel job on  1  processors
Processing $rem in /usr/local/qchem/config/preferences.

theFileMan(): MAXOPENFILES=974 MAX_SUB_FILE_NUM=16
Maximum size of a physical file is 2.0 GB, maximum size of a tmp-file is 32.0 GB


--------------------------------------------------------------
User input:
--------------------------------------------------------------

$molecule
-1,2
C,0.0342806532,0.3974627423,0.7425016446
N,0.0471070071,-0.874619445,0.
C,0.0342806532,0.3974627423,-0.7425016446
H,-0.8865994948,-1.285237551,0.
H,0.9497975775,0.6160289895,1.2875600468
H,0.9497975775,0.6160289895,-1.2875600468
H,-0.8770562739,0.7029813895,1.2546822265
H,-0.8770562739,0.7029813895,-1.2546822265

$end

$comment
negative
$end

$xc_functional
C PBE   1.00
X wPBE  1.00
$end

$rem
SYMMETRY_DECOMPOSITION	0
exchange 		general
LRC_DFT                 true
BASIS                   g3large
omega			450
mem_static              760
max_scf_cycles          200
scf_final_print         1
sym_ignore              true
$end

--------------------------------------------------------------
 Writing REM_CC_EA            8
 ----------------------------------------------------
       Standard Nuclear Orientation (Angstroms)
    I     Atom         X            Y            Z
 ----------------------------------------------------
    1      C       0.034281     0.397463     0.742502
    2      N       0.047107    -0.874619     0.000000
    3      C       0.034281     0.397463    -0.742502
    4      H      -0.886599    -1.285238     0.000000
    5      H       0.949798     0.616029     1.287560
    6      H       0.949798     0.616029    -1.287560
    7      H      -0.877056     0.702981     1.254682
    8      H      -0.877056     0.702981    -1.254682
 ----------------------------------------------------
 Nuclear Repulsion Energy =    75.9996746244 hartrees
 There are       13 alpha and       12 beta electrons
 Requested basis set is G3large
 There are 60 shells and 176 basis functions

Total QAlloc Memory Limit   2000 MB
Mega-Array Size       743 MB
MEM_STATIC part       760 MB

                       Distance Matrix (Angstroms)
             C (  1)   N (  2)   C (  3)   H (  4)   H (  5)   H (  6)
   N (  2)  1.472979
   C (  3)  1.485003  1.472979
   H (  4)  2.056893  1.020007  2.056893
   H (  5)  1.087672  2.166724  2.237653  2.940235
   H (  6)  2.237653  2.166724  1.087672  2.940235  2.575120
   H (  7)  1.089131  2.217460  2.216443  2.351028  1.829218  3.131765
   H (  8)  2.216443  2.217460  1.089131  2.351028  3.131765  1.829218
             H (  7)
   H (  8)  2.509364
 
 A cutoff of  1.0D-08 yielded   1794 shell pairs
 There are  15512 function pairs ( 18917 Cartesian)
Evaluating contribution to one-electron hamiltonian from nuclear
 Smallest overlap matrix eigenvalue = 7.18E-05

 Q-Chem warning in module mkSTV.C, line 194:

 Overlap eigenvalue is smaller than square root of threshold

 Multipole matrices computed through 2nd order

  Scale SEOQF with 1.000000e-01/1.000000e-01/1.000000e-01

 Standard Electronic Orientation quadrupole field applied
 Nucleus-field energy     =    -0.0000000005 hartrees
 Guess from superposition of atomic densities
 Warning:  Energy on first SCF cycle will be non-variational
 Long-range K will be added via erf
 Coulomb attenuation parameter = 0.45 bohr**(-1)
 An unrestricted Kohn-Sham SCF calculation will be
 performed using Pulay DIIS extrapolation
 Exchange:  wPBE + LR-HF      Correlation:  PBE
 Using SG-1 standard quadrature grid
 SCF converges when DIIS error is below 1.0E-05
 Requested basis set is G3large
 There are 60 shells and 176 basis functions
 A cutoff of  1.0D-08 yielded   1794 shell pairs
 There are  15512 function pairs ( 18917 Cartesian)
 Warning!  Inaccurate integrated density:
   Number of electrons =    25
   Numerical integral  =    24.000071447379
   Relative error      =    -3.9997142105 %
 ---------------------------------------
  Cycle       Energy         DIIS Error
 ---------------------------------------
    1    -134.7447823143      3.57E-02
    2    -133.7832244962      3.37E-03
    3    -133.8279459155      2.42E-03
    4    -133.8475255557      5.51E-04
    5    -133.8500633774      1.81E-04
    6    -133.8508095247      7.99E-05
    7    -133.8510528112      3.06E-05
    8    -133.8512074797      1.64E-05
    9    -133.8512821987      9.57E-06 Convergence criterion met
 ---------------------------------------
 One-Electron    Energy =  -333.3655013777
 Total Coulomb   Energy =   143.1464952402
 Alpha Exchange  Energy =    -2.6887133745
 Beta  Exchange  Energy =    -2.6142092245
 DFT   Exchange  Energy =   -13.5373744292
 DFT Correlation Energy =    -0.7916536568
 Nuclear Repu.   Energy =    75.9996746239
 Nuclear Attr.   Energy =  -466.5876213184
 Kinetic         Energy =   133.2221199407
 <S^2> = 0.7501
 SCF time:  CPU 94.13 s  wall 95.25 s
 Final Alpha MO Eigenvalues
            1           2           3           4           5           6
    1 -14.0835195 -10.0184367 -10.0181736  -0.9830238  -0.6758354  -0.6351847
            7           8           9          10          11          12
    1  -0.5224904  -0.4720627  -0.3631186  -0.3362683  -0.3244440  -0.2448891
           13          14          15          16          17          18
    1   0.0278481   0.1407160   0.1420501   0.1616183   0.1771990   0.2223939
 Final Beta MO Eigenvalues
            1           2           3           4           5           6
    1 -14.0833237 -10.0181271 -10.0178674  -0.9825754  -0.6748104  -0.6340043
            7           8           9          10          11          12
    1  -0.5201993  -0.4713825  -0.3626829  -0.3357970  -0.3238509  -0.2444694
           13          14          15          16          17
    1   0.1403572   0.1530845   0.1637435   0.1765377   0.1885288
 Analysis of SCF Wavefunction
 
 --------------------------------------------------------------
                    Orbital Energies (a.u.)
 --------------------------------------------------------------
 
 Alpha MOs
 -- Occupied --
-14.084 -10.018 -10.018  -0.983  -0.676  -0.635  -0.522  -0.472
 -0.363  -0.336  -0.324  -0.245   0.028
 -- Virtual --
  0.141   0.142   0.162   0.177   0.222   0.230   0.243   0.271
  0.286   0.298   0.308   0.322   0.332   0.352   0.368   0.388
  0.401   0.416   0.429   0.455   0.467   0.471   0.546   0.553
  0.650   0.671   0.735   0.756   0.771   0.776   0.798   0.806
  0.828   0.829   0.847   0.848   0.932   0.951   1.008   1.014
  1.054   1.107   1.128   1.136   1.164   1.225   1.257   1.285
  1.337   1.405   1.407   1.411   1.459   1.466   1.512   1.558
  1.561   1.593   1.656   1.679   1.701   1.731   1.775   1.813
  1.813   1.878   1.955   1.987   2.067   2.106   2.199   2.721
  2.793   2.806   2.814   2.983   3.000   3.004   3.083   3.188
  3.224   3.230   3.248   3.304   3.351   3.381   3.382   3.472
  3.475   3.537   3.559   3.566   3.578   3.586   3.626   3.763
  3.769   3.797   3.814   3.932   4.041   4.058   4.080   4.159
  4.206   4.263   4.306   4.336   4.408   4.431   4.451   4.462
  4.503   4.534   4.588   4.730   4.758   4.892   4.907   4.955
  5.027   5.060   5.312   5.359   5.456   5.532   5.534   5.586
  5.807   5.812   5.840   5.877   5.929   6.021   6.158   6.565
 24.410  24.595  27.682  27.996  28.243  28.284  28.311  28.712
 35.832  37.917  37.918  38.482  40.739  40.828  40.843  40.920
 40.930  41.064  41.154  41.163  41.245  41.318  41.333  41.400
 41.400  41.419  41.432
 
 Beta MOs
 -- Occupied --
-14.083 -10.018 -10.018  -0.983  -0.675  -0.634  -0.520  -0.471
 -0.363  -0.336  -0.324  -0.244
 -- Virtual --
  0.140   0.153   0.164   0.177   0.189   0.224   0.229   0.244
  0.271   0.286   0.304   0.307   0.321   0.333   0.354   0.368
  0.388   0.399   0.415   0.428   0.454   0.466   0.472   0.545
  0.553   0.650   0.669   0.734   0.755   0.769   0.776   0.797
  0.805   0.826   0.828   0.845   0.846   0.931   0.950   1.009
  1.013   1.054   1.108   1.128   1.136   1.165   1.225   1.257
  1.285   1.337   1.405   1.407   1.411   1.459   1.466   1.512
  1.559   1.562   1.593   1.655   1.679   1.701   1.731   1.776
  1.813   1.814   1.879   1.955   1.987   2.067   2.106   2.199
  2.721   2.793   2.806   2.814   2.983   3.001   3.004   3.083
  3.188   3.224   3.230   3.249   3.305   3.351   3.381   3.383
  3.473   3.475   3.538   3.560   3.567   3.579   3.587   3.627
  3.763   3.770   3.797   3.814   3.932   4.041   4.058   4.081
  4.159   4.206   4.263   4.307   4.336   4.408   4.431   4.451
  4.462   4.503   4.534   4.588   4.730   4.759   4.892   4.907
  4.955   5.027   5.060   5.312   5.359   5.456   5.533   5.535
  5.587   5.808   5.813   5.841   5.877   5.929   6.021   6.159
  6.566  24.410  24.595  27.682  27.996  28.244  28.284  28.312
 28.712  35.832  37.917  37.918  38.482  40.739  40.828  40.843
 40.920  40.931  41.064  41.155  41.164  41.245  41.318  41.333
 41.400  41.400  41.419  41.433
 --------------------------------------------------------------
 
          Ground-State Mulliken Net Atomic Charges

     Atom                 Charge (a.u.)    Spin (a.u.)
  --------------------------------------------------------
      1 C                     1.278751      -1.390931
      2 N                    -0.759536       0.476063
      3 C                     1.274334      -1.386637
      4 H                    -0.323779       0.515137
      5 H                    -0.049747       0.102972
      6 H                    -0.048934       0.102139
      7 H                    -1.186791       1.291907
      8 H                    -1.184298       1.289350
  --------------------------------------------------------
  Sum of atomic charges =    -1.000000
  Sum of spin   charges =     1.000000

 -----------------------------------------------------------------
                    Cartesian Multipole Moments
 -----------------------------------------------------------------
    Charge (ESU x 10^10)
                -4.8032
    Dipole Moment (Debye)
         X       7.9534      Y      -1.3658      Z      -0.0097
       Tot       8.0699
    Quadrupole Moments (Debye-Ang)
        XX     -53.2788     XY       4.9633     YY     -44.5943
        XZ       0.0145     YZ      -0.0093     ZZ     -42.6714
    Octapole Moments (Debye-Ang^2)
       XXX     107.5698    XXY     -13.8030    XYY      33.8856
       YYY     -28.1431    XXZ      -0.0570    XYZ       0.0093
       YYZ      -0.0415    XZZ      41.0744    YZZ     -17.3625
       ZZZ      -0.1256
    Hexadecapole Moments (Debye-Ang^3)
      XXXX    -500.1756   XXXY      30.7220   XXYY    -148.9449
      XYYY      28.4448   YYYY    -350.7663   XXXZ       0.1361
      XXYZ      -0.0432   XYYZ       0.0464   YYYZ      -0.0851
      XXZZ    -158.8040   XYZZ      19.4877   YYZZ    -128.8580
      XZZZ       0.1433   YZZZ      -0.1138   ZZZZ    -385.5574
 -----------------------------------------------------------------
 Total job time:  95.45s(wall), 94.32s(cpu) 
 Tue Apr 30 22:45:39 2013

        *************************************************************
        *                                                           *
        *  Thank you very much for using Q-Chem.  Have a nice day.  *
        *                                                           *
        *************************************************************


0 sent ACK to 0 
now end server 0 ... 
 
**********************************************************************
Job 2 of 3 
**********************************************************************
 
Process 0 of 1 is on cl085.stfx.acenet.ca - thread support 1
initial socket setup ...start
initial socket setup ...done 
now start server 0 ... 

cmd = /usr/bin/ssh clhead /usr/local/qchem/bin/get_hostid 1835205843 > /scratch/tmp/5956369.1.short.q/qchem4392/lic.dat
                  Welcome to Q-Chem
     A Quantum Leap Into The Future Of Chemistry

 Y. Shao, L. Fusti-Molnar, Y. Jung, J. Kussmann, C. Ochsenfeld,
 S. T. Brown, A. T. B. Gilbert, L. V. Slipchenko,S. V. Levchenko,
 D. P. O'Neill, R. A. DiStasio Jr., R. C. Lochan, T. Wang,
 G. J. O. Beran, N. A. Besley, J. M. Herbert, C. Y. Lin,
 T. Van Voorhis, S. H. Chien, A. Sodt, R. P. Steele, 
 V. A. Rassolov, P. E. Maslen, P. P. Korambath, R. D. Adamson,
 B. Austin, J. Baker, E. F. C. Byrd, H. Dachsel, R. J. Doerksen,
 A. Dreuw, B. D. Dunietz, A. D. Dutoi, T. R. Furlani,
 S. R. Gwaltney, A. Heyden, S. Hirata, C.-P. Hsu, G. Kedziora,
 R. Z. Khaliullin, P. Klunzinger, A. M. Lee, M. S. Lee, W. Liang,
 I. Lotan, N. Nair, B. Peters, E. I. Proynov, P. A. Pieniazek, 
 Y. M. Rhee, J. Ritchie, E. Rosta, C. D. Sherrill, 
 A. C. Simmonett, J. E. Subotnik, H. L. Woodcock III,
 W. Zhang, A. T. Bell, A. K. Chakraborty, D. M. Chipman,
 F. J. Keil, A. Warshel, W. J. Hehre, H. F. Schaefer III,
 J. Kong, A. I. Krylov, P. M. W. Gill, M. Head-Gordon,
 Q-Chem, Version 3.1, Q-Chem, Inc., Pittsburgh, PA (2007).

 Additional authors for Version 3.1: 
 Z. Gan, Y. Zhao, N. E. Schultz, D. Truhlar, E. Epifanovsky and M. Oana.

 Additional authors for Version 3.2: 
 R. Baer, B. R. Brooks, D. Casanova, J.-D. Chai, C.-L. Cheng, 
 C. Cramer, D. Crittenden, A. Ghysels, G. Hawkins, E. G. Hohenstein, 
 C. Kelley, W. Kurlancheek, D. Liotard, E. Livshits, P. Manohar, 
 A. Marenich, D. Neuhauser, R. Olson, M. A. Rohrdanz, K. S. Thanthiriwatte, 
 A. J. W. Thom, V. Vanovschi, C. F. Williams, Q. Wu and Z.-Q. You. 


 Intel X86 Linux Version

 Q-chem begins on Tue Apr 30 22:45:42 2013  

 Parallel job on  1  processors
Processing $rem in /usr/local/qchem/config/preferences.

theFileMan(): MAXOPENFILES=974 MAX_SUB_FILE_NUM=16
Maximum size of a physical file is 2.0 GB, maximum size of a tmp-file is 32.0 GB


--------------------------------------------------------------
User input:
--------------------------------------------------------------

$molecule
0,1
C,0.0342806532,0.3974627423,0.7425016446
N,0.0471070071,-0.874619445,0.
C,0.0342806532,0.3974627423,-0.7425016446
H,-0.8865994948,-1.285237551,0.
H,0.9497975775,0.6160289895,1.2875600468
H,0.9497975775,0.6160289895,-1.2875600468
H,-0.8770562739,0.7029813895,1.2546822265
H,-0.8770562739,0.7029813895,-1.2546822265

$end

$comment
neutral
$end

$xc_functional
C PBE   1.00
X wPBE  1.00
$end


$rem
SYMMETRY_DECOMPOSITION	0
LRC_DFT                 true
exchange 		general
BASIS                   g3large
omega			450
mem_static              760
max_scf_cycles          200
scf_final_print         1
sym_ignore              true
$end

--------------------------------------------------------------
 Writing REM_CC_EA            8
 ----------------------------------------------------
       Standard Nuclear Orientation (Angstroms)
    I     Atom         X            Y            Z
 ----------------------------------------------------
    1      C       0.034281     0.397463     0.742502
    2      N       0.047107    -0.874619     0.000000
    3      C       0.034281     0.397463    -0.742502
    4      H      -0.886599    -1.285238     0.000000
    5      H       0.949798     0.616029     1.287560
    6      H       0.949798     0.616029    -1.287560
    7      H      -0.877056     0.702981     1.254682
    8      H      -0.877056     0.702981    -1.254682
 ----------------------------------------------------
 Nuclear Repulsion Energy =    75.9996746244 hartrees
 There are       12 alpha and       12 beta electrons
 Requested basis set is G3large
 There are 60 shells and 176 basis functions

Total QAlloc Memory Limit   2000 MB
Mega-Array Size       743 MB
MEM_STATIC part       760 MB

                       Distance Matrix (Angstroms)
             C (  1)   N (  2)   C (  3)   H (  4)   H (  5)   H (  6)
   N (  2)  1.472979
   C (  3)  1.485003  1.472979
   H (  4)  2.056893  1.020007  2.056893
   H (  5)  1.087672  2.166724  2.237653  2.940235
   H (  6)  2.237653  2.166724  1.087672  2.940235  2.575120
   H (  7)  1.089131  2.217460  2.216443  2.351028  1.829218  3.131765
   H (  8)  2.216443  2.217460  1.089131  2.351028  3.131765  1.829218
             H (  7)
   H (  8)  2.509364
 
 A cutoff of  1.0D-08 yielded   1794 shell pairs
 There are  15512 function pairs ( 18917 Cartesian)
Evaluating contribution to one-electron hamiltonian from nuclear
 Smallest overlap matrix eigenvalue = 7.18E-05

 Q-Chem warning in module mkSTV.C, line 194:

 Overlap eigenvalue is smaller than square root of threshold

 Multipole matrices computed through 2nd order

  Scale SEOQF with 1.000000e-01/1.000000e-01/1.000000e-01

 Standard Electronic Orientation quadrupole field applied
 Nucleus-field energy     =    -0.0000000005 hartrees
 Guess from superposition of atomic densities
 Warning:  Energy on first SCF cycle will be non-variational
 Long-range K will be added via erf
 Coulomb attenuation parameter = 0.45 bohr**(-1)
 A restricted Kohn-Sham SCF calculation will be
 performed using Pulay DIIS extrapolation
 Exchange:  wPBE + LR-HF      Correlation:  PBE
 Using SG-1 standard quadrature grid
 SCF converges when DIIS error is below 1.0E-05
 Requested basis set is G3large
 There are 60 shells and 176 basis functions
 A cutoff of  1.0D-08 yielded   1794 shell pairs
 There are  15512 function pairs ( 18917 Cartesian)
 ---------------------------------------
  Cycle       Energy         DIIS Error
 ---------------------------------------
    1    -134.7447823143      3.57E-02
    2    -133.8397999687      3.23E-03
    3    -133.8695553507      2.11E-03
    4    -133.8822973671      5.58E-04
    5    -133.8834026941      1.22E-04
    6    -133.8834979527      4.23E-05
    7    -133.8835029026      9.66E-06 Convergence criterion met
 ---------------------------------------
 One-Electron    Energy =  -330.0424736537
 Total Coulomb   Energy =   139.7063178215
 Alpha Exchange  Energy =    -2.6157849795
 Beta  Exchange  Energy =    -2.6157849795
 DFT   Exchange  Energy =   -13.5317448104
 DFT Correlation Energy =    -0.7837069250
 Nuclear Repu.   Energy =    75.9996746239
 Nuclear Attr.   Energy =  -463.2102287667
 Kinetic         Energy =   133.1677551130
 SCF time:  CPU 58.29 s  wall 59.36 s
 Final Alpha MO Eigenvalues
            1           2           3           4           5           6
    1 -14.2232838 -10.1595416 -10.1592958  -1.1233334  -0.8158894  -0.7745780
            7           8           9          10          11          12
    1  -0.6648338  -0.6084554  -0.5043094  -0.4748587  -0.4649047  -0.3815906
           13          14          15          16          17
    1   0.0396286   0.0564588   0.0570567   0.0684584   0.0867289
 Analysis of SCF Wavefunction
 
 --------------------------------------------------------------
                    Orbital Energies (a.u.)
 --------------------------------------------------------------
 
 Alpha MOs
 -- Occupied --
-14.223 -10.160 -10.159  -1.123  -0.816  -0.775  -0.665  -0.608
 -0.504  -0.475  -0.465  -0.382
 -- Virtual --
  0.040   0.056   0.057   0.068   0.087   0.118   0.124   0.133
  0.165   0.178   0.181   0.194   0.214   0.220   0.232   0.236
  0.262   0.275   0.292   0.306   0.327   0.339   0.344   0.421
  0.421   0.520   0.538   0.602   0.619   0.637   0.645   0.665
  0.667   0.692   0.694   0.712   0.715   0.800   0.820   0.868
  0.881   0.924   0.964   0.992   1.003   1.018   1.088   1.117
  1.152   1.199   1.270   1.271   1.272   1.321   1.326   1.376
  1.415   1.423   1.456   1.518   1.542   1.559   1.592   1.635
  1.675   1.676   1.738   1.817   1.850   1.930   1.968   2.064
  2.582   2.654   2.667   2.673   2.844   2.861   2.864   2.942
  3.047   3.085   3.090   3.107   3.165   3.211   3.241   3.241
  3.333   3.337   3.395   3.421   3.428   3.439   3.446   3.487
  3.622   3.629   3.656   3.675   3.791   3.900   3.919   3.939
  4.016   4.065   4.122   4.165   4.197   4.270   4.289   4.311
  4.321   4.364   4.394   4.446   4.590   4.619   4.750   4.767
  4.814   4.886   4.920   5.171   5.219   5.316   5.393   5.396
  5.448   5.666   5.672   5.703   5.737   5.790   5.883   6.020
  6.423  24.269  24.454  27.541  27.855  28.102  28.143  28.170
 28.571  35.692  37.778  37.778  38.342  40.600  40.688  40.703
 40.780  40.791  40.923  41.013  41.022  41.104  41.177  41.192
 41.259  41.259  41.278  41.291
 --------------------------------------------------------------
 
          Ground-State Mulliken Net Atomic Charges

     Atom                 Charge (a.u.)
  ----------------------------------------
      1 C                    -0.123959
      2 N                    -0.254564
      3 C                    -0.124008
      4 H                     0.168742
      5 H                     0.084982
      6 H                     0.084989
      7 H                     0.081907
      8 H                     0.081911
  ----------------------------------------
  Sum of atomic charges =     0.000000

 -----------------------------------------------------------------
                    Cartesian Multipole Moments
 -----------------------------------------------------------------
    Charge (ESU x 10^10)
                 0.0000
    Dipole Moment (Debye)
         X      -1.3957      Y       1.1946      Z       0.0000
       Tot       1.8371
    Quadrupole Moments (Debye-Ang)
        XX     -17.5781     XY       2.2882     YY     -21.3187
        XZ       0.0000     YZ      -0.0001     ZZ     -18.3637
    Octapole Moments (Debye-Ang^2)
       XXX      -1.8232    XXY       0.0663    XYY      -3.7989
       YYY      -0.5424    XXZ      -0.0001    XYZ       0.0000
       YYZ       0.0000    XZZ       0.0178    YZZ       1.4897
       ZZZ      -0.0002
    Hexadecapole Moments (Debye-Ang^3)
      XXXX     -34.1667   XXXY       1.0844   XXYY     -16.8415
      XYYY       3.7596   YYYY     -75.5312   XXXZ       0.0001
      XXYZ      -0.0001   XYYZ       0.0000   YYYZ      -0.0002
      XXZZ     -16.7020   XYZZ      -0.2698   YYZZ     -25.4268
      XZZZ       0.0000   YZZZ      -0.0001   ZZZZ     -82.1744
 -----------------------------------------------------------------
 Total job time:  59.55s(wall), 58.47s(cpu) 
 Tue Apr 30 22:46:42 2013

        *************************************************************
        *                                                           *
        *  Thank you very much for using Q-Chem.  Have a nice day.  *
        *                                                           *
        *************************************************************


0 sent ACK to 0 
now end server 0 ... 
 
**********************************************************************
Job 3 of 3 
**********************************************************************
 
Process 0 of 1 is on cl085.stfx.acenet.ca - thread support 1
initial socket setup ...start
initial socket setup ...done 
now start server 0 ... 

cmd = /usr/bin/ssh clhead /usr/local/qchem/bin/get_hostid 166694278 > /scratch/tmp/5956369.1.short.q/qchem4392/lic.dat
                  Welcome to Q-Chem
     A Quantum Leap Into The Future Of Chemistry

 Y. Shao, L. Fusti-Molnar, Y. Jung, J. Kussmann, C. Ochsenfeld,
 S. T. Brown, A. T. B. Gilbert, L. V. Slipchenko,S. V. Levchenko,
 D. P. O'Neill, R. A. DiStasio Jr., R. C. Lochan, T. Wang,
 G. J. O. Beran, N. A. Besley, J. M. Herbert, C. Y. Lin,
 T. Van Voorhis, S. H. Chien, A. Sodt, R. P. Steele, 
 V. A. Rassolov, P. E. Maslen, P. P. Korambath, R. D. Adamson,
 B. Austin, J. Baker, E. F. C. Byrd, H. Dachsel, R. J. Doerksen,
 A. Dreuw, B. D. Dunietz, A. D. Dutoi, T. R. Furlani,
 S. R. Gwaltney, A. Heyden, S. Hirata, C.-P. Hsu, G. Kedziora,
 R. Z. Khaliullin, P. Klunzinger, A. M. Lee, M. S. Lee, W. Liang,
 I. Lotan, N. Nair, B. Peters, E. I. Proynov, P. A. Pieniazek, 
 Y. M. Rhee, J. Ritchie, E. Rosta, C. D. Sherrill, 
 A. C. Simmonett, J. E. Subotnik, H. L. Woodcock III,
 W. Zhang, A. T. Bell, A. K. Chakraborty, D. M. Chipman,
 F. J. Keil, A. Warshel, W. J. Hehre, H. F. Schaefer III,
 J. Kong, A. I. Krylov, P. M. W. Gill, M. Head-Gordon,
 Q-Chem, Version 3.1, Q-Chem, Inc., Pittsburgh, PA (2007).

 Additional authors for Version 3.1: 
 Z. Gan, Y. Zhao, N. E. Schultz, D. Truhlar, E. Epifanovsky and M. Oana.

 Additional authors for Version 3.2: 
 R. Baer, B. R. Brooks, D. Casanova, J.-D. Chai, C.-L. Cheng, 
 C. Cramer, D. Crittenden, A. Ghysels, G. Hawkins, E. G. Hohenstein, 
 C. Kelley, W. Kurlancheek, D. Liotard, E. Livshits, P. Manohar, 
 A. Marenich, D. Neuhauser, R. Olson, M. A. Rohrdanz, K. S. Thanthiriwatte, 
 A. J. W. Thom, V. Vanovschi, C. F. Williams, Q. Wu and Z.-Q. You. 


 Intel X86 Linux Version

 Q-chem begins on Tue Apr 30 22:46:45 2013  

 Parallel job on  1  processors
Processing $rem in /usr/local/qchem/config/preferences.

theFileMan(): MAXOPENFILES=974 MAX_SUB_FILE_NUM=16
Maximum size of a physical file is 2.0 GB, maximum size of a tmp-file is 32.0 GB


--------------------------------------------------------------
User input:
--------------------------------------------------------------

$molecule
1,2
C,0.0342806532,0.3974627423,0.7425016446
N,0.0471070071,-0.874619445,0.
C,0.0342806532,0.3974627423,-0.7425016446
H,-0.8865994948,-1.285237551,0.
H,0.9497975775,0.6160289895,1.2875600468
H,0.9497975775,0.6160289895,-1.2875600468
H,-0.8770562739,0.7029813895,1.2546822265
H,-0.8770562739,0.7029813895,-1.2546822265

$end

$comment
positive
$end

$xc_functional
C PBE   1.00
X wPBE  1.00
$end

$rem
SYMMETRY_DECOMPOSITION	0
LRC_DFT                 true
exchange 		general
BASIS                   g3large
omega			450
mem_static              760
max_scf_cycles          200
scf_final_print         1
sym_ignore              true
$end

--------------------------------------------------------------
 Writing REM_CC_EA            8
 ----------------------------------------------------
       Standard Nuclear Orientation (Angstroms)
    I     Atom         X            Y            Z
 ----------------------------------------------------
    1      C       0.034281     0.397463     0.742502
    2      N       0.047107    -0.874619     0.000000
    3      C       0.034281     0.397463    -0.742502
    4      H      -0.886599    -1.285238     0.000000
    5      H       0.949798     0.616029     1.287560
    6      H       0.949798     0.616029    -1.287560
    7      H      -0.877056     0.702981     1.254682
    8      H      -0.877056     0.702981    -1.254682
 ----------------------------------------------------
 Nuclear Repulsion Energy =    75.9996746244 hartrees
 There are       12 alpha and       11 beta electrons
 Requested basis set is G3large
 There are 60 shells and 176 basis functions

Total QAlloc Memory Limit   2000 MB
Mega-Array Size       743 MB
MEM_STATIC part       760 MB

                       Distance Matrix (Angstroms)
             C (  1)   N (  2)   C (  3)   H (  4)   H (  5)   H (  6)
   N (  2)  1.472979
   C (  3)  1.485003  1.472979
   H (  4)  2.056893  1.020007  2.056893
   H (  5)  1.087672  2.166724  2.237653  2.940235
   H (  6)  2.237653  2.166724  1.087672  2.940235  2.575120
   H (  7)  1.089131  2.217460  2.216443  2.351028  1.829218  3.131765
   H (  8)  2.216443  2.217460  1.089131  2.351028  3.131765  1.829218
             H (  7)
   H (  8)  2.509364
 
 A cutoff of  1.0D-08 yielded   1794 shell pairs
 There are  15512 function pairs ( 18917 Cartesian)
Evaluating contribution to one-electron hamiltonian from nuclear
 Smallest overlap matrix eigenvalue = 7.18E-05

 Q-Chem warning in module mkSTV.C, line 194:

 Overlap eigenvalue is smaller than square root of threshold

 Multipole matrices computed through 2nd order

  Scale SEOQF with 1.000000e-01/1.000000e-01/1.000000e-01

 Standard Electronic Orientation quadrupole field applied
 Nucleus-field energy     =    -0.0000000005 hartrees
 Guess from superposition of atomic densities
 Warning:  Energy on first SCF cycle will be non-variational
 Long-range K will be added via erf
 Coulomb attenuation parameter = 0.45 bohr**(-1)
 An unrestricted Kohn-Sham SCF calculation will be
 performed using Pulay DIIS extrapolation
 Exchange:  wPBE + LR-HF      Correlation:  PBE
 Using SG-1 standard quadrature grid
 SCF converges when DIIS error is below 1.0E-05
 Requested basis set is G3large
 There are 60 shells and 176 basis functions
 A cutoff of  1.0D-08 yielded   1794 shell pairs
 There are  15512 function pairs ( 18917 Cartesian)
 Warning!  Inaccurate integrated density:
   Number of electrons =    23
   Numerical integral  =    24.000071447379
   Relative error      =     4.3481367277 %
 ---------------------------------------
  Cycle       Energy         DIIS Error
 ---------------------------------------
    1    -134.7447823143      3.57E-02
    2    -133.4568321960      2.94E-03
    3    -133.5064828274      1.42E-03
    4    -133.5147978159      3.71E-04
    5    -133.5167002335      1.35E-04
    6    -133.5172604720      1.20E-04
    7    -133.5174889143      4.70E-05
    8    -133.5176269831      3.07E-05
    9    -133.5177227433      1.58E-05
   10    -133.5177434339      7.98E-06 Convergence criterion met
 ---------------------------------------
 One-Electron    Energy =  -322.9391983826
 Total Coulomb   Energy =   132.6406679410
 Alpha Exchange  Energy =    -2.6400076501
 Beta  Exchange  Energy =    -2.4080627082
 DFT   Exchange  Energy =   -13.4265546641
 DFT Correlation Energy =    -0.7442625938
 Nuclear Repu.   Energy =    75.9996746239
 Nuclear Attr.   Energy =  -455.8407116628
 Kinetic         Energy =   132.9015132802
 <S^2> = 0.7551
 SCF time:  CPU 103.59 s  wall 105.25 s
 Final Alpha MO Eigenvalues
            1           2           3           4           5           6
    1 -14.6066194 -10.4416583 -10.4413489  -1.4470236  -1.1261539  -1.0484887
            7           8           9          10          11          12
    1  -0.9613603  -0.9066884  -0.7910897  -0.7739029  -0.7634939  -0.7286626
           13          14          15          16          17
    1  -0.1194435  -0.0938103  -0.0826958  -0.0818502  -0.0630903
 Final Beta MO Eigenvalues
            1           2           3           4           5           6
    1 -14.5905766 -10.4403208 -10.4400422  -1.4234672  -1.0956974  -1.0394349
            7           8           9          10          11          12
    1  -0.9390632  -0.8697303  -0.7764568  -0.7549062  -0.7367443  -0.3470654
           13          14          15          16
    1  -0.1172351  -0.0912648  -0.0819094  -0.0805353
 Analysis of SCF Wavefunction
 
 --------------------------------------------------------------
                    Orbital Energies (a.u.)
 --------------------------------------------------------------
 
 Alpha MOs
 -- Occupied --
-14.607 -10.442 -10.441  -1.447  -1.126  -1.048  -0.961  -0.907
 -0.791  -0.774  -0.763  -0.729
 -- Virtual --
 -0.119  -0.094  -0.083  -0.082  -0.063  -0.041  -0.035  -0.029
 -0.013   0.006   0.017   0.025   0.034   0.042   0.046   0.054
  0.056   0.082   0.094   0.098   0.116   0.132   0.160   0.181
  0.192   0.309   0.321   0.371   0.389   0.408   0.415   0.422
  0.438   0.457   0.470   0.474   0.499   0.553   0.567   0.633
  0.648   0.664   0.721   0.733   0.749   0.765   0.840   0.881
  0.904   0.963   1.005   1.033   1.033   1.071   1.073   1.121
  1.166   1.168   1.213   1.283   1.291   1.319   1.354   1.389
  1.406   1.439   1.491   1.510   1.548   1.641   1.674   1.759
  2.313   2.380   2.391   2.418   2.582   2.585   2.588   2.654
  2.764   2.801   2.803   2.824   2.877   2.935   2.965   2.979
  3.042   3.046   3.125   3.128   3.134   3.168   3.174   3.188
  3.333   3.342   3.368   3.394   3.499   3.605   3.639   3.649
  3.708   3.777   3.813   3.893   3.919   3.977   4.022   4.045
  4.063   4.077   4.118   4.166   4.308   4.341   4.445   4.469
  4.525   4.591   4.603   4.859   4.897   4.953   5.022   5.101
  5.104   5.335   5.376   5.413   5.449   5.477   5.549   5.711
  6.084  23.988  24.172  27.256  27.571  27.822  27.862  27.890
 28.291  35.311  37.379  37.402  37.966  40.218  40.295  40.318
 40.391  40.414  40.638  40.730  40.737  40.821  40.893  40.908
 40.974  40.974  40.997  41.011
 
 Beta MOs
 -- Occupied --
-14.591 -10.440 -10.440  -1.423  -1.096  -1.039  -0.939  -0.870
 -0.776  -0.755  -0.737
 -- Virtual --
 -0.347  -0.117  -0.091  -0.082  -0.081  -0.047  -0.040  -0.035
 -0.027  -0.008   0.011   0.024   0.026   0.040   0.046   0.048
  0.055   0.061   0.086   0.101   0.103   0.120   0.134   0.162
  0.185   0.205   0.312   0.328   0.379   0.392   0.417   0.420
  0.438   0.443   0.464   0.476   0.478   0.503   0.563   0.574
  0.638   0.651   0.682   0.724   0.748   0.757   0.772   0.849
  0.883   0.916   0.968   1.017   1.036   1.037   1.079   1.081
  1.130   1.173   1.176   1.216   1.291   1.293   1.321   1.359
  1.393   1.420   1.443   1.493   1.543   1.575   1.653   1.690
  1.785   2.319   2.390   2.399   2.421   2.591   2.592   2.594
  2.663   2.773   2.814   2.814   2.835   2.888   2.942   2.972
  2.983   3.055   3.059   3.131   3.140   3.155   3.176   3.177
  3.204   3.346   3.357   3.377   3.402   3.514   3.623   3.656
  3.657   3.722   3.786   3.831   3.899   3.926   3.996   4.027
  4.053   4.068   4.091   4.128   4.172   4.322   4.348   4.462
  4.484   4.534   4.603   4.622   4.883   4.928   5.002   5.088
  5.114   5.139   5.379   5.393   5.419   5.473   5.484   5.586
  5.730   6.110  23.989  24.174  27.261  27.575  27.823  27.862
 27.891  28.291  35.329  37.413  37.421  37.978  40.237  40.328
 40.339  40.419  40.428  40.641  40.733  40.741  40.822  40.896
 40.911  40.976  40.977  40.997  41.011
 --------------------------------------------------------------
 
          Ground-State Mulliken Net Atomic Charges

     Atom                 Charge (a.u.)    Spin (a.u.)
  --------------------------------------------------------
      1 C                    -0.044536       0.083892
      2 N                     0.141289       0.755716
      3 C                    -0.044431       0.084066
      4 H                     0.263323       0.007948
      5 H                     0.177931       0.029450
      6 H                     0.177878       0.029369
      7 H                     0.164292       0.004799
      8 H                     0.164254       0.004760
  --------------------------------------------------------
  Sum of atomic charges =     1.000000
  Sum of spin   charges =     1.000000

 -----------------------------------------------------------------
                    Cartesian Multipole Moments
 -----------------------------------------------------------------
    Charge (ESU x 10^10)
                 4.8032
    Dipole Moment (Debye)
         X      -1.0335      Y      -0.0051      Z      -0.0003
       Tot       1.0335
    Quadrupole Moments (Debye-Ang)
        XX     -12.9883     XY       1.5277     YY     -13.4173
        XZ       0.0002     YZ       0.0001     ZZ     -12.5867
    Octapole Moments (Debye-Ang^2)
       XXX      -1.6817    XXY      -0.3289    XYY      -2.9613
       YYY      -4.8878    XXZ       0.0005    XYZ       0.0000
       YYZ       0.0002    XZZ       0.6165    YZZ       3.7713
       ZZZ       0.0003
    Hexadecapole Moments (Debye-Ang^3)
      XXXX     -23.6471   XXXY       0.8889   XXYY     -10.1589
      XYYY       1.3439   YYYY     -51.3767   XXXZ       0.0003
      XXYZ       0.0004   XYYZ       0.0001   YYYZ       0.0002
      XXZZ     -10.1073   XYZZ      -0.3831   YYZZ     -18.8071
      XZZZ       0.0005   YZZZ       0.0006   ZZZZ     -62.9004
 -----------------------------------------------------------------
 Total job time:  105.45s(wall), 103.77s(cpu) 
 Tue Apr 30 22:48:30 2013

        *************************************************************
        *                                                           *
        *  Thank you very much for using Q-Chem.  Have a nice day.  *
        *                                                           *
        *************************************************************


0 sent ACK to 0 
now end server 0 ... 
