Process 0 of 1 is on cl150.stfx.acenet.ca - thread support 1
initial socket setup ...start
initial socket setup ...done 
now start server 0 ... 

cmd = /usr/bin/ssh clhead /usr/local/qchem/bin/get_hostid 433955648 > /scratch/tmp/5998107.1.medium.q/qchem5588/lic.dat
                  Welcome to Q-Chem
     A Quantum Leap Into The Future Of Chemistry

 Y. Shao, L. Fusti-Molnar, Y. Jung, J. Kussmann, C. Ochsenfeld,
 S. T. Brown, A. T. B. Gilbert, L. V. Slipchenko,S. V. Levchenko,
 D. P. O'Neill, R. A. DiStasio Jr., R. C. Lochan, T. Wang,
 G. J. O. Beran, N. A. Besley, J. M. Herbert, C. Y. Lin,
 T. Van Voorhis, S. H. Chien, A. Sodt, R. P. Steele, 
 V. A. Rassolov, P. E. Maslen, P. P. Korambath, R. D. Adamson,
 B. Austin, J. Baker, E. F. C. Byrd, H. Dachsel, R. J. Doerksen,
 A. Dreuw, B. D. Dunietz, A. D. Dutoi, T. R. Furlani,
 S. R. Gwaltney, A. Heyden, S. Hirata, C.-P. Hsu, G. Kedziora,
 R. Z. Khaliullin, P. Klunzinger, A. M. Lee, M. S. Lee, W. Liang,
 I. Lotan, N. Nair, B. Peters, E. I. Proynov, P. A. Pieniazek, 
 Y. M. Rhee, J. Ritchie, E. Rosta, C. D. Sherrill, 
 A. C. Simmonett, J. E. Subotnik, H. L. Woodcock III,
 W. Zhang, A. T. Bell, A. K. Chakraborty, D. M. Chipman,
 F. J. Keil, A. Warshel, W. J. Hehre, H. F. Schaefer III,
 J. Kong, A. I. Krylov, P. M. W. Gill, M. Head-Gordon,
 Q-Chem, Version 3.1, Q-Chem, Inc., Pittsburgh, PA (2007).

 Additional authors for Version 3.1: 
 Z. Gan, Y. Zhao, N. E. Schultz, D. Truhlar, E. Epifanovsky and M. Oana.

 Additional authors for Version 3.2: 
 R. Baer, B. R. Brooks, D. Casanova, J.-D. Chai, C.-L. Cheng, 
 C. Cramer, D. Crittenden, A. Ghysels, G. Hawkins, E. G. Hohenstein, 
 C. Kelley, W. Kurlancheek, D. Liotard, E. Livshits, P. Manohar, 
 A. Marenich, D. Neuhauser, R. Olson, M. A. Rohrdanz, K. S. Thanthiriwatte, 
 A. J. W. Thom, V. Vanovschi, C. F. Williams, Q. Wu and Z.-Q. You. 


 Intel X86 Linux Version

 Q-chem begins on Wed May 22 11:19:07 2013  

 Parallel job on  1  processors
Processing $rem in /usr/local/qchem/config/preferences.

theFileMan(): MAXOPENFILES=974 MAX_SUB_FILE_NUM=16
Maximum size of a physical file is 2.0 GB, maximum size of a tmp-file is 32.0 GB


--------------------------------------------------------------
User input:
--------------------------------------------------------------

$molecule
-1,2
C          1.07457        0.00000        0.12997
C         -1.07457        0.00000        0.12997
C          0.00000        1.07457       -0.12997
C          0.00000       -1.07457       -0.12997
H          1.96370        0.00000       -0.50430
H          1.39267        0.00000        1.17603
H         -1.96370        0.00000       -0.50430
H         -1.39267        0.00000        1.17603
H          0.00000        1.96370        0.50430
H          0.00000        1.39267       -1.17603
H          0.00000       -1.96370        0.50430
H          0.00000       -1.39267       -1.17603
$end

$comment
negative
$end

$xc_functional
C PBE   1.00
X wPBE  1.00
$end

$rem
SYMMETRY_DECOMPOSITION	0
exchange 		general
LRC_DFT                 true
BASIS                   g3large
omega			700
mem_static              760
max_scf_cycles          200
scf_final_print         1
sym_ignore              true
$end

--------------------------------------------------------------
 Writing REM_CC_EA           12
 ----------------------------------------------------
       Standard Nuclear Orientation (Angstroms)
    I     Atom         X            Y            Z
 ----------------------------------------------------
    1      C       1.074570     0.000000     0.129970
    2      C      -1.074570     0.000000     0.129970
    3      C       0.000000     1.074570    -0.129970
    4      C       0.000000    -1.074570    -0.129970
    5      H       1.963700     0.000000    -0.504300
    6      H       1.392670     0.000000     1.176030
    7      H      -1.963700     0.000000    -0.504300
    8      H      -1.392670     0.000000     1.176030
    9      H       0.000000     1.963700     0.504300
   10      H       0.000000     1.392670    -1.176030
   11      H       0.000000    -1.963700     0.504300
   12      H       0.000000    -1.392670    -1.176030
 ----------------------------------------------------
 Nuclear Repulsion Energy =   127.5211585050 hartrees
 There are       17 alpha and       16 beta electrons
 Requested basis set is G3large
 There are 88 shells and 248 basis functions

Total QAlloc Memory Limit   2000 MB
Mega-Array Size       743 MB
MEM_STATIC part       760 MB

                       Distance Matrix (Angstroms)
             C (  1)   C (  2)   C (  3)   C (  4)   H (  5)   H (  6)
   C (  2)  2.149140
   C (  3)  1.541743  1.541743
   C (  4)  1.541743  1.541743  2.149140
   H (  5)  1.092177  3.103769  2.269569  2.269569
   H (  6)  1.093357  2.679835  2.190860  2.190860  1.774707
   H (  7)  3.103769  1.092177  2.269569  2.269569  3.927400  3.753496
   H (  8)  2.679835  1.093357  2.190860  2.190860  3.753496  2.785340
   H (  9)  2.269569  2.269569  1.092177  3.103769  2.954574  2.499374
   H ( 10)  2.190860  2.190860  1.093357  2.679835  2.499374  3.067775
   H ( 11)  2.269569  2.269569  3.103769  1.092177  2.954574  2.499374
   H ( 12)  2.190860  2.190860  2.679835  1.093357  2.499374  3.067775
             H (  7)   H (  8)   H (  9)   H ( 10)   H ( 11)
   H (  8)  1.774707
   H (  9)  2.954574  2.499374
   H ( 10)  2.499374  3.067775  1.774707
   H ( 11)  2.954574  2.499374  3.927400  3.753496
   H ( 12)  2.499374  3.067775  3.753496  2.785340  1.774707
 
 A cutoff of  1.0D-08 yielded   3738 shell pairs
 There are  29882 function pairs ( 36112 Cartesian)
Evaluating contribution to one-electron hamiltonian from nuclear
 Smallest overlap matrix eigenvalue = 1.07E-05

 Q-Chem warning in module mkSTV.C, line 194:

 Overlap eigenvalue is smaller than square root of threshold

 Multipole matrices computed through 2nd order

  Scale SEOQF with 1.000000e-01/1.000000e-01/1.000000e-01

 Standard Electronic Orientation quadrupole field applied
 Nucleus-field energy     =     0.0000000020 hartrees
 Guess from superposition of atomic densities
 Warning:  Energy on first SCF cycle will be non-variational
 Long-range K will be added via erf
 Coulomb attenuation parameter = 0.7 bohr**(-1)
 An unrestricted Kohn-Sham SCF calculation will be
 performed using Pulay DIIS extrapolation
 Exchange:  wPBE + LR-HF      Correlation:  PBE
 Using SG-1 standard quadrature grid
 SCF converges when DIIS error is below 1.0E-05
 Requested basis set is G3large
 There are 88 shells and 248 basis functions
 A cutoff of  1.0D-08 yielded   3738 shell pairs
 There are  29882 function pairs ( 36112 Cartesian)
 Warning!  Inaccurate integrated density:
   Number of electrons =    33
   Numerical integral  =    32.000754053762
   Relative error      =    -3.0280180189 %
 ---------------------------------------
  Cycle       Energy         DIIS Error
 ---------------------------------------
    1    -158.8008932107      2.99E-02
    2    -157.0591949433      2.38E-03
    3    -157.1201426447      1.21E-03
    4    -157.1334173834      3.49E-04
    5    -157.1359440593      6.18E-05
    6    -157.1362362614      2.15E-05
    7    -157.1363137373      7.99E-06 Convergence criterion met
 ---------------------------------------
 One-Electron    Energy =  -466.7435265610
 Total Coulomb   Energy =   206.8327657290
 Alpha Exchange  Energy =    -4.7867442199
 Beta  Exchange  Energy =    -4.7235421006
 DFT   Exchange  Energy =   -14.1882274984
 DFT Correlation Energy =    -1.0481975933
 Nuclear Repu.   Energy =   127.5211585070
 Nuclear Attr.   Energy =  -623.0332681946
 Kinetic         Energy =   156.2897416336
 <S^2> = 0.7501
 SCF time:  CPU 214.86 s  wall 215.57 s
 Final Alpha MO Eigenvalues
            1           2           3           4           5           6
    1 -10.1233346 -10.1229278 -10.1229254 -10.1225194  -0.9647687  -0.7464863
            7           8           9          10          11          12
    1  -0.7464705  -0.6125944  -0.5279586  -0.5227320  -0.4142937  -0.4142872
           13          14          15          16          17          18
    1  -0.3777866  -0.3296279  -0.3221130  -0.3221051   0.0364998   0.1297526
           19          20          21          22
    1   0.1322414   0.1322527   0.1607751   0.1723541
 Final Beta MO Eigenvalues
            1           2           3           4           5           6
    1 -10.1231343 -10.1227337 -10.1227312 -10.1223267  -0.9643399  -0.7453406
            7           8           9          10          11          12
    1  -0.7453259  -0.6112083  -0.5277065  -0.5207167  -0.4141097  -0.4141034
           13          14          15          16          17          18
    1  -0.3772690  -0.3294129  -0.3215596  -0.3215583   0.1356745   0.1451301
           19          20          21
    1   0.1451379   0.1483297   0.1632319
 Analysis of SCF Wavefunction
 
 --------------------------------------------------------------
                    Orbital Energies (a.u.)
 --------------------------------------------------------------
 
 Alpha MOs
 -- Occupied --
-10.123 -10.123 -10.123 -10.123  -0.965  -0.746  -0.746  -0.613
 -0.528  -0.523  -0.414  -0.414  -0.378  -0.330  -0.322  -0.322
  0.036
 -- Virtual --
  0.130   0.132   0.132   0.161   0.172   0.172   0.173   0.239
  0.253   0.253   0.266   0.266   0.281   0.281   0.291   0.309
  0.310   0.310   0.310   0.327   0.333   0.339   0.339   0.390
  0.443   0.443   0.455   0.477   0.477   0.506   0.519   0.519
  0.527   0.554   0.613   0.669   0.680   0.695   0.695   0.721
  0.738   0.770   0.781   0.781   0.821   0.822   0.822   0.832
  0.832   0.855   0.866   0.903   0.907   0.907   0.915   0.974
  0.990   1.032   1.065   1.065   1.148   1.148   1.184   1.202
  1.202   1.211   1.332   1.349   1.385   1.385   1.427   1.460
  1.464   1.468   1.493   1.493   1.506   1.536   1.556   1.556
  1.612   1.624   1.624   1.634   1.673   1.673   1.686   1.696
  1.704   1.704   1.745   1.745   1.774   1.799   1.863   1.884
  1.897   1.897   1.904   1.907   2.006   2.006   2.094   2.783
  2.841   2.860   2.887   2.887   3.027   3.055   3.062   3.082
  3.082   3.126   3.127   3.162   3.162   3.165   3.175   3.195
  3.195   3.286   3.286   3.380   3.401   3.401   3.500   3.520
  3.546   3.546   3.580   3.643   3.659   3.659   3.659   3.698
  3.734   3.784   3.784   3.800   3.859   3.912   3.946   3.946
  3.978   3.978   4.107   4.135   4.135   4.140   4.151   4.158
  4.164   4.204   4.204   4.226   4.336   4.336   4.406   4.459
  4.492   4.507   4.507   4.512   4.590   4.590   4.649   4.699
  4.713   4.713   4.741   4.805   4.832   4.832   4.857   4.912
  4.912   4.966   4.971   4.996   5.122   5.122   5.232   5.232
  5.238   5.238   5.665   5.712   5.848   5.848   5.853   6.005
  6.005   6.030   6.164  24.423  24.550  24.550  24.607  27.703
 28.043  28.053  28.053  28.430  28.430  28.493  28.521  28.618
 28.674  28.674  28.936  41.261  41.262  41.262  41.284  41.319
 41.330  41.330  41.330  41.469  41.484  41.494  41.494  41.512
 41.552  41.568  41.569  41.569  41.583  41.583  41.662
 
 Beta MOs
 -- Occupied --
-10.123 -10.123 -10.123 -10.122  -0.964  -0.745  -0.745  -0.611
 -0.528  -0.521  -0.414  -0.414  -0.377  -0.329  -0.322  -0.322
 -- Virtual --
  0.136   0.145   0.145   0.148   0.163   0.175   0.175   0.176
  0.235   0.245   0.245   0.259   0.261   0.275   0.275   0.282
  0.307   0.308   0.308   0.316   0.325   0.326   0.334   0.334
  0.386   0.443   0.443   0.450   0.475   0.475   0.505   0.513
  0.513   0.525   0.550   0.610   0.666   0.678   0.692   0.692
  0.720   0.738   0.768   0.780   0.780   0.818   0.820   0.820
  0.829   0.829   0.853   0.865   0.902   0.904   0.904   0.915
  0.971   0.989   1.033   1.065   1.065   1.148   1.148   1.185
  1.202   1.202   1.211   1.332   1.349   1.385   1.385   1.427
  1.460   1.464   1.467   1.492   1.492   1.506   1.536   1.556
  1.556   1.611   1.624   1.624   1.634   1.673   1.673   1.686
  1.696   1.704   1.704   1.744   1.744   1.773   1.799   1.863
  1.883   1.897   1.897   1.903   1.907   2.006   2.006   2.094
  2.783   2.841   2.860   2.886   2.886   3.027   3.054   3.062
  3.082   3.082   3.126   3.127   3.162   3.162   3.166   3.175
  3.195   3.195   3.286   3.286   3.380   3.402   3.402   3.500
  3.520   3.546   3.546   3.580   3.643   3.659   3.659   3.659
  3.699   3.734   3.784   3.784   3.800   3.860   3.912   3.947
  3.947   3.978   3.978   4.107   4.135   4.135   4.140   4.151
  4.159   4.164   4.204   4.204   4.226   4.336   4.336   4.406
  4.459   4.492   4.507   4.507   4.512   4.591   4.591   4.649
  4.699   4.714   4.714   4.741   4.805   4.832   4.832   4.857
  4.912   4.912   4.967   4.971   4.997   5.122   5.122   5.232
  5.232   5.238   5.238   5.666   5.712   5.848   5.848   5.853
  6.006   6.006   6.030   6.165  24.423  24.550  24.550  24.607
 27.703  28.043  28.054  28.054  28.430  28.430  28.493  28.521
 28.618  28.674  28.674  28.937  41.261  41.263  41.263  41.284
 41.319  41.330  41.330  41.330  41.469  41.484  41.494  41.494
 41.512  41.552  41.568  41.569  41.569  41.584  41.584  41.663
 --------------------------------------------------------------
 
          Ground-State Mulliken Net Atomic Charges

     Atom                 Charge (a.u.)    Spin (a.u.)
  --------------------------------------------------------
      1 C                     0.546097      -0.679057
      2 C                     0.541260      -0.674084
      3 C                     0.545148      -0.678133
      4 C                     0.543769      -0.676751
      5 H                    -0.566060       0.626479
      6 H                    -0.230279       0.302902
      7 H                    -0.562101       0.622381
      8 H                    -0.229209       0.301727
      9 H                    -0.564438       0.624793
     10 H                    -0.230593       0.303242
     11 H                    -0.563287       0.623559
     12 H                    -0.230308       0.302942
  --------------------------------------------------------
  Sum of atomic charges =    -1.000000
  Sum of spin   charges =     1.000000

 -----------------------------------------------------------------
                    Cartesian Multipole Moments
 -----------------------------------------------------------------
    Charge (ESU x 10^10)
                -4.8032
    Dipole Moment (Debye)
         X      -0.0196      Y      -0.0064      Z       0.0070
       Tot       0.0218
    Quadrupole Moments (Debye-Ang)
        XX     -56.2215     XY       0.0052     YY     -56.2194
        XZ       0.0103     YZ      -0.0040     ZZ     -58.2774
    Octapole Moments (Debye-Ang^2)
       XXX      -0.2982    XXY      -0.0262    XYY      -0.0836
       YYY      -0.0948    XXZ       8.1241    XYZ      -0.0001
       YYZ      -8.0607    XZZ      -0.1007    YZZ      -0.0311
       ZZZ       0.0894
    Hexadecapole Moments (Debye-Ang^3)
      XXXX    -593.5601   XXXY       0.0469   XXYY    -180.8249
      XYYY       0.0478   YYYY    -593.5230   XXXZ       0.1618
      XXYZ      -0.0096   XYYZ       0.0231   YYYZ      -0.0571
      XXZZ    -178.0271   XYZZ       0.0163   YYZZ    -178.0245
      XZZZ       0.0824   YZZZ      -0.0338   ZZZZ    -476.8598
 -----------------------------------------------------------------
 Total job time:  215.92s(wall), 215.19s(cpu) 
 Wed May 22 11:22:43 2013

        *************************************************************
        *                                                           *
        *  Thank you very much for using Q-Chem.  Have a nice day.  *
        *                                                           *
        *************************************************************


0 sent ACK to 0 
now end server 0 ... 
 
**********************************************************************
Job 2 of 3 
**********************************************************************
 
Process 0 of 1 is on cl150.stfx.acenet.ca - thread support 1
initial socket setup ...start
initial socket setup ...done 
now start server 0 ... 

cmd = /usr/bin/ssh clhead /usr/local/qchem/bin/get_hostid 1175812347 > /scratch/tmp/5998107.1.medium.q/qchem5588/lic.dat
                  Welcome to Q-Chem
     A Quantum Leap Into The Future Of Chemistry

 Y. Shao, L. Fusti-Molnar, Y. Jung, J. Kussmann, C. Ochsenfeld,
 S. T. Brown, A. T. B. Gilbert, L. V. Slipchenko,S. V. Levchenko,
 D. P. O'Neill, R. A. DiStasio Jr., R. C. Lochan, T. Wang,
 G. J. O. Beran, N. A. Besley, J. M. Herbert, C. Y. Lin,
 T. Van Voorhis, S. H. Chien, A. Sodt, R. P. Steele, 
 V. A. Rassolov, P. E. Maslen, P. P. Korambath, R. D. Adamson,
 B. Austin, J. Baker, E. F. C. Byrd, H. Dachsel, R. J. Doerksen,
 A. Dreuw, B. D. Dunietz, A. D. Dutoi, T. R. Furlani,
 S. R. Gwaltney, A. Heyden, S. Hirata, C.-P. Hsu, G. Kedziora,
 R. Z. Khaliullin, P. Klunzinger, A. M. Lee, M. S. Lee, W. Liang,
 I. Lotan, N. Nair, B. Peters, E. I. Proynov, P. A. Pieniazek, 
 Y. M. Rhee, J. Ritchie, E. Rosta, C. D. Sherrill, 
 A. C. Simmonett, J. E. Subotnik, H. L. Woodcock III,
 W. Zhang, A. T. Bell, A. K. Chakraborty, D. M. Chipman,
 F. J. Keil, A. Warshel, W. J. Hehre, H. F. Schaefer III,
 J. Kong, A. I. Krylov, P. M. W. Gill, M. Head-Gordon,
 Q-Chem, Version 3.1, Q-Chem, Inc., Pittsburgh, PA (2007).

 Additional authors for Version 3.1: 
 Z. Gan, Y. Zhao, N. E. Schultz, D. Truhlar, E. Epifanovsky and M. Oana.

 Additional authors for Version 3.2: 
 R. Baer, B. R. Brooks, D. Casanova, J.-D. Chai, C.-L. Cheng, 
 C. Cramer, D. Crittenden, A. Ghysels, G. Hawkins, E. G. Hohenstein, 
 C. Kelley, W. Kurlancheek, D. Liotard, E. Livshits, P. Manohar, 
 A. Marenich, D. Neuhauser, R. Olson, M. A. Rohrdanz, K. S. Thanthiriwatte, 
 A. J. W. Thom, V. Vanovschi, C. F. Williams, Q. Wu and Z.-Q. You. 


 Intel X86 Linux Version

 Q-chem begins on Wed May 22 11:22:46 2013  

 Parallel job on  1  processors
Processing $rem in /usr/local/qchem/config/preferences.

theFileMan(): MAXOPENFILES=974 MAX_SUB_FILE_NUM=16
Maximum size of a physical file is 2.0 GB, maximum size of a tmp-file is 32.0 GB


--------------------------------------------------------------
User input:
--------------------------------------------------------------

$molecule
0,1
C          1.07457        0.00000        0.12997
C         -1.07457        0.00000        0.12997
C          0.00000        1.07457       -0.12997
C          0.00000       -1.07457       -0.12997
H          1.96370        0.00000       -0.50430
H          1.39267        0.00000        1.17603
H         -1.96370        0.00000       -0.50430
H         -1.39267        0.00000        1.17603
H          0.00000        1.96370        0.50430
H          0.00000        1.39267       -1.17603
H          0.00000       -1.96370        0.50430
H          0.00000       -1.39267       -1.17603
$end

$comment
neutral
$end

$xc_functional
C PBE   1.00
X wPBE  1.00
$end


$rem
SYMMETRY_DECOMPOSITION	0
LRC_DFT                 true
exchange 		general
BASIS                   g3large
omega			700
mem_static              760
max_scf_cycles          200
scf_final_print         1
sym_ignore              true
$end

--------------------------------------------------------------
 Writing REM_CC_EA           12
 ----------------------------------------------------
       Standard Nuclear Orientation (Angstroms)
    I     Atom         X            Y            Z
 ----------------------------------------------------
    1      C       1.074570     0.000000     0.129970
    2      C      -1.074570     0.000000     0.129970
    3      C       0.000000     1.074570    -0.129970
    4      C       0.000000    -1.074570    -0.129970
    5      H       1.963700     0.000000    -0.504300
    6      H       1.392670     0.000000     1.176030
    7      H      -1.963700     0.000000    -0.504300
    8      H      -1.392670     0.000000     1.176030
    9      H       0.000000     1.963700     0.504300
   10      H       0.000000     1.392670    -1.176030
   11      H       0.000000    -1.963700     0.504300
   12      H       0.000000    -1.392670    -1.176030
 ----------------------------------------------------
 Nuclear Repulsion Energy =   127.5211585050 hartrees
 There are       16 alpha and       16 beta electrons
 Requested basis set is G3large
 There are 88 shells and 248 basis functions

Total QAlloc Memory Limit   2000 MB
Mega-Array Size       743 MB
MEM_STATIC part       760 MB

                       Distance Matrix (Angstroms)
             C (  1)   C (  2)   C (  3)   C (  4)   H (  5)   H (  6)
   C (  2)  2.149140
   C (  3)  1.541743  1.541743
   C (  4)  1.541743  1.541743  2.149140
   H (  5)  1.092177  3.103769  2.269569  2.269569
   H (  6)  1.093357  2.679835  2.190860  2.190860  1.774707
   H (  7)  3.103769  1.092177  2.269569  2.269569  3.927400  3.753496
   H (  8)  2.679835  1.093357  2.190860  2.190860  3.753496  2.785340
   H (  9)  2.269569  2.269569  1.092177  3.103769  2.954574  2.499374
   H ( 10)  2.190860  2.190860  1.093357  2.679835  2.499374  3.067775
   H ( 11)  2.269569  2.269569  3.103769  1.092177  2.954574  2.499374
   H ( 12)  2.190860  2.190860  2.679835  1.093357  2.499374  3.067775
             H (  7)   H (  8)   H (  9)   H ( 10)   H ( 11)
   H (  8)  1.774707
   H (  9)  2.954574  2.499374
   H ( 10)  2.499374  3.067775  1.774707
   H ( 11)  2.954574  2.499374  3.927400  3.753496
   H ( 12)  2.499374  3.067775  3.753496  2.785340  1.774707
 
 A cutoff of  1.0D-08 yielded   3738 shell pairs
 There are  29882 function pairs ( 36112 Cartesian)
Evaluating contribution to one-electron hamiltonian from nuclear
 Smallest overlap matrix eigenvalue = 1.07E-05

 Q-Chem warning in module mkSTV.C, line 194:

 Overlap eigenvalue is smaller than square root of threshold

 Multipole matrices computed through 2nd order

  Scale SEOQF with 1.000000e-01/1.000000e-01/1.000000e-01

 Standard Electronic Orientation quadrupole field applied
 Nucleus-field energy     =     0.0000000020 hartrees
 Guess from superposition of atomic densities
 Warning:  Energy on first SCF cycle will be non-variational
 Long-range K will be added via erf
 Coulomb attenuation parameter = 0.7 bohr**(-1)
 A restricted Kohn-Sham SCF calculation will be
 performed using Pulay DIIS extrapolation
 Exchange:  wPBE + LR-HF      Correlation:  PBE
 Using SG-1 standard quadrature grid
 SCF converges when DIIS error is below 1.0E-05
 Requested basis set is G3large
 There are 88 shells and 248 basis functions
 A cutoff of  1.0D-08 yielded   3738 shell pairs
 There are  29882 function pairs ( 36112 Cartesian)
 ---------------------------------------
  Cycle       Energy         DIIS Error
 ---------------------------------------
    1    -158.8008932107      2.99E-02
    2    -157.1253360587      2.22E-03
    3    -157.1693815141      8.68E-04
    4    -157.1750058270      3.35E-04
    5    -157.1760437725      4.43E-05
    6    -157.1760704707      1.10E-05
    7    -157.1760736576      2.00E-06 Convergence criterion met
 ---------------------------------------
 One-Electron    Energy =  -462.5999156426
 Total Coulomb   Energy =   202.5825851098
 Alpha Exchange  Energy =    -4.7262154808
 Beta  Exchange  Energy =    -4.7262154808
 DFT   Exchange  Energy =   -14.1859004715
 DFT Correlation Energy =    -1.0415701986
 Nuclear Repu.   Energy =   127.5211585070
 Nuclear Attr.   Energy =  -618.8274587988
 Kinetic         Energy =   156.2275431561
 SCF time:  CPU 159.68 s  wall 160.57 s
 Final Alpha MO Eigenvalues
            1           2           3           4           5           6
    1 -10.2544656 -10.2540639 -10.2540624 -10.2536561  -1.0954011  -0.8763531
            7           8           9          10          11          12
    1  -0.8763483  -0.7425329  -0.6587857  -0.6514645  -0.5453111  -0.5453109
           13          14          15          16          17          18
    1  -0.5080903  -0.4605453  -0.4522091  -0.4522013   0.0448192   0.0558554
           19          20          21
    1   0.0569723   0.0569817   0.0777960
 Analysis of SCF Wavefunction
 
 --------------------------------------------------------------
                    Orbital Energies (a.u.)
 --------------------------------------------------------------
 
 Alpha MOs
 -- Occupied --
-10.254 -10.254 -10.254 -10.254  -1.095  -0.876  -0.876  -0.743
 -0.659  -0.651  -0.545  -0.545  -0.508  -0.461  -0.452  -0.452
 -- Virtual --
  0.045   0.056   0.057   0.057   0.078   0.086   0.086   0.086
  0.138   0.153   0.153   0.162   0.166   0.178   0.178   0.191
  0.199   0.201   0.203   0.203   0.220   0.228   0.231   0.231
  0.271   0.320   0.320   0.339   0.357   0.357   0.379   0.403
  0.403   0.405   0.435   0.494   0.545   0.559   0.572   0.572
  0.598   0.609   0.645   0.656   0.656   0.694   0.698   0.698
  0.706   0.706   0.730   0.741   0.777   0.782   0.782   0.789
  0.849   0.862   0.902   0.937   0.937   1.018   1.018   1.054
  1.072   1.072   1.082   1.203   1.220   1.256   1.256   1.298
  1.330   1.335   1.339   1.364   1.364   1.377   1.409   1.427
  1.427   1.484   1.496   1.496   1.505   1.545   1.545   1.558
  1.568   1.576   1.576   1.615   1.615   1.646   1.671   1.735
  1.756   1.769   1.769   1.774   1.778   1.876   1.876   1.964
  2.653   2.710   2.730   2.757   2.757   2.897   2.925   2.931
  2.951   2.951   2.995   2.997   3.032   3.032   3.035   3.044
  3.065   3.065   3.156   3.156   3.249   3.271   3.271   3.369
  3.390   3.415   3.415   3.450   3.512   3.528   3.530   3.530
  3.568   3.604   3.654   3.654   3.670   3.730   3.782   3.816
  3.816   3.848   3.848   3.976   4.004   4.004   4.010   4.021
  4.028   4.034   4.073   4.073   4.096   4.205   4.205   4.276
  4.329   4.362   4.376   4.376   4.382   4.460   4.460   4.519
  4.568   4.583   4.583   4.610   4.674   4.702   4.702   4.726
  4.782   4.782   4.836   4.840   4.866   4.992   4.992   5.101
  5.102   5.107   5.107   5.535   5.581   5.717   5.717   5.722
  5.875   5.875   5.899   6.034  24.292  24.419  24.419  24.476
 27.572  27.912  27.922  27.922  28.299  28.299  28.362  28.390
 28.487  28.543  28.543  28.805  41.130  41.131  41.131  41.153
 41.188  41.198  41.198  41.199  41.338  41.352  41.362  41.362
 41.381  41.421  41.437  41.438  41.438  41.452  41.452  41.531
 --------------------------------------------------------------
 
          Ground-State Mulliken Net Atomic Charges

     Atom                 Charge (a.u.)
  ----------------------------------------
      1 C                    -0.131388
      2 C                    -0.131190
      3 C                    -0.131587
      4 C                    -0.131607
      5 H                     0.062795
      6 H                     0.068656
      7 H                     0.062754
      8 H                     0.068656
      9 H                     0.062795
     10 H                     0.068666
     11 H                     0.062777
     12 H                     0.068673
  ----------------------------------------
  Sum of atomic charges =     0.000000

 -----------------------------------------------------------------
                    Cartesian Multipole Moments
 -----------------------------------------------------------------
    Charge (ESU x 10^10)
                 0.0000
    Dipole Moment (Debye)
         X      -0.0001      Y      -0.0001      Z       0.0000
       Tot       0.0001
    Quadrupole Moments (Debye-Ang)
        XX     -26.7557     XY      -0.0001     YY     -26.7557
        XZ       0.0000     YZ       0.0000     ZZ     -25.2344
    Octapole Moments (Debye-Ang^2)
       XXX       0.0003    XXY       0.0000    XYY      -0.0001
       YYY       0.0002    XXZ      -0.7968    XYZ       0.0000
       YYZ       0.7968    XZZ       0.0001    YZZ       0.0001
       ZZZ       0.0000
    Hexadecapole Moments (Debye-Ang^3)
      XXXX    -150.7259   XXXY      -0.0008   XXYY     -53.6837
      XYYY      -0.0009   YYYY    -150.7259   XXXZ       0.0001
      XXYZ       0.0000   XYYZ       0.0000   YYYZ      -0.0001
      XXZZ     -33.2135   XYZZ      -0.0002   YYZZ     -33.2135
      XZZZ       0.0002   YZZZ      -0.0002   ZZZZ     -55.1926
 -----------------------------------------------------------------
 Total job time:  160.88s(wall), 159.98s(cpu) 
 Wed May 22 11:25:27 2013

        *************************************************************
        *                                                           *
        *  Thank you very much for using Q-Chem.  Have a nice day.  *
        *                                                           *
        *************************************************************


0 sent ACK to 0 
now end server 0 ... 
 
**********************************************************************
Job 3 of 3 
**********************************************************************
 
Process 0 of 1 is on cl150.stfx.acenet.ca - thread support 1
initial socket setup ...start
initial socket setup ...done 
now start server 0 ... 

cmd = /usr/bin/ssh clhead /usr/local/qchem/bin/get_hostid 2066327552 > /scratch/tmp/5998107.1.medium.q/qchem5588/lic.dat
                  Welcome to Q-Chem
     A Quantum Leap Into The Future Of Chemistry

 Y. Shao, L. Fusti-Molnar, Y. Jung, J. Kussmann, C. Ochsenfeld,
 S. T. Brown, A. T. B. Gilbert, L. V. Slipchenko,S. V. Levchenko,
 D. P. O'Neill, R. A. DiStasio Jr., R. C. Lochan, T. Wang,
 G. J. O. Beran, N. A. Besley, J. M. Herbert, C. Y. Lin,
 T. Van Voorhis, S. H. Chien, A. Sodt, R. P. Steele, 
 V. A. Rassolov, P. E. Maslen, P. P. Korambath, R. D. Adamson,
 B. Austin, J. Baker, E. F. C. Byrd, H. Dachsel, R. J. Doerksen,
 A. Dreuw, B. D. Dunietz, A. D. Dutoi, T. R. Furlani,
 S. R. Gwaltney, A. Heyden, S. Hirata, C.-P. Hsu, G. Kedziora,
 R. Z. Khaliullin, P. Klunzinger, A. M. Lee, M. S. Lee, W. Liang,
 I. Lotan, N. Nair, B. Peters, E. I. Proynov, P. A. Pieniazek, 
 Y. M. Rhee, J. Ritchie, E. Rosta, C. D. Sherrill, 
 A. C. Simmonett, J. E. Subotnik, H. L. Woodcock III,
 W. Zhang, A. T. Bell, A. K. Chakraborty, D. M. Chipman,
 F. J. Keil, A. Warshel, W. J. Hehre, H. F. Schaefer III,
 J. Kong, A. I. Krylov, P. M. W. Gill, M. Head-Gordon,
 Q-Chem, Version 3.1, Q-Chem, Inc., Pittsburgh, PA (2007).

 Additional authors for Version 3.1: 
 Z. Gan, Y. Zhao, N. E. Schultz, D. Truhlar, E. Epifanovsky and M. Oana.

 Additional authors for Version 3.2: 
 R. Baer, B. R. Brooks, D. Casanova, J.-D. Chai, C.-L. Cheng, 
 C. Cramer, D. Crittenden, A. Ghysels, G. Hawkins, E. G. Hohenstein, 
 C. Kelley, W. Kurlancheek, D. Liotard, E. Livshits, P. Manohar, 
 A. Marenich, D. Neuhauser, R. Olson, M. A. Rohrdanz, K. S. Thanthiriwatte, 
 A. J. W. Thom, V. Vanovschi, C. F. Williams, Q. Wu and Z.-Q. You. 


 Intel X86 Linux Version

 Q-chem begins on Wed May 22 11:25:30 2013  

 Parallel job on  1  processors
Processing $rem in /usr/local/qchem/config/preferences.

theFileMan(): MAXOPENFILES=974 MAX_SUB_FILE_NUM=16
Maximum size of a physical file is 2.0 GB, maximum size of a tmp-file is 32.0 GB


--------------------------------------------------------------
User input:
--------------------------------------------------------------

$molecule
1,2
C          1.07457        0.00000        0.12997
C         -1.07457        0.00000        0.12997
C          0.00000        1.07457       -0.12997
C          0.00000       -1.07457       -0.12997
H          1.96370        0.00000       -0.50430
H          1.39267        0.00000        1.17603
H         -1.96370        0.00000       -0.50430
H         -1.39267        0.00000        1.17603
H          0.00000        1.96370        0.50430
H          0.00000        1.39267       -1.17603
H          0.00000       -1.96370        0.50430
H          0.00000       -1.39267       -1.17603
$end

$comment
positive
$end

$xc_functional
C PBE   1.00
X wPBE  1.00
$end

$rem
SYMMETRY_DECOMPOSITION	0
LRC_DFT                 true
exchange 		general
BASIS                   g3large
omega			700
mem_static              760
max_scf_cycles          200
scf_final_print         1
sym_ignore              true
$end

--------------------------------------------------------------
 Writing REM_CC_EA           12
 ----------------------------------------------------
       Standard Nuclear Orientation (Angstroms)
    I     Atom         X            Y            Z
 ----------------------------------------------------
    1      C       1.074570     0.000000     0.129970
    2      C      -1.074570     0.000000     0.129970
    3      C       0.000000     1.074570    -0.129970
    4      C       0.000000    -1.074570    -0.129970
    5      H       1.963700     0.000000    -0.504300
    6      H       1.392670     0.000000     1.176030
    7      H      -1.963700     0.000000    -0.504300
    8      H      -1.392670     0.000000     1.176030
    9      H       0.000000     1.963700     0.504300
   10      H       0.000000     1.392670    -1.176030
   11      H       0.000000    -1.963700     0.504300
   12      H       0.000000    -1.392670    -1.176030
 ----------------------------------------------------
 Nuclear Repulsion Energy =   127.5211585050 hartrees
 There are       16 alpha and       15 beta electrons
 Requested basis set is G3large
 There are 88 shells and 248 basis functions

Total QAlloc Memory Limit   2000 MB
Mega-Array Size       743 MB
MEM_STATIC part       760 MB

                       Distance Matrix (Angstroms)
             C (  1)   C (  2)   C (  3)   C (  4)   H (  5)   H (  6)
   C (  2)  2.149140
   C (  3)  1.541743  1.541743
   C (  4)  1.541743  1.541743  2.149140
   H (  5)  1.092177  3.103769  2.269569  2.269569
   H (  6)  1.093357  2.679835  2.190860  2.190860  1.774707
   H (  7)  3.103769  1.092177  2.269569  2.269569  3.927400  3.753496
   H (  8)  2.679835  1.093357  2.190860  2.190860  3.753496  2.785340
   H (  9)  2.269569  2.269569  1.092177  3.103769  2.954574  2.499374
   H ( 10)  2.190860  2.190860  1.093357  2.679835  2.499374  3.067775
   H ( 11)  2.269569  2.269569  3.103769  1.092177  2.954574  2.499374
   H ( 12)  2.190860  2.190860  2.679835  1.093357  2.499374  3.067775
             H (  7)   H (  8)   H (  9)   H ( 10)   H ( 11)
   H (  8)  1.774707
   H (  9)  2.954574  2.499374
   H ( 10)  2.499374  3.067775  1.774707
   H ( 11)  2.954574  2.499374  3.927400  3.753496
   H ( 12)  2.499374  3.067775  3.753496  2.785340  1.774707
 
 A cutoff of  1.0D-08 yielded   3738 shell pairs
 There are  29882 function pairs ( 36112 Cartesian)
Evaluating contribution to one-electron hamiltonian from nuclear
 Smallest overlap matrix eigenvalue = 1.07E-05

 Q-Chem warning in module mkSTV.C, line 194:

 Overlap eigenvalue is smaller than square root of threshold

 Multipole matrices computed through 2nd order

  Scale SEOQF with 1.000000e-01/1.000000e-01/1.000000e-01

 Standard Electronic Orientation quadrupole field applied
 Nucleus-field energy     =     0.0000000020 hartrees
 Guess from superposition of atomic densities
 Warning:  Energy on first SCF cycle will be non-variational
 Long-range K will be added via erf
 Coulomb attenuation parameter = 0.7 bohr**(-1)
 An unrestricted Kohn-Sham SCF calculation will be
 performed using Pulay DIIS extrapolation
 Exchange:  wPBE + LR-HF      Correlation:  PBE
 Using SG-1 standard quadrature grid
 SCF converges when DIIS error is below 1.0E-05
 Requested basis set is G3large
 There are 88 shells and 248 basis functions
 A cutoff of  1.0D-08 yielded   3738 shell pairs
 There are  29882 function pairs ( 36112 Cartesian)
 Warning!  Inaccurate integrated density:
   Number of electrons =    31
   Numerical integral  =    32.000754053762
   Relative error      =     3.2282388831 %
 ---------------------------------------
  Cycle       Energy         DIIS Error
 ---------------------------------------
    1    -158.8008932107      2.99E-02
    2    -156.6986383294      2.08E-03
    3    -156.7508702784      8.28E-04
    4    -156.7564180936      3.11E-04
    5    -156.7574042532      2.97E-05
    6    -156.7574492967      1.25E-05
    7    -156.7574641800      6.97E-06 Convergence criterion met
 ---------------------------------------
 One-Electron    Energy =  -454.2756236513
 Total Coulomb   Energy =   194.3069645689
 Alpha Exchange  Energy =    -4.7686670416
 Beta  Exchange  Energy =    -4.4283174892
 DFT   Exchange  Energy =   -14.1083349237
 DFT Correlation Energy =    -1.0046441501
 Nuclear Repu.   Energy =   127.5211585070
 Nuclear Attr.   Energy =  -610.2419795336
 Kinetic         Energy =   155.9663558823
 <S^2> = 0.7577
 SCF time:  CPU 202.48 s  wall 203.25 s
 Final Alpha MO Eigenvalues
            1           2           3           4           5           6
    1 -10.5306689 -10.5302428 -10.5297857 -10.5293504  -1.3800409  -1.1521014
            7           8           9          10          11          12
    1  -1.1335578  -0.9955749  -0.9206679  -0.9167699  -0.7977266  -0.7943052
           13          14          15          16          17          18
    1  -0.7823120  -0.7446284  -0.7120215  -0.7069209  -0.0957852  -0.0810207
           19          20          21
    1  -0.0771279  -0.0762445  -0.0420400
 Final Beta MO Eigenvalues
            1           2           3           4           5           6
    1 -10.5267317 -10.5264805 -10.5258502 -10.5256270  -1.3472104  -1.1167360
            7           8           9          10          11          12
    1  -1.1118620  -0.9700745  -0.9007800  -0.8793300  -0.7901727  -0.7884779
           13          14          15          16          17          18
    1  -0.7272059  -0.7003578  -0.6998910  -0.3853849  -0.0946002  -0.0798283
           19          20
    1  -0.0769111  -0.0744485
 Analysis of SCF Wavefunction
 
 --------------------------------------------------------------
                    Orbital Energies (a.u.)
 --------------------------------------------------------------
 
 Alpha MOs
 -- Occupied --
-10.531 -10.530 -10.530 -10.529  -1.380  -1.152  -1.134  -0.996
 -0.921  -0.917  -0.798  -0.794  -0.782  -0.745  -0.712  -0.707
 -- Virtual --
 -0.096  -0.081  -0.077  -0.076  -0.042  -0.041  -0.034  -0.034
 -0.017  -0.002  -0.001   0.013   0.019   0.028   0.029   0.038
  0.043   0.047   0.054   0.054   0.071   0.080   0.081   0.084
  0.096   0.109   0.111   0.148   0.154   0.167   0.171   0.215
  0.222   0.223   0.261   0.297   0.349   0.357   0.368   0.373
  0.377   0.378   0.427   0.447   0.450   0.479   0.484   0.487
  0.496   0.498   0.524   0.528   0.549   0.566   0.575   0.577
  0.644   0.646   0.686   0.715   0.718   0.797   0.800   0.826
  0.845   0.848   0.851   0.985   0.996   1.041   1.042   1.076
  1.106   1.109   1.118   1.136   1.139   1.140   1.182   1.195
  1.200   1.258   1.262   1.266   1.276   1.310   1.311   1.332
  1.333   1.349   1.350   1.392   1.396   1.421   1.451   1.503
  1.538   1.541   1.541   1.541   1.551   1.644   1.645   1.734
  2.394   2.457   2.458   2.509   2.511   2.636   2.653   2.677
  2.689   2.695   2.730   2.746   2.768   2.771   2.779   2.798
  2.805   2.811   2.888   2.900   2.987   2.995   3.008   3.115
  3.129   3.164   3.166   3.183   3.252   3.272   3.276   3.282
  3.316   3.347   3.397   3.398   3.423   3.472   3.523   3.548
  3.549   3.585   3.592   3.728   3.740   3.743   3.745   3.758
  3.764   3.779   3.810   3.818   3.837   3.950   3.952   4.024
  4.074   4.103   4.116   4.120   4.129   4.206   4.211   4.263
  4.316   4.330   4.331   4.348   4.424   4.454   4.454   4.471
  4.522   4.522   4.584   4.592   4.608   4.720   4.730   4.832
  4.848   4.850   4.852   5.253   5.331   5.455   5.462   5.463
  5.621   5.622   5.651   5.779  24.018  24.143  24.145  24.200
 27.294  27.633  27.640  27.649  28.027  28.027  28.089  28.117
 28.211  28.263  28.270  28.529  40.850  40.852  40.852  40.874
 40.913  40.923  40.924  40.925  41.062  41.073  41.087  41.088
 41.105  41.145  41.160  41.161  41.162  41.174  41.176  41.252
 
 Beta MOs
 -- Occupied --
-10.527 -10.526 -10.526 -10.526  -1.347  -1.117  -1.112  -0.970
 -0.901  -0.879  -0.790  -0.788  -0.727  -0.700  -0.700
 -- Virtual --
 -0.385  -0.095  -0.080  -0.077  -0.074  -0.041  -0.040  -0.034
 -0.034  -0.015   0.002   0.003   0.014   0.022   0.030   0.030
  0.040   0.044   0.050   0.054   0.056   0.074   0.082   0.083
  0.085   0.098   0.117   0.121   0.161   0.166   0.176   0.177
  0.221   0.225   0.227   0.263   0.307   0.354   0.361   0.375
  0.380   0.382   0.387   0.440   0.453   0.455   0.487   0.489
  0.492   0.503   0.504   0.528   0.537   0.569   0.569   0.580
  0.584   0.649   0.652   0.688   0.721   0.722   0.802   0.803
  0.833   0.851   0.852   0.854   0.988   1.000   1.044   1.044
  1.082   1.109   1.117   1.121   1.143   1.143   1.149   1.192
  1.203   1.204   1.262   1.272   1.272   1.281   1.319   1.321
  1.336   1.342   1.354   1.355   1.398   1.399   1.425   1.455
  1.507   1.542   1.545   1.546   1.546   1.554   1.647   1.648
  1.740   2.405   2.465   2.473   2.519   2.520   2.645   2.673
  2.686   2.703   2.705   2.742   2.754   2.781   2.783   2.785
  2.810   2.812   2.815   2.904   2.904   2.997   3.014   3.016
  3.122   3.142   3.171   3.171   3.197   3.260   3.282   3.284
  3.289   3.323   3.359   3.406   3.408   3.429   3.482   3.531
  3.560   3.562   3.596   3.598   3.733   3.751   3.753   3.757
  3.766   3.773   3.787   3.820   3.823   3.845   3.959   3.959
  4.030   4.084   4.112   4.129   4.129   4.138   4.215   4.216
  4.272   4.323   4.338   4.339   4.359   4.432   4.460   4.460
  4.479   4.533   4.533   4.591   4.597   4.618   4.737   4.740
  4.845   4.855   4.858   4.858   5.274   5.336   5.467   5.469
  5.472   5.630   5.630   5.656   5.788  24.022  24.148  24.149
 24.205  27.300  27.641  27.651  27.651  28.029  28.029  28.092
 28.120  28.216  28.273  28.273  28.536  40.857  40.859  40.859
 40.880  40.917  40.927  40.927  40.928  41.066  41.080  41.090
 41.091  41.109  41.150  41.166  41.166  41.166  41.181  41.181
 41.259
 --------------------------------------------------------------
 
          Ground-State Mulliken Net Atomic Charges

     Atom                 Charge (a.u.)    Spin (a.u.)
  --------------------------------------------------------
      1 C                    -0.058918       0.192382
      2 C                    -0.057026       0.196908
      3 C                    -0.059079       0.192301
      4 C                    -0.057300       0.196863
      5 H                     0.166415       0.057369
      6 H                     0.142110      -0.000698
      7 H                     0.163597       0.049999
      8 H                     0.143982       0.004037
      9 H                     0.166460       0.057431
     10 H                     0.142116      -0.000688
     11 H                     0.163616       0.050049
     12 H                     0.144028       0.004048
  --------------------------------------------------------
  Sum of atomic charges =     1.000000
  Sum of spin   charges =     1.000000

 -----------------------------------------------------------------
                    Cartesian Multipole Moments
 -----------------------------------------------------------------
    Charge (ESU x 10^10)
                 4.8032
    Dipole Moment (Debye)
         X       0.0027      Y       0.0028      Z       0.0000
       Tot       0.0039
    Quadrupole Moments (Debye-Ang)
        XX     -17.0306     XY      -0.2960     YY     -17.0288
        XZ      -0.0474     YZ       0.0474     ZZ     -20.5128
    Octapole Moments (Debye-Ang^2)
       XXX       0.0616    XXY       0.0014    XYY       0.0014
       YYY       0.0616    XXZ      -0.6177    XYZ       0.0000
       YYZ       0.6179    XZZ      -0.0210    YZZ      -0.0210
       ZZZ      -0.0001
    Hexadecapole Moments (Debye-Ang^3)
      XXXX    -101.8237   XXXY      -1.3394   XXYY     -46.6507
      XYYY      -1.3394   YYYY    -101.8139   XXXZ      -0.1739
      XXYZ       0.0199   XYYZ      -0.0199   YYYZ       0.1739
      XXZZ     -24.2804   XYZZ      -0.2217   YYZZ     -24.2796
      XZZZ      -0.0622   YZZZ       0.0622   ZZZZ     -41.4024
 -----------------------------------------------------------------
 Total job time:  203.57s(wall), 202.78s(cpu) 
 Wed May 22 11:28:53 2013

        *************************************************************
        *                                                           *
        *  Thank you very much for using Q-Chem.  Have a nice day.  *
        *                                                           *
        *************************************************************


0 sent ACK to 0 
now end server 0 ... 
