Process 0 of 1 is on cl091.stfx.acenet.ca - thread support 1
initial socket setup ...start
initial socket setup ...done 
now start server 0 ... 

cmd = /usr/bin/ssh clhead /usr/local/qchem/bin/get_hostid 600073106 > /scratch/tmp/6064975.1.short.q/qchem28305/lic.dat
                  Welcome to Q-Chem
     A Quantum Leap Into The Future Of Chemistry

 Y. Shao, L. Fusti-Molnar, Y. Jung, J. Kussmann, C. Ochsenfeld,
 S. T. Brown, A. T. B. Gilbert, L. V. Slipchenko,S. V. Levchenko,
 D. P. O'Neill, R. A. DiStasio Jr., R. C. Lochan, T. Wang,
 G. J. O. Beran, N. A. Besley, J. M. Herbert, C. Y. Lin,
 T. Van Voorhis, S. H. Chien, A. Sodt, R. P. Steele, 
 V. A. Rassolov, P. E. Maslen, P. P. Korambath, R. D. Adamson,
 B. Austin, J. Baker, E. F. C. Byrd, H. Dachsel, R. J. Doerksen,
 A. Dreuw, B. D. Dunietz, A. D. Dutoi, T. R. Furlani,
 S. R. Gwaltney, A. Heyden, S. Hirata, C.-P. Hsu, G. Kedziora,
 R. Z. Khaliullin, P. Klunzinger, A. M. Lee, M. S. Lee, W. Liang,
 I. Lotan, N. Nair, B. Peters, E. I. Proynov, P. A. Pieniazek, 
 Y. M. Rhee, J. Ritchie, E. Rosta, C. D. Sherrill, 
 A. C. Simmonett, J. E. Subotnik, H. L. Woodcock III,
 W. Zhang, A. T. Bell, A. K. Chakraborty, D. M. Chipman,
 F. J. Keil, A. Warshel, W. J. Hehre, H. F. Schaefer III,
 J. Kong, A. I. Krylov, P. M. W. Gill, M. Head-Gordon,
 Q-Chem, Version 3.1, Q-Chem, Inc., Pittsburgh, PA (2007).

 Additional authors for Version 3.1: 
 Z. Gan, Y. Zhao, N. E. Schultz, D. Truhlar, E. Epifanovsky and M. Oana.

 Additional authors for Version 3.2: 
 R. Baer, B. R. Brooks, D. Casanova, J.-D. Chai, C.-L. Cheng, 
 C. Cramer, D. Crittenden, A. Ghysels, G. Hawkins, E. G. Hohenstein, 
 C. Kelley, W. Kurlancheek, D. Liotard, E. Livshits, P. Manohar, 
 A. Marenich, D. Neuhauser, R. Olson, M. A. Rohrdanz, K. S. Thanthiriwatte, 
 A. J. W. Thom, V. Vanovschi, C. F. Williams, Q. Wu and Z.-Q. You. 


 Intel X86 Linux Version

 Q-chem begins on Mon Jul  8 12:29:49 2013  

 Parallel job on  1  processors
Processing $rem in /usr/local/qchem/config/preferences.

theFileMan(): MAXOPENFILES=974 MAX_SUB_FILE_NUM=16
Maximum size of a physical file is 2.0 GB, maximum size of a tmp-file is 32.0 GB


--------------------------------------------------------------
User input:
--------------------------------------------------------------

$molecule
-1,1
N          0.00399        0.00000        0.00166
O          0.00042        0.00000        1.19663
O          0.86345        0.00000       -0.82843
$end

$comment
negative
$end

$xc_functional
C PBE   1.00
X wPBE  1.00
$end

$rem
SYMMETRY_DECOMPOSITION	0
exchange 		general
LRC_DFT                 true
BASIS                   g3large
omega			200
mem_static              760
max_scf_cycles          200
scf_final_print         1
sym_ignore              true
$end

--------------------------------------------------------------
 Writing REM_CC_EA            3
 ----------------------------------------------------
       Standard Nuclear Orientation (Angstroms)
    I     Atom         X            Y            Z
 ----------------------------------------------------
    1      N       0.003990     0.000000     0.001660
    2      O       0.000420     0.000000     1.196630
    3      O       0.863450     0.000000    -0.828430
 ----------------------------------------------------
 Nuclear Repulsion Energy =    64.9848850742 hartrees
 There are       12 alpha and       12 beta electrons
 Requested basis set is G3large
 There are 30 shells and 126 basis functions

Total QAlloc Memory Limit   2000 MB
Mega-Array Size       743 MB
MEM_STATIC part       760 MB

                       Distance Matrix (Angstroms)
             N (  1)   O (  2)
   O (  2)  1.194975
   O (  3)  1.194873  2.201293
 
 A cutoff of  1.0D-08 yielded    433 shell pairs
 There are   7808 function pairs ( 10265 Cartesian)
Evaluating contribution to one-electron hamiltonian from nuclear
 Smallest overlap matrix eigenvalue = 1.55E-03
 Multipole matrices computed through 2nd order

  Scale SEOQF with 1.000000e-01/1.000000e-01/1.000000e-01

 Standard Electronic Orientation quadrupole field applied
 Nucleus-field energy     =    -0.0000000016 hartrees
 Guess from superposition of atomic densities
 Warning:  Energy on first SCF cycle will be non-variational
 Long-range K will be added via erf
 Coulomb attenuation parameter = 0.2 bohr**(-1)
 A restricted Kohn-Sham SCF calculation will be
 performed using Pulay DIIS extrapolation
 Exchange:  wPBE + LR-HF      Correlation:  PBE
 Using SG-1 standard quadrature grid
 SCF converges when DIIS error is below 1.0E-05
 Requested basis set is G3large
 There are 30 shells and 126 basis functions
 A cutoff of  1.0D-08 yielded    433 shell pairs
 There are   7808 function pairs ( 10265 Cartesian)
 Warning!  Inaccurate integrated density:
   Number of electrons =    24
   Numerical integral  =    23.000032766208
   Relative error      =    -4.1665301408 %
 ---------------------------------------
  Cycle       Energy         DIIS Error
 ---------------------------------------
    1    -205.6314892666      4.61E-02
    2    -204.8722217627      1.03E-02
    3    -204.7915815085      1.40E-02
    4    -205.0292530461      1.32E-03
    5    -205.0312932489      4.92E-04
    6    -205.0317752668      2.47E-04
    7    -205.0318689109      1.69E-04
    8    -205.0319194086      3.54E-05
    9    -205.0319291755      8.28E-06 Convergence criterion met
 ---------------------------------------
 One-Electron    Energy =  -415.9871351637
 Total Coulomb   Energy =   170.0549991172
 Alpha Exchange  Energy =    -1.3084791203
 Beta  Exchange  Energy =    -1.3084791203
 DFT   Exchange  Energy =   -20.6591574496
 DFT Correlation Energy =    -0.8085625114
 Nuclear Repu.   Energy =    64.9848850726
 Nuclear Attr.   Energy =  -620.9111639345
 Kinetic         Energy =   204.9240287707
 SCF time:  CPU 22.77 s  wall 23.10 s
 Final Alpha MO Eigenvalues
            1           2           3           4           5           6
    1 -18.6384296 -18.6383898 -13.9838982  -0.9873472  -0.8448707  -0.4090484
            7           8           9          10          11          12
    1  -0.3220123  -0.3191135  -0.3010439  -0.1447318  -0.1242438  -0.0040856
           13          14          15          16          17
    1   0.2729959   0.2795199   0.2952102   0.3288165   0.3296295
 Analysis of SCF Wavefunction
 
 --------------------------------------------------------------
                    Orbital Energies (a.u.)
 --------------------------------------------------------------
 
 Alpha MOs
 -- Occupied --
-18.638 -18.638 -13.984  -0.987  -0.845  -0.409  -0.322  -0.319
 -0.301  -0.145  -0.124  -0.004
 -- Virtual --
  0.273   0.280   0.295   0.329   0.330   0.418   0.421   0.437
  0.457   0.473   0.490   0.569   0.615   0.626   0.795   1.009
  1.015   1.062   1.151   1.240   1.245   1.286   1.287   1.293
  1.347   1.359   1.372   1.395   1.707   1.765   1.776   1.807
  1.848   1.882   1.964   2.140   2.308   2.476   2.550   2.676
  2.700   2.862   3.750   3.764   3.873   3.917   3.927   3.978
  4.239   4.239   4.624   4.631   4.699   4.763   4.863   4.919
  4.980   5.169   5.174   5.198   5.243   5.252   5.293   5.297
  5.321   5.517   5.642   5.694   5.722   5.762   5.919   6.372
  6.657   6.946   6.955   6.976   6.999   7.110   7.220   7.291
  7.335   7.369   7.425   7.617   7.810   7.984   8.326  36.016
 37.456  37.639  38.497  40.506  40.596  40.663  40.797  40.897
 43.780  43.795  43.837  43.848  43.887  43.943  43.949  43.983
 44.070  44.129  45.793  45.802  45.813  45.948  46.437  46.778
 50.141  50.208
 --------------------------------------------------------------
 
          Ground-State Mulliken Net Atomic Charges

     Atom                 Charge (a.u.)
  ----------------------------------------
      1 N                    -1.173846
      2 O                     0.086730
      3 O                     0.087116
  ----------------------------------------
  Sum of atomic charges =    -1.000000

 -----------------------------------------------------------------
                    Cartesian Multipole Moments
 -----------------------------------------------------------------
    Charge (ESU x 10^10)
                -4.8032
    Dipole Moment (Debye)
         X      -1.5184      Y       0.0000      Z      -0.6477
       Tot       1.6508
    Quadrupole Moments (Debye-Ang)
        XX     -23.6420     XY      -0.0001     YY     -19.1454
        XZ       0.7960     YZ      -0.0002     ZZ     -25.1714
    Octapole Moments (Debye-Ang^2)
       XXX     -20.6200    XXY      -0.0001    XYY      -5.5103
       YYY      -0.0002    XXZ      -1.0167    XYZ      -0.0001
       YYZ      -2.3482    XZZ      -7.8937    YZZ      -0.0002
       ZZZ     -11.1366
    Hexadecapole Moments (Debye-Ang^3)
      XXXX     -67.2493   XXXY      -0.0002   XXYY     -14.7568
      XYYY      -0.0002   YYYY     -26.0267   XXXZ      12.4956
      XXYZ      -0.0001   XYYZ       3.5370   YYYZ      -0.0003
      XXZZ     -29.8492   XYZZ      -0.0001   YYZZ     -21.5497
      XZZZ      10.8649   YZZZ      -0.0007   ZZZZ    -112.1127
 -----------------------------------------------------------------
 Total job time:  23.25s(wall), 22.90s(cpu) 
 Mon Jul  8 12:30:12 2013

        *************************************************************
        *                                                           *
        *  Thank you very much for using Q-Chem.  Have a nice day.  *
        *                                                           *
        *************************************************************


0 sent ACK to 0 
now end server 0 ... 
 
**********************************************************************
Job 2 of 3 
**********************************************************************
 
Process 0 of 1 is on cl091.stfx.acenet.ca - thread support 1
initial socket setup ...start
initial socket setup ...done 
now start server 0 ... 

cmd = /usr/bin/ssh clhead /usr/local/qchem/bin/get_hostid 203563036 > /scratch/tmp/6064975.1.short.q/qchem28305/lic.dat
                  Welcome to Q-Chem
     A Quantum Leap Into The Future Of Chemistry

 Y. Shao, L. Fusti-Molnar, Y. Jung, J. Kussmann, C. Ochsenfeld,
 S. T. Brown, A. T. B. Gilbert, L. V. Slipchenko,S. V. Levchenko,
 D. P. O'Neill, R. A. DiStasio Jr., R. C. Lochan, T. Wang,
 G. J. O. Beran, N. A. Besley, J. M. Herbert, C. Y. Lin,
 T. Van Voorhis, S. H. Chien, A. Sodt, R. P. Steele, 
 V. A. Rassolov, P. E. Maslen, P. P. Korambath, R. D. Adamson,
 B. Austin, J. Baker, E. F. C. Byrd, H. Dachsel, R. J. Doerksen,
 A. Dreuw, B. D. Dunietz, A. D. Dutoi, T. R. Furlani,
 S. R. Gwaltney, A. Heyden, S. Hirata, C.-P. Hsu, G. Kedziora,
 R. Z. Khaliullin, P. Klunzinger, A. M. Lee, M. S. Lee, W. Liang,
 I. Lotan, N. Nair, B. Peters, E. I. Proynov, P. A. Pieniazek, 
 Y. M. Rhee, J. Ritchie, E. Rosta, C. D. Sherrill, 
 A. C. Simmonett, J. E. Subotnik, H. L. Woodcock III,
 W. Zhang, A. T. Bell, A. K. Chakraborty, D. M. Chipman,
 F. J. Keil, A. Warshel, W. J. Hehre, H. F. Schaefer III,
 J. Kong, A. I. Krylov, P. M. W. Gill, M. Head-Gordon,
 Q-Chem, Version 3.1, Q-Chem, Inc., Pittsburgh, PA (2007).

 Additional authors for Version 3.1: 
 Z. Gan, Y. Zhao, N. E. Schultz, D. Truhlar, E. Epifanovsky and M. Oana.

 Additional authors for Version 3.2: 
 R. Baer, B. R. Brooks, D. Casanova, J.-D. Chai, C.-L. Cheng, 
 C. Cramer, D. Crittenden, A. Ghysels, G. Hawkins, E. G. Hohenstein, 
 C. Kelley, W. Kurlancheek, D. Liotard, E. Livshits, P. Manohar, 
 A. Marenich, D. Neuhauser, R. Olson, M. A. Rohrdanz, K. S. Thanthiriwatte, 
 A. J. W. Thom, V. Vanovschi, C. F. Williams, Q. Wu and Z.-Q. You. 


 Intel X86 Linux Version

 Q-chem begins on Mon Jul  8 12:30:15 2013  

 Parallel job on  1  processors
Processing $rem in /usr/local/qchem/config/preferences.

theFileMan(): MAXOPENFILES=974 MAX_SUB_FILE_NUM=16
Maximum size of a physical file is 2.0 GB, maximum size of a tmp-file is 32.0 GB


--------------------------------------------------------------
User input:
--------------------------------------------------------------

$molecule
0,2
N          0.00399        0.00000        0.00166
O          0.00042        0.00000        1.19663
O          0.86345        0.00000       -0.82843
$end

$comment
neutral
$end

$xc_functional
C PBE   1.00
X wPBE  1.00
$end


$rem
SYMMETRY_DECOMPOSITION	0
LRC_DFT                 true
exchange 		general
BASIS                   g3large
omega			200
mem_static              760
max_scf_cycles          200
scf_final_print         1
sym_ignore              true
$end

--------------------------------------------------------------
 Writing REM_CC_EA            3
 ----------------------------------------------------
       Standard Nuclear Orientation (Angstroms)
    I     Atom         X            Y            Z
 ----------------------------------------------------
    1      N       0.003990     0.000000     0.001660
    2      O       0.000420     0.000000     1.196630
    3      O       0.863450     0.000000    -0.828430
 ----------------------------------------------------
 Nuclear Repulsion Energy =    64.9848850742 hartrees
 There are       12 alpha and       11 beta electrons
 Requested basis set is G3large
 There are 30 shells and 126 basis functions

Total QAlloc Memory Limit   2000 MB
Mega-Array Size       743 MB
MEM_STATIC part       760 MB

                       Distance Matrix (Angstroms)
             N (  1)   O (  2)
   O (  2)  1.194975
   O (  3)  1.194873  2.201293
 
 A cutoff of  1.0D-08 yielded    433 shell pairs
 There are   7808 function pairs ( 10265 Cartesian)
Evaluating contribution to one-electron hamiltonian from nuclear
 Smallest overlap matrix eigenvalue = 1.55E-03
 Multipole matrices computed through 2nd order

  Scale SEOQF with 1.000000e-01/1.000000e-01/1.000000e-01

 Standard Electronic Orientation quadrupole field applied
 Nucleus-field energy     =    -0.0000000016 hartrees
 Guess from superposition of atomic densities
 Warning:  Energy on first SCF cycle will be non-variational
 Long-range K will be added via erf
 Coulomb attenuation parameter = 0.2 bohr**(-1)
 An unrestricted Kohn-Sham SCF calculation will be
 performed using Pulay DIIS extrapolation
 Exchange:  wPBE + LR-HF      Correlation:  PBE
 Using SG-1 standard quadrature grid
 SCF converges when DIIS error is below 1.0E-05
 Requested basis set is G3large
 There are 30 shells and 126 basis functions
 A cutoff of  1.0D-08 yielded    433 shell pairs
 There are   7808 function pairs ( 10265 Cartesian)
 ---------------------------------------
  Cycle       Energy         DIIS Error
 ---------------------------------------
    1    -205.6314892666      4.61E-02
    2    -204.8445297747      9.81E-03
    3    -204.6270381159      1.66E-02
    4    -204.9864901900      7.43E-04
    5    -204.9870885575      2.57E-04
    6    -204.9871390331      2.24E-04
    7    -204.9872137046      5.10E-05
    8    -204.9872263281      2.01E-05
    9    -204.9872292840      8.69E-06 Convergence criterion met
 ---------------------------------------
 One-Electron    Energy =  -408.7627946153
 Total Coulomb   Energy =   162.5676710522
 Alpha Exchange  Energy =    -1.3152538496
 Beta  Exchange  Energy =    -1.2022904761
 DFT   Exchange  Energy =   -20.4807487240
 DFT Correlation Energy =    -0.7786977437
 Nuclear Repu.   Energy =    64.9848850726
 Nuclear Attr.   Energy =  -613.3221934533
 Kinetic         Energy =   204.5593988379
 <S^2> = 0.7521
 SCF time:  CPU 26.75 s  wall 27.33 s
 Final Alpha MO Eigenvalues
            1           2           3           4           5           6
    1 -18.9705416 -18.9701954 -14.3315075  -1.3123675  -1.1711602  -0.7237771
            7           8           9          10          11          12
    1  -0.6340767  -0.6320141  -0.6281998  -0.4461941  -0.4394045  -0.3440122
           13          14          15          16          17
    1  -0.0372222   0.0850240   0.1246313   0.1370819   0.1398479
 Final Beta MO Eigenvalues
            1           2           3           4           5           6
    1 -18.9627907 -18.9625564 -14.3226006  -1.2982542  -1.1550812  -0.6986464
            7           8           9          10          11          12
    1  -0.6241503  -0.6108444  -0.5985851  -0.4395978  -0.4104006  -0.0941850
           13          14          15          16
    1  -0.0224524   0.0909977   0.1267266   0.1423337
 Analysis of SCF Wavefunction
 
 --------------------------------------------------------------
                    Orbital Energies (a.u.)
 --------------------------------------------------------------
 
 Alpha MOs
 -- Occupied --
-18.971 -18.970 -14.332  -1.312  -1.171  -0.724  -0.634  -0.632
 -0.628  -0.446  -0.439  -0.344
 -- Virtual --
 -0.037   0.085   0.125   0.137   0.140   0.216   0.231   0.246
  0.256   0.278   0.303   0.307   0.367   0.415   0.476   0.730
  0.746   0.793   0.877   0.935   0.980   1.010   1.031   1.031
  1.081   1.089   1.099   1.104   1.409   1.473   1.506   1.536
  1.539   1.578   1.664   1.834   2.019   2.164   2.254   2.388
  2.409   2.554   3.418   3.435   3.549   3.585   3.603   3.664
  3.917   3.921   4.291   4.308   4.376   4.441   4.523   4.572
  4.636   4.854   4.864   4.882   4.930   4.946   4.976   4.979
  4.995   5.203   5.317   5.385   5.403   5.444   5.600   6.036
  6.341   6.623   6.629   6.646   6.673   6.787   6.891   6.963
  7.030   7.053   7.114   7.295   7.499   7.665   7.989  35.670
 37.112  37.283  38.154  40.153  40.244  40.322  40.449  40.550
 43.446  43.461  43.505  43.511  43.549  43.617  43.618  43.645
 43.737  43.795  45.457  45.474  45.485  45.610  46.104  46.447
 49.811  49.878
 
 Beta MOs
 -- Occupied --
-18.963 -18.963 -14.323  -1.298  -1.155  -0.699  -0.624  -0.611
 -0.599  -0.440  -0.410
 -- Virtual --
 -0.094  -0.022   0.091   0.127   0.142   0.144   0.221   0.234
  0.247   0.263   0.281   0.310   0.312   0.372   0.419   0.500
  0.753   0.755   0.798   0.894   0.952   0.989   1.030   1.035
  1.041   1.093   1.098   1.109   1.112   1.421   1.481   1.515
  1.546   1.559   1.599   1.674   1.848   2.024   2.189   2.267
  2.401   2.419   2.579   3.448   3.463   3.563   3.610   3.626
  3.673   3.929   3.935   4.316   4.319   4.388   4.453   4.560
  4.613   4.673   4.870   4.877   4.896   4.947   4.955   4.997
  5.001   5.022   5.222   5.338   5.395   5.421   5.461   5.614
  6.067   6.348   6.645   6.656   6.677   6.701   6.800   6.924
  6.977   7.035   7.068   7.127   7.323   7.514   7.683   8.017
 35.681  37.119  37.307  38.160  40.171  40.261  40.323  40.459
 40.560  43.461  43.475  43.516  43.529  43.569  43.619  43.628
 43.665  43.749  43.808  45.473  45.479  45.489  45.629  46.116
 46.456  49.819  49.886
 --------------------------------------------------------------
 
          Ground-State Mulliken Net Atomic Charges

     Atom                 Charge (a.u.)    Spin (a.u.)
  --------------------------------------------------------
      1 N                    -0.011511       0.470715
      2 O                     0.005513       0.263209
      3 O                     0.005998       0.266077
  --------------------------------------------------------
  Sum of atomic charges =     0.000000
  Sum of spin   charges =     1.000000

 -----------------------------------------------------------------
                    Cartesian Multipole Moments
 -----------------------------------------------------------------
    Charge (ESU x 10^10)
                 0.0000
    Dipole Moment (Debye)
         X      -0.2760      Y       0.0000      Z      -0.1191
       Tot       0.3006
    Quadrupole Moments (Debye-Ang)
        XX     -16.3123     XY      -0.0001     YY     -14.9818
        XZ       0.6837     YZ      -0.0002     ZZ     -17.6273
    Octapole Moments (Debye-Ang^2)
       XXX     -13.9878    XXY       0.0001    XYY      -4.3916
       YYY       0.0000    XXZ      -1.6815    XYZ      -0.0001
       YYZ      -1.8714    XZZ      -4.8286    YZZ      -0.0002
       ZZZ      -6.3449
    Hexadecapole Moments (Debye-Ang^3)
      XXXX     -37.4113   XXXY       0.0000   XXYY      -8.0741
      XYYY       0.0000   YYYY     -11.8346   XXXZ      11.4461
      XXYZ      -0.0001   XYYZ       3.7930   YYYZ      -0.0002
      XXZZ     -19.8850   XYZZ      -0.0001   YYZZ     -15.3584
      XZZZ      11.6792   YZZZ      -0.0005   ZZZZ     -81.8341
 -----------------------------------------------------------------
 Total job time:  27.47s(wall), 26.87s(cpu) 
 Mon Jul  8 12:30:42 2013

        *************************************************************
        *                                                           *
        *  Thank you very much for using Q-Chem.  Have a nice day.  *
        *                                                           *
        *************************************************************


0 sent ACK to 0 
now end server 0 ... 
 
**********************************************************************
Job 3 of 3 
**********************************************************************
 
Process 0 of 1 is on cl091.stfx.acenet.ca - thread support 1
initial socket setup ...start
initial socket setup ...done 
now start server 0 ... 

cmd = /usr/bin/ssh clhead /usr/local/qchem/bin/get_hostid 447134297 > /scratch/tmp/6064975.1.short.q/qchem28305/lic.dat
                  Welcome to Q-Chem
     A Quantum Leap Into The Future Of Chemistry

 Y. Shao, L. Fusti-Molnar, Y. Jung, J. Kussmann, C. Ochsenfeld,
 S. T. Brown, A. T. B. Gilbert, L. V. Slipchenko,S. V. Levchenko,
 D. P. O'Neill, R. A. DiStasio Jr., R. C. Lochan, T. Wang,
 G. J. O. Beran, N. A. Besley, J. M. Herbert, C. Y. Lin,
 T. Van Voorhis, S. H. Chien, A. Sodt, R. P. Steele, 
 V. A. Rassolov, P. E. Maslen, P. P. Korambath, R. D. Adamson,
 B. Austin, J. Baker, E. F. C. Byrd, H. Dachsel, R. J. Doerksen,
 A. Dreuw, B. D. Dunietz, A. D. Dutoi, T. R. Furlani,
 S. R. Gwaltney, A. Heyden, S. Hirata, C.-P. Hsu, G. Kedziora,
 R. Z. Khaliullin, P. Klunzinger, A. M. Lee, M. S. Lee, W. Liang,
 I. Lotan, N. Nair, B. Peters, E. I. Proynov, P. A. Pieniazek, 
 Y. M. Rhee, J. Ritchie, E. Rosta, C. D. Sherrill, 
 A. C. Simmonett, J. E. Subotnik, H. L. Woodcock III,
 W. Zhang, A. T. Bell, A. K. Chakraborty, D. M. Chipman,
 F. J. Keil, A. Warshel, W. J. Hehre, H. F. Schaefer III,
 J. Kong, A. I. Krylov, P. M. W. Gill, M. Head-Gordon,
 Q-Chem, Version 3.1, Q-Chem, Inc., Pittsburgh, PA (2007).

 Additional authors for Version 3.1: 
 Z. Gan, Y. Zhao, N. E. Schultz, D. Truhlar, E. Epifanovsky and M. Oana.

 Additional authors for Version 3.2: 
 R. Baer, B. R. Brooks, D. Casanova, J.-D. Chai, C.-L. Cheng, 
 C. Cramer, D. Crittenden, A. Ghysels, G. Hawkins, E. G. Hohenstein, 
 C. Kelley, W. Kurlancheek, D. Liotard, E. Livshits, P. Manohar, 
 A. Marenich, D. Neuhauser, R. Olson, M. A. Rohrdanz, K. S. Thanthiriwatte, 
 A. J. W. Thom, V. Vanovschi, C. F. Williams, Q. Wu and Z.-Q. You. 


 Intel X86 Linux Version

 Q-chem begins on Mon Jul  8 12:30:45 2013  

 Parallel job on  1  processors
Processing $rem in /usr/local/qchem/config/preferences.

theFileMan(): MAXOPENFILES=974 MAX_SUB_FILE_NUM=16
Maximum size of a physical file is 2.0 GB, maximum size of a tmp-file is 32.0 GB


--------------------------------------------------------------
User input:
--------------------------------------------------------------

$molecule
1,1
N          0.00399        0.00000        0.00166
O          0.00042        0.00000        1.19663
O          0.86345        0.00000       -0.82843
$end

$comment
positive
$end

$xc_functional
C PBE   1.00
X wPBE  1.00
$end

$rem
SYMMETRY_DECOMPOSITION	0
LRC_DFT                 true
exchange 		general
BASIS                   g3large
omega			200
mem_static              760
max_scf_cycles          200
scf_final_print         1
sym_ignore              true
$end

--------------------------------------------------------------
 Writing REM_CC_EA            3
 ----------------------------------------------------
       Standard Nuclear Orientation (Angstroms)
    I     Atom         X            Y            Z
 ----------------------------------------------------
    1      N       0.003990     0.000000     0.001660
    2      O       0.000420     0.000000     1.196630
    3      O       0.863450     0.000000    -0.828430
 ----------------------------------------------------
 Nuclear Repulsion Energy =    64.9848850742 hartrees
 There are       11 alpha and       11 beta electrons
 Requested basis set is G3large
 There are 30 shells and 126 basis functions

Total QAlloc Memory Limit   2000 MB
Mega-Array Size       743 MB
MEM_STATIC part       760 MB

                       Distance Matrix (Angstroms)
             N (  1)   O (  2)
   O (  2)  1.194975
   O (  3)  1.194873  2.201293
 
 A cutoff of  1.0D-08 yielded    433 shell pairs
 There are   7808 function pairs ( 10265 Cartesian)
Evaluating contribution to one-electron hamiltonian from nuclear
 Smallest overlap matrix eigenvalue = 1.55E-03
 Multipole matrices computed through 2nd order

  Scale SEOQF with 1.000000e-01/1.000000e-01/1.000000e-01

 Standard Electronic Orientation quadrupole field applied
 Nucleus-field energy     =    -0.0000000016 hartrees
 Guess from superposition of atomic densities
 Warning:  Energy on first SCF cycle will be non-variational
 Long-range K will be added via erf
 Coulomb attenuation parameter = 0.2 bohr**(-1)
 A restricted Kohn-Sham SCF calculation will be
 performed using Pulay DIIS extrapolation
 Exchange:  wPBE + LR-HF      Correlation:  PBE
 Using SG-1 standard quadrature grid
 SCF converges when DIIS error is below 1.0E-05
 Requested basis set is G3large
 There are 30 shells and 126 basis functions
 A cutoff of  1.0D-08 yielded    433 shell pairs
 There are   7808 function pairs ( 10265 Cartesian)
 Warning!  Inaccurate integrated density:
   Number of electrons =    22
   Numerical integral  =    23.000032766208
   Relative error      =     4.5456034828 %
 ---------------------------------------
  Cycle       Energy         DIIS Error
 ---------------------------------------
    1    -205.6314892666      4.61E-02
    2    -204.3148098637      1.24E-02
    3    -203.9018750093      2.31E-02
    4    -204.5647657277      1.95E-03
    5    -204.5673459206      1.21E-03
    6    -204.5667976256      1.34E-03
    7    -204.5692905825      7.10E-05
    8    -204.5693060347      2.02E-05
    9    -204.5693073619      7.31E-06 Convergence criterion met
 ---------------------------------------
 One-Electron    Energy =  -400.1503589894
 Total Coulomb   Energy =   153.9197909915
 Alpha Exchange  Energy =    -1.2039622993
 Beta  Exchange  Energy =    -1.2039622993
 DFT   Exchange  Energy =   -20.1709186335
 DFT Correlation Energy =    -0.7447812043
 Nuclear Repu.   Energy =    64.9848850726
 Nuclear Attr.   Energy =  -603.9914090114
 Kinetic         Energy =   203.8410500219
 SCF time:  CPU 22.78 s  wall 23.35 s
 Final Alpha MO Eigenvalues
            1           2           3           4           5           6
    1 -19.3765145 -19.3764290 -14.7406492  -1.6832254  -1.5438297  -1.0731200
            7           8           9          10          11          12
    1  -0.9903548  -0.9862609  -0.9792871  -0.7992050  -0.7865328  -0.4949391
           13          14          15          16
    1  -0.3917554  -0.1364313  -0.0765380  -0.0644704
 Analysis of SCF Wavefunction
 
 --------------------------------------------------------------
                    Orbital Energies (a.u.)
 --------------------------------------------------------------
 
 Alpha MOs
 -- Occupied --
-19.377 -19.376 -14.741  -1.683  -1.544  -1.073  -0.990  -0.986
 -0.979  -0.799  -0.787
 -- Virtual --
 -0.495  -0.392  -0.136  -0.077  -0.064  -0.064  -0.061   0.026
  0.032   0.043   0.067   0.077   0.112   0.119   0.138   0.202
  0.448   0.460   0.506   0.579   0.608   0.692   0.720   0.736
  0.757   0.758   0.800   0.814   0.824   1.081   1.145   1.203
  1.210   1.241   1.251   1.327   1.499   1.692   1.834   1.929
  2.070   2.084   2.225   3.069   3.087   3.189   3.231   3.248
  3.308   3.558   3.561   3.928   3.939   4.008   4.078   4.159
  4.210   4.274   4.496   4.508   4.520   4.578   4.595   4.625
  4.627   4.637   4.851   4.958   5.031   5.048   5.086   5.238
  5.670   5.974   6.257   6.264   6.280   6.308   6.419   6.528
  6.587   6.669   6.691   6.753   6.937   7.144   7.301   7.617
 35.266  36.706  36.880  37.748  39.748  39.839  39.914  40.042
 40.143  43.046  43.061  43.104  43.112  43.149  43.215  43.217
 43.246  43.336  43.394  45.056  45.071  45.082  45.210  45.703
 46.045  49.409  49.475
 --------------------------------------------------------------
 
          Ground-State Mulliken Net Atomic Charges

     Atom                 Charge (a.u.)
  ----------------------------------------
      1 N                     0.277083
      2 O                     0.361468
      3 O                     0.361449
  ----------------------------------------
  Sum of atomic charges =     1.000000

 -----------------------------------------------------------------
                    Cartesian Multipole Moments
 -----------------------------------------------------------------
    Charge (ESU x 10^10)
                 4.8032
    Dipole Moment (Debye)
         X       0.9954      Y       0.0000      Z       0.4240
       Tot       1.0819
    Quadrupole Moments (Debye-Ang)
        XX     -11.7315     XY       0.0000     YY     -12.9702
        XZ      -0.3914     YZ      -0.0001     ZZ     -10.9791
    Octapole Moments (Debye-Ang^2)
       XXX      -9.8972    XXY       0.0001    XYY      -3.8232
       YYY       0.0000    XXZ      -2.6116    XYZ      -0.0001
       YYZ      -1.6293    XZZ      -2.6557    YZZ      -0.0001
       ZZZ      -2.7385
    Hexadecapole Moments (Debye-Ang^3)
      XXXX     -25.8967   XXXY       0.0002   XXYY      -6.0632
      XYYY       0.0000   YYYY      -8.4938   XXXZ       8.5665
      XXYZ      -0.0001   XYYZ       3.3363   YYYZ      -0.0001
      XXZZ     -14.5888   XYZZ       0.0000   YYZZ     -12.4697
      XZZZ       9.9265   YZZZ      -0.0001   ZZZZ     -61.4074
 -----------------------------------------------------------------
 Total job time:  23.48s(wall), 22.91s(cpu) 
 Mon Jul  8 12:31:09 2013

        *************************************************************
        *                                                           *
        *  Thank you very much for using Q-Chem.  Have a nice day.  *
        *                                                           *
        *************************************************************


0 sent ACK to 0 
now end server 0 ... 
