Process 0 of 1 is on cl219.stfx.acenet.ca - thread support 1
initial socket setup ...start
initial socket setup ...done 
now start server 0 ... 

cmd = /usr/bin/ssh clhead /usr/local/qchem/bin/get_hostid 1817476649 > /scratch/tmp/6022065.1.medium.q/qchem9903/lic.dat
                  Welcome to Q-Chem
     A Quantum Leap Into The Future Of Chemistry

 Y. Shao, L. Fusti-Molnar, Y. Jung, J. Kussmann, C. Ochsenfeld,
 S. T. Brown, A. T. B. Gilbert, L. V. Slipchenko,S. V. Levchenko,
 D. P. O'Neill, R. A. DiStasio Jr., R. C. Lochan, T. Wang,
 G. J. O. Beran, N. A. Besley, J. M. Herbert, C. Y. Lin,
 T. Van Voorhis, S. H. Chien, A. Sodt, R. P. Steele, 
 V. A. Rassolov, P. E. Maslen, P. P. Korambath, R. D. Adamson,
 B. Austin, J. Baker, E. F. C. Byrd, H. Dachsel, R. J. Doerksen,
 A. Dreuw, B. D. Dunietz, A. D. Dutoi, T. R. Furlani,
 S. R. Gwaltney, A. Heyden, S. Hirata, C.-P. Hsu, G. Kedziora,
 R. Z. Khaliullin, P. Klunzinger, A. M. Lee, M. S. Lee, W. Liang,
 I. Lotan, N. Nair, B. Peters, E. I. Proynov, P. A. Pieniazek, 
 Y. M. Rhee, J. Ritchie, E. Rosta, C. D. Sherrill, 
 A. C. Simmonett, J. E. Subotnik, H. L. Woodcock III,
 W. Zhang, A. T. Bell, A. K. Chakraborty, D. M. Chipman,
 F. J. Keil, A. Warshel, W. J. Hehre, H. F. Schaefer III,
 J. Kong, A. I. Krylov, P. M. W. Gill, M. Head-Gordon,
 Q-Chem, Version 3.1, Q-Chem, Inc., Pittsburgh, PA (2007).

 Additional authors for Version 3.1: 
 Z. Gan, Y. Zhao, N. E. Schultz, D. Truhlar, E. Epifanovsky and M. Oana.

 Additional authors for Version 3.2: 
 R. Baer, B. R. Brooks, D. Casanova, J.-D. Chai, C.-L. Cheng, 
 C. Cramer, D. Crittenden, A. Ghysels, G. Hawkins, E. G. Hohenstein, 
 C. Kelley, W. Kurlancheek, D. Liotard, E. Livshits, P. Manohar, 
 A. Marenich, D. Neuhauser, R. Olson, M. A. Rohrdanz, K. S. Thanthiriwatte, 
 A. J. W. Thom, V. Vanovschi, C. F. Williams, Q. Wu and Z.-Q. You. 


 Intel X86 Linux Version

 Q-chem begins on Wed May 29 17:03:06 2013  

 Parallel job on  1  processors
Processing $rem in /usr/local/qchem/config/preferences.

theFileMan(): MAXOPENFILES=974 MAX_SUB_FILE_NUM=16
Maximum size of a physical file is 2.0 GB, maximum size of a tmp-file is 32.0 GB


--------------------------------------------------------------
User input:
--------------------------------------------------------------

$molecule
-1,2
Na         0.00000        0.00000        0.01238
Cl         0.00000        0.00000        2.36338
$end

$comment
negative
$end

$xc_functional
C PBE   1.00
X wPBE  1.00
$end

$rem
SYMMETRY_DECOMPOSITION	0
exchange 		general
LRC_DFT                 true
BASIS                   g3large
omega			370
mem_static              760
max_scf_cycles          200
scf_final_print         1
sym_ignore              true
$end

--------------------------------------------------------------
 Writing REM_CC_EA            2
 ----------------------------------------------------
       Standard Nuclear Orientation (Angstroms)
    I     Atom         X            Y            Z
 ----------------------------------------------------
    1      Na      0.000000     0.000000     0.012380
    2      Cl      0.000000     0.000000     2.363380
 ----------------------------------------------------
 Nuclear Repulsion Energy =    42.0910839726 hartrees
 There are       15 alpha and       14 beta electrons
 Requested basis set is G3large
 There are 38 shells and 132 basis functions

Total QAlloc Memory Limit   2000 MB
Mega-Array Size       743 MB
MEM_STATIC part       760 MB

                       Distance Matrix (Angstroms)
             Na(  1)
   Cl(  2)  2.351000
 
 A cutoff of  1.0D-08 yielded    685 shell pairs
 There are   8526 function pairs ( 12269 Cartesian)
Evaluating contribution to one-electron hamiltonian from nuclear
 Smallest overlap matrix eigenvalue = 5.57E-04
 Multipole matrices computed through 2nd order

  Scale SEOQF with 1.000000e-01/1.000000e-01/1.000000e-01

 Standard Electronic Orientation quadrupole field applied
 Nucleus-field energy     =    -0.0000000102 hartrees
 Guess from superposition of atomic densities
 Warning:  Energy on first SCF cycle will be non-variational
 Long-range K will be added via erf
 Coulomb attenuation parameter = 0.37 bohr**(-1)
 An unrestricted Kohn-Sham SCF calculation will be
 performed using Pulay DIIS extrapolation
 Exchange:  wPBE + LR-HF      Correlation:  PBE
 Using SG-1 standard quadrature grid
 SCF converges when DIIS error is below 1.0E-05
 Requested basis set is G3large
 There are 38 shells and 132 basis functions
 A cutoff of  1.0D-08 yielded    685 shell pairs
 There are   8526 function pairs ( 12269 Cartesian)
 Warning!  Inaccurate integrated density:
   Number of electrons =    29
   Numerical integral  =    27.999836131979
   Relative error      =    -3.4488409242 %
 ---------------------------------------
  Cycle       Energy         DIIS Error
 ---------------------------------------
    1    -622.1202030054      1.41E-02
    2    -622.3117341741      4.06E-03
    3    -622.3590946963      2.88E-03
    4    -622.3714816436      3.81E-04
    5    -622.3733634247      1.29E-04
    6    -622.3744538865      7.22E-05
    7    -622.3748942059      3.90E-05
    8    -622.3750062603      1.77E-05
    9    -622.3750338535      6.75E-06 Convergence criterion met
 ---------------------------------------
 One-Electron    Energy =  -953.5713860916
 Total Coulomb   Energy =   331.7782276055
 Alpha Exchange  Energy =    -2.8207600650
 Beta  Exchange  Energy =    -2.7373424528
 DFT   Exchange  Energy =   -36.0562979323
 DFT Correlation Energy =    -1.0585588798
 Nuclear Repu.   Energy =    42.0910839624
 Nuclear Attr.   Energy = -1575.0070414574
 Kinetic         Energy =   621.4356553658
 <S^2> = 0.7501
 SCF time:  CPU 40.95 s  wall 42.92 s
 Final Alpha MO Eigenvalues
            1           2           3           4           5           6
    1-100.6089536 -37.9616312  -9.1320161  -6.9449487  -6.9444573  -6.9444572
            7           8           9          10          11          12
    1  -2.1188205  -1.0870729  -1.0870724  -1.0855608  -0.6907861  -0.2299970
           13          14          15          16          17          18
    1  -0.2161383  -0.2161377  -0.0317430   0.0815084   0.0815105   0.0866137
           19          20
    1   0.0970872   0.1360110
 Final Beta MO Eigenvalues
            1           2           3           4           5           6
    1-100.6088792 -37.9611953  -9.1319453  -6.9447552  -6.9444168  -6.9444165
            7           8           9          10          11          12
    1  -2.1179334  -1.0862775  -1.0862774  -1.0842148  -0.6902827  -0.2283001
           13          14          15          16          17          18
    1  -0.2160502  -0.2160495   0.0836807   0.0836874   0.0875712   0.0917932
           19
    1   0.1455025
 Analysis of SCF Wavefunction
 
 --------------------------------------------------------------
                    Orbital Energies (a.u.)
 --------------------------------------------------------------
 
 Alpha MOs
 -- Occupied --
******* -37.962  -9.132  -6.945  -6.944  -6.944  -2.119  -1.087
 -1.087  -1.086  -0.691  -0.230  -0.216  -0.216  -0.032
 -- Virtual --
  0.082   0.082   0.087   0.097   0.136   0.136   0.157   0.217
  0.235   0.235   0.240   0.240   0.241   0.277   0.277   0.280
  0.300   0.300   0.351   0.412   0.422   0.422   0.425   0.425
  0.491   0.491   0.510   0.581   0.581   0.615   0.619   0.619
  0.670   0.670   0.683   0.684   0.684   0.760   0.760   0.850
  0.911   0.911   0.963   1.312   1.312   1.358   1.358   1.372
  1.388   1.390   1.390   1.450   1.450   1.453   1.454   1.540
  1.540   1.600   1.600   1.685   1.738   1.916   1.916   1.998
  2.006   2.075   2.075   2.075   2.506   2.506   2.619   2.686
  4.661   4.661   4.683   4.683   4.707   4.707   4.778   4.864
  4.864   5.144   5.366   5.368   5.433   5.433   5.542   8.903
  8.970   9.325   9.352   9.352   9.909  13.773  13.773  13.790
 13.872  13.877  13.879  13.879  20.813  20.813  20.949  27.336
 27.394  27.418  27.446  27.446  37.053  37.053  37.059  37.060
 37.065  37.070  37.070  96.306 215.750
 
 Beta MOs
 -- Occupied --
******* -37.961  -9.132  -6.945  -6.944  -6.944  -2.118  -1.086
 -1.086  -1.084  -0.690  -0.228  -0.216  -0.216
 -- Virtual --
  0.084   0.084   0.088   0.092   0.146   0.154   0.155   0.173
  0.244   0.245   0.246   0.246   0.247   0.267   0.285   0.286
  0.294   0.308   0.315   0.365   0.417   0.423   0.423   0.424
  0.425   0.493   0.500   0.510   0.581   0.582   0.617   0.617
  0.618   0.670   0.671   0.683   0.683   0.687   0.760   0.760
  0.852   0.912   0.914   0.963   1.311   1.311   1.357   1.357
  1.372   1.388   1.388   1.388   1.449   1.449   1.454   1.454
  1.540   1.540   1.599   1.599   1.684   1.738   1.915   1.915
  1.999   2.007   2.076   2.076   2.077   2.506   2.506   2.620
  2.686   4.661   4.661   4.683   4.683   4.707   4.708   4.779
  4.864   4.864   5.145   5.366   5.368   5.433   5.433   5.542
  8.904   8.972   9.326   9.353   9.353   9.909  13.774  13.774
 13.791  13.872  13.878  13.879  13.879  20.813  20.813  20.949
 27.336  27.394  27.418  27.446  27.446  37.053  37.053  37.059
 37.060  37.065  37.070  37.070  96.307 215.750
 --------------------------------------------------------------
 
          Ground-State Mulliken Net Atomic Charges

     Atom                 Charge (a.u.)    Spin (a.u.)
  --------------------------------------------------------
      1 Na                   -0.244999       1.043363
      2 Cl                   -0.755001      -0.043363
  --------------------------------------------------------
  Sum of atomic charges =    -1.000000
  Sum of spin   charges =     1.000000

 -----------------------------------------------------------------
                    Cartesian Multipole Moments
 -----------------------------------------------------------------
    Charge (ESU x 10^10)
                -4.8032
    Dipole Moment (Debye)
         X       0.0003      Y      -0.0012      Z      -1.4019
       Tot       1.4019
    Quadrupole Moments (Debye-Ang)
        XX     -36.5706     XY      -0.0002     YY     -36.5707
        XZ      -0.0004     YZ       0.0018     ZZ     -67.2314
    Octapole Moments (Debye-Ang^2)
       XXX       0.0045    XXY      -0.0064    XYY       0.0015
       YYY      -0.0193    XXZ      -6.9854    XYZ       0.0003
       YYZ      -6.9853    XZZ       0.0014    YZZ      -0.0066
       ZZZ     -62.8112
    Hexadecapole Moments (Debye-Ang^3)
      XXXX    -269.2270   XXXY      -0.0017   XXYY     -89.7418
      XYYY      -0.0017   YYYY    -269.2277   XXXZ      -0.0052
      XXYZ       0.0077   XYYZ      -0.0017   YYYZ       0.0230
      XXZZ    -210.3841   XYZZ      -0.0005   YYZZ    -210.3843
      XZZZ      -0.0052   YZZZ       0.0232   ZZZZ   -1090.3516
 -----------------------------------------------------------------
 Total job time:  43.09s(wall), 41.11s(cpu) 
 Wed May 29 17:03:49 2013

        *************************************************************
        *                                                           *
        *  Thank you very much for using Q-Chem.  Have a nice day.  *
        *                                                           *
        *************************************************************


0 sent ACK to 0 
now end server 0 ... 
 
**********************************************************************
Job 2 of 3 
**********************************************************************
 
Process 0 of 1 is on cl219.stfx.acenet.ca - thread support 1
initial socket setup ...start
initial socket setup ...done 
now start server 0 ... 

cmd = /usr/bin/ssh clhead /usr/local/qchem/bin/get_hostid 418410305 > /scratch/tmp/6022065.1.medium.q/qchem9903/lic.dat
                  Welcome to Q-Chem
     A Quantum Leap Into The Future Of Chemistry

 Y. Shao, L. Fusti-Molnar, Y. Jung, J. Kussmann, C. Ochsenfeld,
 S. T. Brown, A. T. B. Gilbert, L. V. Slipchenko,S. V. Levchenko,
 D. P. O'Neill, R. A. DiStasio Jr., R. C. Lochan, T. Wang,
 G. J. O. Beran, N. A. Besley, J. M. Herbert, C. Y. Lin,
 T. Van Voorhis, S. H. Chien, A. Sodt, R. P. Steele, 
 V. A. Rassolov, P. E. Maslen, P. P. Korambath, R. D. Adamson,
 B. Austin, J. Baker, E. F. C. Byrd, H. Dachsel, R. J. Doerksen,
 A. Dreuw, B. D. Dunietz, A. D. Dutoi, T. R. Furlani,
 S. R. Gwaltney, A. Heyden, S. Hirata, C.-P. Hsu, G. Kedziora,
 R. Z. Khaliullin, P. Klunzinger, A. M. Lee, M. S. Lee, W. Liang,
 I. Lotan, N. Nair, B. Peters, E. I. Proynov, P. A. Pieniazek, 
 Y. M. Rhee, J. Ritchie, E. Rosta, C. D. Sherrill, 
 A. C. Simmonett, J. E. Subotnik, H. L. Woodcock III,
 W. Zhang, A. T. Bell, A. K. Chakraborty, D. M. Chipman,
 F. J. Keil, A. Warshel, W. J. Hehre, H. F. Schaefer III,
 J. Kong, A. I. Krylov, P. M. W. Gill, M. Head-Gordon,
 Q-Chem, Version 3.1, Q-Chem, Inc., Pittsburgh, PA (2007).

 Additional authors for Version 3.1: 
 Z. Gan, Y. Zhao, N. E. Schultz, D. Truhlar, E. Epifanovsky and M. Oana.

 Additional authors for Version 3.2: 
 R. Baer, B. R. Brooks, D. Casanova, J.-D. Chai, C.-L. Cheng, 
 C. Cramer, D. Crittenden, A. Ghysels, G. Hawkins, E. G. Hohenstein, 
 C. Kelley, W. Kurlancheek, D. Liotard, E. Livshits, P. Manohar, 
 A. Marenich, D. Neuhauser, R. Olson, M. A. Rohrdanz, K. S. Thanthiriwatte, 
 A. J. W. Thom, V. Vanovschi, C. F. Williams, Q. Wu and Z.-Q. You. 


 Intel X86 Linux Version

 Q-chem begins on Wed May 29 17:03:52 2013  

 Parallel job on  1  processors
Processing $rem in /usr/local/qchem/config/preferences.

theFileMan(): MAXOPENFILES=974 MAX_SUB_FILE_NUM=16
Maximum size of a physical file is 2.0 GB, maximum size of a tmp-file is 32.0 GB


--------------------------------------------------------------
User input:
--------------------------------------------------------------

$molecule
0,1
Na         0.00000        0.00000        0.01238
Cl         0.00000        0.00000        2.36338
$end

$comment
neutral
$end

$xc_functional
C PBE   1.00
X wPBE  1.00
$end


$rem
SYMMETRY_DECOMPOSITION	0
LRC_DFT                 true
exchange 		general
BASIS                   g3large
omega			370
mem_static              760
max_scf_cycles          200
scf_final_print         1
sym_ignore              true
$end

--------------------------------------------------------------
 Writing REM_CC_EA            2
 ----------------------------------------------------
       Standard Nuclear Orientation (Angstroms)
    I     Atom         X            Y            Z
 ----------------------------------------------------
    1      Na      0.000000     0.000000     0.012380
    2      Cl      0.000000     0.000000     2.363380
 ----------------------------------------------------
 Nuclear Repulsion Energy =    42.0910839726 hartrees
 There are       14 alpha and       14 beta electrons
 Requested basis set is G3large
 There are 38 shells and 132 basis functions

Total QAlloc Memory Limit   2000 MB
Mega-Array Size       743 MB
MEM_STATIC part       760 MB

                       Distance Matrix (Angstroms)
             Na(  1)
   Cl(  2)  2.351000
 
 A cutoff of  1.0D-08 yielded    685 shell pairs
 There are   8526 function pairs ( 12269 Cartesian)
Evaluating contribution to one-electron hamiltonian from nuclear
 Smallest overlap matrix eigenvalue = 5.57E-04
 Multipole matrices computed through 2nd order

  Scale SEOQF with 1.000000e-01/1.000000e-01/1.000000e-01

 Standard Electronic Orientation quadrupole field applied
 Nucleus-field energy     =    -0.0000000102 hartrees
 Guess from superposition of atomic densities
 Warning:  Energy on first SCF cycle will be non-variational
 Long-range K will be added via erf
 Coulomb attenuation parameter = 0.37 bohr**(-1)
 A restricted Kohn-Sham SCF calculation will be
 performed using Pulay DIIS extrapolation
 Exchange:  wPBE + LR-HF      Correlation:  PBE
 Using SG-1 standard quadrature grid
 SCF converges when DIIS error is below 1.0E-05
 Requested basis set is G3large
 There are 38 shells and 132 basis functions
 A cutoff of  1.0D-08 yielded    685 shell pairs
 There are   8526 function pairs ( 12269 Cartesian)
 ---------------------------------------
  Cycle       Energy         DIIS Error
 ---------------------------------------
    1    -622.1202030054      1.41E-02
    2    -622.3039312090      3.95E-03
    3    -622.3381501690      2.70E-03
    4    -622.3470674141      2.84E-04
    5    -622.3472111457      4.35E-05
    6    -622.3472194159      2.02E-05
    7    -622.3472189869      5.17E-06 Convergence criterion met
 ---------------------------------------
 One-Electron    Energy =  -949.4369668369
 Total Coulomb   Energy =   327.5667368288
 Alpha Exchange  Energy =    -2.7373622553
 Beta  Exchange  Energy =    -2.7373622553
 DFT   Exchange  Energy =   -36.0413719966
 DFT Correlation Energy =    -1.0519764341
 Nuclear Repu.   Energy =    42.0910839624
 Nuclear Attr.   Energy = -1570.7892816989
 Kinetic         Energy =   621.3523148620
 SCF time:  CPU 26.95 s  wall 27.26 s
 Final Alpha MO Eigenvalues
            1           2           3           4           5           6
    1-100.7333433 -38.1510773  -9.2560750  -7.0694008  -7.0683528  -7.0683511
            7           8           9          10          11          12
    1  -2.3069550  -1.2748178  -1.2748170  -1.2730748  -0.8137518  -0.3533473
           13          14          15          16          17          18
    1  -0.3378366  -0.3378283  -0.0213327   0.0124984   0.0124988   0.0139510
           19
    1   0.0268538
 Analysis of SCF Wavefunction
 
 --------------------------------------------------------------
                    Orbital Energies (a.u.)
 --------------------------------------------------------------
 
 Alpha MOs
 -- Occupied --
******* -38.151  -9.256  -7.069  -7.068  -7.068  -2.307  -1.275
 -1.275  -1.273  -0.814  -0.353  -0.338  -0.338
 -- Virtual --
 -0.021   0.012   0.012   0.014   0.027   0.040   0.040   0.058
  0.102   0.116   0.116   0.119   0.119   0.124   0.154   0.154
  0.185   0.204   0.204   0.228   0.284   0.289   0.289   0.296
  0.296   0.352   0.352   0.367   0.445   0.445   0.462   0.479
  0.479   0.495   0.495   0.540   0.540   0.542   0.639   0.639
  0.713   0.773   0.773   0.830   1.156   1.156   1.212   1.212
  1.218   1.218   1.228   1.261   1.329   1.329   1.331   1.332
  1.408   1.408   1.461   1.461   1.537   1.599   1.774   1.774
  1.819   1.827   1.893   1.893   1.894   2.385   2.385   2.446
  2.558   4.490   4.490   4.561   4.561   4.584   4.584   4.654
  4.726   4.726   4.968   5.243   5.245   5.309   5.309   5.411
  8.716   8.783   9.137   9.164   9.164   9.785  13.585  13.585
 13.602  13.684  13.689  13.690  13.690  20.689  20.689  20.824
 27.213  27.270  27.294  27.322  27.322  36.929  36.929  36.935
 36.936  36.940  36.946  36.946  96.117 215.625
 --------------------------------------------------------------
 
          Ground-State Mulliken Net Atomic Charges

     Atom                 Charge (a.u.)
  ----------------------------------------
      1 Na                    0.674818
      2 Cl                   -0.674818
  ----------------------------------------
  Sum of atomic charges =     0.000000

 -----------------------------------------------------------------
                    Cartesian Multipole Moments
 -----------------------------------------------------------------
    Charge (ESU x 10^10)
                 0.0000
    Dipole Moment (Debye)
         X       0.0002      Y      -0.0005      Z      -8.9254
       Tot       8.9254
    Quadrupole Moments (Debye-Ang)
        XX     -19.3346     XY       0.0004     YY     -19.3347
        XZ       0.0003     YZ      -0.0006     ZZ     -36.6906
    Octapole Moments (Debye-Ang^2)
       XXX       0.0008    XXY      -0.0006    XYY       0.0003
       YYY      -0.0018    XXZ     -36.8991    XYZ       0.0004
       YYZ     -36.8991    XZZ       0.0006    YZZ      -0.0014
       ZZZ    -143.9081
    Hexadecapole Moments (Debye-Ang^3)
      XXXX     -25.6064   XXXY       0.0012   XXYY      -8.5349
      XYYY       0.0012   YYYY     -25.6067   XXXZ       0.0009
      XXYZ      -0.0007   XYYZ       0.0003   YYYZ      -0.0020
      XXZZ     -92.5818   XYZZ       0.0007   YYZZ     -92.5819
      XZZZ       0.0017   YZZZ      -0.0037   ZZZZ    -593.8347
 -----------------------------------------------------------------
 Total job time:  27.42s(wall), 27.10s(cpu) 
 Wed May 29 17:04:20 2013

        *************************************************************
        *                                                           *
        *  Thank you very much for using Q-Chem.  Have a nice day.  *
        *                                                           *
        *************************************************************


0 sent ACK to 0 
now end server 0 ... 
 
**********************************************************************
Job 3 of 3 
**********************************************************************
 
Process 0 of 1 is on cl219.stfx.acenet.ca - thread support 1
initial socket setup ...start
initial socket setup ...done 
now start server 0 ... 

cmd = /usr/bin/ssh clhead /usr/local/qchem/bin/get_hostid 960618035 > /scratch/tmp/6022065.1.medium.q/qchem9903/lic.dat
                  Welcome to Q-Chem
     A Quantum Leap Into The Future Of Chemistry

 Y. Shao, L. Fusti-Molnar, Y. Jung, J. Kussmann, C. Ochsenfeld,
 S. T. Brown, A. T. B. Gilbert, L. V. Slipchenko,S. V. Levchenko,
 D. P. O'Neill, R. A. DiStasio Jr., R. C. Lochan, T. Wang,
 G. J. O. Beran, N. A. Besley, J. M. Herbert, C. Y. Lin,
 T. Van Voorhis, S. H. Chien, A. Sodt, R. P. Steele, 
 V. A. Rassolov, P. E. Maslen, P. P. Korambath, R. D. Adamson,
 B. Austin, J. Baker, E. F. C. Byrd, H. Dachsel, R. J. Doerksen,
 A. Dreuw, B. D. Dunietz, A. D. Dutoi, T. R. Furlani,
 S. R. Gwaltney, A. Heyden, S. Hirata, C.-P. Hsu, G. Kedziora,
 R. Z. Khaliullin, P. Klunzinger, A. M. Lee, M. S. Lee, W. Liang,
 I. Lotan, N. Nair, B. Peters, E. I. Proynov, P. A. Pieniazek, 
 Y. M. Rhee, J. Ritchie, E. Rosta, C. D. Sherrill, 
 A. C. Simmonett, J. E. Subotnik, H. L. Woodcock III,
 W. Zhang, A. T. Bell, A. K. Chakraborty, D. M. Chipman,
 F. J. Keil, A. Warshel, W. J. Hehre, H. F. Schaefer III,
 J. Kong, A. I. Krylov, P. M. W. Gill, M. Head-Gordon,
 Q-Chem, Version 3.1, Q-Chem, Inc., Pittsburgh, PA (2007).

 Additional authors for Version 3.1: 
 Z. Gan, Y. Zhao, N. E. Schultz, D. Truhlar, E. Epifanovsky and M. Oana.

 Additional authors for Version 3.2: 
 R. Baer, B. R. Brooks, D. Casanova, J.-D. Chai, C.-L. Cheng, 
 C. Cramer, D. Crittenden, A. Ghysels, G. Hawkins, E. G. Hohenstein, 
 C. Kelley, W. Kurlancheek, D. Liotard, E. Livshits, P. Manohar, 
 A. Marenich, D. Neuhauser, R. Olson, M. A. Rohrdanz, K. S. Thanthiriwatte, 
 A. J. W. Thom, V. Vanovschi, C. F. Williams, Q. Wu and Z.-Q. You. 


 Intel X86 Linux Version

 Q-chem begins on Wed May 29 17:04:22 2013  

 Parallel job on  1  processors
Processing $rem in /usr/local/qchem/config/preferences.

theFileMan(): MAXOPENFILES=974 MAX_SUB_FILE_NUM=16
Maximum size of a physical file is 2.0 GB, maximum size of a tmp-file is 32.0 GB


--------------------------------------------------------------
User input:
--------------------------------------------------------------

$molecule
1,2
Na         0.00000        0.00000        0.01238
Cl         0.00000        0.00000        2.36338
$end

$comment
positive
$end

$xc_functional
C PBE   1.00
X wPBE  1.00
$end

$rem
SYMMETRY_DECOMPOSITION	0
LRC_DFT                 true
exchange 		general
BASIS                   g3large
omega			370
mem_static              760
max_scf_cycles          200
scf_final_print         1
sym_ignore              true
$end

--------------------------------------------------------------
 Writing REM_CC_EA            2
 ----------------------------------------------------
       Standard Nuclear Orientation (Angstroms)
    I     Atom         X            Y            Z
 ----------------------------------------------------
    1      Na      0.000000     0.000000     0.012380
    2      Cl      0.000000     0.000000     2.363380
 ----------------------------------------------------
 Nuclear Repulsion Energy =    42.0910839726 hartrees
 There are       14 alpha and       13 beta electrons
 Requested basis set is G3large
 There are 38 shells and 132 basis functions

Total QAlloc Memory Limit   2000 MB
Mega-Array Size       743 MB
MEM_STATIC part       760 MB

                       Distance Matrix (Angstroms)
             Na(  1)
   Cl(  2)  2.351000
 
 A cutoff of  1.0D-08 yielded    685 shell pairs
 There are   8526 function pairs ( 12269 Cartesian)
Evaluating contribution to one-electron hamiltonian from nuclear
 Smallest overlap matrix eigenvalue = 5.57E-04
 Multipole matrices computed through 2nd order

  Scale SEOQF with 1.000000e-01/1.000000e-01/1.000000e-01

 Standard Electronic Orientation quadrupole field applied
 Nucleus-field energy     =    -0.0000000102 hartrees
 Guess from superposition of atomic densities
 Warning:  Energy on first SCF cycle will be non-variational
 Long-range K will be added via erf
 Coulomb attenuation parameter = 0.37 bohr**(-1)
 An unrestricted Kohn-Sham SCF calculation will be
 performed using Pulay DIIS extrapolation
 Exchange:  wPBE + LR-HF      Correlation:  PBE
 Using SG-1 standard quadrature grid
 SCF converges when DIIS error is below 1.0E-05
 Requested basis set is G3large
 There are 38 shells and 132 basis functions
 A cutoff of  1.0D-08 yielded    685 shell pairs
 There are   8526 function pairs ( 12269 Cartesian)
 Warning!  Inaccurate integrated density:
   Number of electrons =    27
   Numerical integral  =    27.999836131979
   Relative error      =     3.7030967851 %
 ---------------------------------------
  Cycle       Energy         DIIS Error
 ---------------------------------------
    1    -622.1202030054      1.41E-02
    2    -621.9945168659      1.34E-03
    3    -622.0033417961      6.91E-04
    4    -622.0041530995      1.44E-04
    5    -622.0043709566      5.98E-05
    6    -622.0044825074      5.00E-05
    7    -622.0045700948      4.57E-05
    8    -622.0048004811      4.06E-05
    9    -622.0054673268      4.19E-05
   10    -622.0054651802      3.60E-05
   11    -622.0056219103      3.71E-05
   12    -622.0056280260      1.64E-05
   13    -622.0056309327      5.87E-06 Convergence criterion met
 ---------------------------------------
 One-Electron    Energy =  -940.5567875270
 Total Coulomb   Energy =   318.7552221064
 Alpha Exchange  Energy =    -2.7576125888
 Beta  Exchange  Energy =    -2.5736233006
 DFT   Exchange  Energy =   -35.9501075684
 DFT Correlation Energy =    -1.0138060168
 Nuclear Repu.   Energy =    42.0910839624
 Nuclear Attr.   Energy = -1561.7288602373
 Kinetic         Energy =   621.1720727103
 <S^2> = 0.7541
 SCF time:  CPU 57.63 s  wall 58.26 s
 Final Alpha MO Eigenvalues
            1           2           3           4           5           6
    1-101.1282576 -38.3740629  -9.6478267  -7.4769846  -7.4549387  -7.4539419
            7           8           9          10          11          12
    1  -2.5291023  -1.4976489  -1.4964360  -1.4959165  -1.1969577  -0.7441189
           13          14          15          16          17          18
    1  -0.6996663  -0.6846851  -0.1637535  -0.1029472  -0.0997615  -0.0884418
           19
    1  -0.0661239
 Final Beta MO Eigenvalues
            1           2           3           4           5           6
    1-101.1223502 -38.3740754  -9.6424489  -7.4610974  -7.4519520  -7.4499523
            7           8           9          10          11          12
    1  -2.5291175  -1.4976159  -1.4963515  -1.4959294  -1.1386482  -0.6847470
           13          14          15          16          17          18
    1  -0.6693364  -0.3459913  -0.1629729  -0.0999026  -0.0995632  -0.0869458
 Analysis of SCF Wavefunction
 
 --------------------------------------------------------------
                    Orbital Energies (a.u.)
 --------------------------------------------------------------
 
 Alpha MOs
 -- Occupied --
******* -38.374  -9.648  -7.477  -7.455  -7.454  -2.529  -1.498
 -1.496  -1.496  -1.197  -0.744  -0.700  -0.685
 -- Virtual --
 -0.164  -0.103  -0.100  -0.088  -0.066  -0.051  -0.049  -0.045
 -0.027  -0.027  -0.014  -0.013  -0.009  -0.007  -0.006  -0.002
  0.018   0.029   0.035   0.052   0.093   0.095   0.107   0.142
  0.142   0.157   0.173   0.211   0.220   0.222   0.225   0.227
  0.236   0.319   0.319   0.321   0.323   0.331   0.363   0.384
  0.469   0.509   0.527   0.577   0.903   0.905   0.934   0.945
  0.953   0.954   0.978   0.988   0.990   0.991   1.029   1.029
  1.079   1.105   1.179   1.180   1.259   1.332   1.481   1.501
  1.607   1.614   1.680   1.681   1.683   2.005   2.049   2.205
  2.231   4.149   4.150   4.185   4.193   4.205   4.228   4.289
  4.392   4.413   4.724   4.849   4.851   4.917   4.947   5.058
  8.495   8.560   8.916   8.942   8.942   9.403  13.363  13.363
 13.379  13.461  13.466  13.468  13.468  20.280  20.306  20.441
 26.813  26.877  26.900  26.922  26.940  36.532  36.533  36.540
 36.544  36.551  36.560  36.567  95.894 215.232
 
 Beta MOs
 -- Occupied --
******* -38.374  -9.642  -7.461  -7.452  -7.450  -2.529  -1.498
 -1.496  -1.496  -1.139  -0.685  -0.669
 -- Virtual --
 -0.346  -0.163  -0.100  -0.100  -0.087  -0.066  -0.050  -0.049
 -0.045  -0.025  -0.025  -0.012  -0.010  -0.009  -0.006  -0.002
 -0.002   0.020   0.034   0.035   0.055   0.108   0.110   0.112
  0.142   0.142   0.175   0.179   0.216   0.226   0.226   0.236
  0.252   0.256   0.321   0.322   0.323   0.323   0.334   0.388
  0.390   0.473   0.529   0.530   0.588   0.917   0.918   0.954
  0.955   0.963   0.973   1.012   1.013   1.013   1.017   1.042
  1.043   1.107   1.108   1.193   1.195   1.264   1.346   1.503
  1.504   1.607   1.614   1.681   1.682   1.683   2.060   2.063
  2.208   2.240   4.213   4.213   4.229   4.231   4.232   4.234
  4.306   4.415   4.417   4.727   4.867   4.873   4.936   4.948
  5.063   8.495   8.560   8.916   8.942   8.942   9.415  13.363
 13.363  13.379  13.461  13.466  13.468  13.468  20.306  20.313
 20.445  26.827  26.887  26.908  26.935  26.942  36.538  36.539
 36.546  36.548  36.556  36.561  36.567  95.894 215.238
 --------------------------------------------------------------
 
          Ground-State Mulliken Net Atomic Charges

     Atom                 Charge (a.u.)    Spin (a.u.)
  --------------------------------------------------------
      1 Na                    0.867821       0.000262
      2 Cl                    0.132179       0.999738
  --------------------------------------------------------
  Sum of atomic charges =     1.000000
  Sum of spin   charges =     1.000000

 -----------------------------------------------------------------
                    Cartesian Multipole Moments
 -----------------------------------------------------------------
    Charge (ESU x 10^10)
                 4.8032
    Dipole Moment (Debye)
         X       0.0000      Y       0.0000      Z       1.4697
       Tot       1.4697
    Quadrupole Moments (Debye-Ang)
        XX     -14.7517     XY      -0.9809     YY     -14.5730
        XZ      -0.0005     YZ       0.0005     ZZ      -9.6731
    Octapole Moments (Debye-Ang^2)
       XXX       0.0000    XXY       0.0000    XYY       0.0000
       YYY       0.0000    XXZ     -27.2133    XYZ      -2.2471
       YYZ     -26.8037    XZZ      -0.0022    YZZ       0.0024
       ZZZ     -68.2873
    Hexadecapole Moments (Debye-Ang^3)
      XXXX     -13.4701   XXXY      -0.9611   XXYY      -4.4303
      XYYY      -0.9613   YYYY     -13.1198   XXXZ      -0.0004
      XXYZ       0.0001   XYYZ      -0.0001   YYYZ       0.0004
      XXZZ     -67.6583   XYZZ      -5.4863   YYZZ     -66.6584
      XZZZ      -0.0079   YZZZ       0.0086   ZZZZ    -364.1776
 -----------------------------------------------------------------
 Total job time:  58.42s(wall), 57.77s(cpu) 
 Wed May 29 17:05:21 2013

        *************************************************************
        *                                                           *
        *  Thank you very much for using Q-Chem.  Have a nice day.  *
        *                                                           *
        *************************************************************


0 sent ACK to 0 
now end server 0 ... 
