Process 0 of 1 is on cl011.stfx.acenet.ca - thread support 1
initial socket setup ...start
initial socket setup ...done 
now start server 0 ... 

cmd = /usr/bin/ssh clhead /usr/local/qchem/bin/get_hostid 383324847 > /scratch/tmp/5955457.1.short.q/qchem12239/lic.dat
                  Welcome to Q-Chem
     A Quantum Leap Into The Future Of Chemistry

 Y. Shao, L. Fusti-Molnar, Y. Jung, J. Kussmann, C. Ochsenfeld,
 S. T. Brown, A. T. B. Gilbert, L. V. Slipchenko,S. V. Levchenko,
 D. P. O'Neill, R. A. DiStasio Jr., R. C. Lochan, T. Wang,
 G. J. O. Beran, N. A. Besley, J. M. Herbert, C. Y. Lin,
 T. Van Voorhis, S. H. Chien, A. Sodt, R. P. Steele, 
 V. A. Rassolov, P. E. Maslen, P. P. Korambath, R. D. Adamson,
 B. Austin, J. Baker, E. F. C. Byrd, H. Dachsel, R. J. Doerksen,
 A. Dreuw, B. D. Dunietz, A. D. Dutoi, T. R. Furlani,
 S. R. Gwaltney, A. Heyden, S. Hirata, C.-P. Hsu, G. Kedziora,
 R. Z. Khaliullin, P. Klunzinger, A. M. Lee, M. S. Lee, W. Liang,
 I. Lotan, N. Nair, B. Peters, E. I. Proynov, P. A. Pieniazek, 
 Y. M. Rhee, J. Ritchie, E. Rosta, C. D. Sherrill, 
 A. C. Simmonett, J. E. Subotnik, H. L. Woodcock III,
 W. Zhang, A. T. Bell, A. K. Chakraborty, D. M. Chipman,
 F. J. Keil, A. Warshel, W. J. Hehre, H. F. Schaefer III,
 J. Kong, A. I. Krylov, P. M. W. Gill, M. Head-Gordon,
 Q-Chem, Version 3.1, Q-Chem, Inc., Pittsburgh, PA (2007).

 Additional authors for Version 3.1: 
 Z. Gan, Y. Zhao, N. E. Schultz, D. Truhlar, E. Epifanovsky and M. Oana.

 Additional authors for Version 3.2: 
 R. Baer, B. R. Brooks, D. Casanova, J.-D. Chai, C.-L. Cheng, 
 C. Cramer, D. Crittenden, A. Ghysels, G. Hawkins, E. G. Hohenstein, 
 C. Kelley, W. Kurlancheek, D. Liotard, E. Livshits, P. Manohar, 
 A. Marenich, D. Neuhauser, R. Olson, M. A. Rohrdanz, K. S. Thanthiriwatte, 
 A. J. W. Thom, V. Vanovschi, C. F. Williams, Q. Wu and Z.-Q. You. 


 Intel X86 Linux Version

 Q-chem begins on Tue Apr 30 20:52:35 2013  

 Parallel job on  1  processors
Processing $rem in /usr/local/qchem/config/preferences.

theFileMan(): MAXOPENFILES=974 MAX_SUB_FILE_NUM=16
Maximum size of a physical file is 2.0 GB, maximum size of a tmp-file is 32.0 GB


--------------------------------------------------------------
User input:
--------------------------------------------------------------

$molecule
-1,2
C
H,1,CH
H,1,CH,2,HCH

CH=1.11942218
HCH=100.2755497

$end

$comment
negative
$end

$xc_functional
C PBE   1.00
X wPBE  1.00
$end

$rem
SYMMETRY_DECOMPOSITION	0
exchange 		general
LRC_DFT                 true
BASIS                   g3large
omega			430
mem_static              760
max_scf_cycles          200
scf_final_print         1
sym_ignore              true
$end

--------------------------------------------------------------
 Writing REM_CC_EA            3
 ----------------------------------------------------
       Standard Nuclear Orientation (Angstroms)
    I     Atom         X            Y            Z
 ----------------------------------------------------
    1      C       0.000000     0.000000     0.000000
    2      H       0.000000     0.000000     1.119422
    3      H       1.101468     0.000000    -0.199685
 ----------------------------------------------------
 Nuclear Repulsion Energy =     5.9806103808 hartrees
 There are        5 alpha and        4 beta electrons
 Requested basis set is G3large
 There are 22 shells and 62 basis functions

Total QAlloc Memory Limit   2000 MB
Mega-Array Size       743 MB
MEM_STATIC part       760 MB

                       Distance Matrix (Angstroms)
             C (  1)   H (  2)
   H (  2)  1.119422
   H (  3)  1.119422  1.718510
 
 A cutoff of  1.0D-08 yielded    253 shell pairs
 There are   2043 function pairs (  2475 Cartesian)
Evaluating contribution to one-electron hamiltonian from nuclear
 Smallest overlap matrix eigenvalue = 3.40E-03
 Multipole matrices computed through 2nd order

  Scale SEOQF with 1.000000e-01/1.000000e-01/1.000000e-01

 Standard Electronic Orientation quadrupole field applied
 Guess from superposition of atomic densities
 Warning:  Energy on first SCF cycle will be non-variational
 Long-range K will be added via erf
 Coulomb attenuation parameter = 0.43 bohr**(-1)
 An unrestricted Kohn-Sham SCF calculation will be
 performed using Pulay DIIS extrapolation
 Exchange:  wPBE + LR-HF      Correlation:  PBE
 Using SG-1 standard quadrature grid
 SCF converges when DIIS error is below 1.0E-05
 Requested basis set is G3large
 There are 22 shells and 62 basis functions
 A cutoff of  1.0D-08 yielded    253 shell pairs
 There are   2043 function pairs (  2475 Cartesian)
 Warning!  Inaccurate integrated density:
   Number of electrons =     9
   Numerical integral  =     7.999994824901
   Relative error      =   -11.1111686122 %
 ---------------------------------------
  Cycle       Energy         DIIS Error
 ---------------------------------------
    1     -38.9739566154      3.21E-02
    2     -39.0606472688      1.02E-02
    3     -39.1227235898      6.60E-03
    4     -39.1480552388      8.00E-04
    5     -39.1506604984      3.89E-04
    6     -39.1521845316      2.45E-04
    7     -39.1530555539      1.62E-04
    8     -39.1537175162      8.42E-05
    9     -39.1539020087      3.12E-05
   10     -39.1539200940      8.86E-06 Convergence criterion met
 ---------------------------------------
 One-Electron    Energy =   -66.1451958630
 Total Coulomb   Energy =    27.2344101371
 Alpha Exchange  Energy =    -0.9881870767
 Beta  Exchange  Energy =    -0.8019141468
 DFT   Exchange  Energy =    -4.1836860666
 DFT Correlation Energy =    -0.2499574588
 Nuclear Repu.   Energy =     5.9806103807
 Nuclear Attr.   Energy =  -105.1293811634
 Kinetic         Energy =    38.9841853005
 <S^2> = 0.7554
 SCF time:  CPU 8.83 s  wall 9.47 s
 Final Alpha MO Eigenvalues
            1           2           3           4           5           6
    1  -9.8439128  -0.5253672  -0.2304017  -0.0857906  -0.0625220   0.1857152
            7           8           9          10
    1   0.2094773   0.3016877   0.3042653   0.3234750
 Final Beta MO Eigenvalues
            1           2           3           4           5           6
    1  -9.8327882  -0.4824842  -0.2216499  -0.0634777   0.1867766   0.2099508
            7           8           9
    1   0.2508993   0.3056641   0.3236877
 Analysis of SCF Wavefunction
 
 --------------------------------------------------------------
                    Orbital Energies (a.u.)
 --------------------------------------------------------------
 
 Alpha MOs
 -- Occupied --
 -9.844  -0.525  -0.230  -0.086  -0.063
 -- Virtual --
  0.186   0.209   0.302   0.304   0.323   0.361   0.457   0.480
  0.746   0.828   0.877   0.901   0.924   0.931   0.931   0.973
  1.072   1.290   1.295   1.400   1.430   1.446   1.596   1.805
  1.811   2.750   2.751   3.053   3.227   3.253   3.265   3.310
  3.353   3.364   3.505   3.533   3.578   3.728   3.765   3.797
  4.090   4.160   4.453   4.520   4.532   4.622   5.391   5.882
 24.040  27.493  27.862  28.241  41.192  41.276  41.423  41.424
 41.457
 
 Beta MOs
 -- Occupied --
 -9.833  -0.482  -0.222  -0.063
 -- Virtual --
  0.187   0.210   0.251   0.306   0.324   0.374   0.389   0.465
  0.484   0.750   0.846   0.887   0.933   0.947   0.962   0.969
  1.014   1.103   1.290   1.324   1.423   1.454   1.455   1.604
  1.810   1.824   2.758   2.765   3.121   3.264   3.291   3.297
  3.363   3.379   3.381   3.509   3.554   3.638   3.789   3.820
  3.828   4.098   4.171   4.465   4.521   4.546   4.622   5.401
  5.889  24.053  27.525  27.869  28.248  41.223  41.281  41.446
 41.447  41.461
 --------------------------------------------------------------
 
          Ground-State Mulliken Net Atomic Charges

     Atom                 Charge (a.u.)    Spin (a.u.)
  --------------------------------------------------------
      1 C                    -0.974008       1.137270
      2 H                    -0.012981      -0.068622
      3 H                    -0.013010      -0.068648
  --------------------------------------------------------
  Sum of atomic charges =    -1.000000
  Sum of spin   charges =     1.000000

 -----------------------------------------------------------------
                    Cartesian Multipole Moments
 -----------------------------------------------------------------
    Charge (ESU x 10^10)
                -4.8032
    Dipole Moment (Debye)
         X       1.2789      Y      -0.0001      Z       1.0678
       Tot       1.6661
    Quadrupole Moments (Debye-Ang)
        XX     -13.6079     XY       0.0013     YY     -13.4123
        XZ      -1.3693     YZ      -0.0013     ZZ     -13.1113
    Octapole Moments (Debye-Ang^2)
       XXX      -0.6039    XXY       0.0008    XYY       0.0991
       YYY      -0.0010    XXZ      -0.0192    XYZ      -0.0002
       YYZ       0.0826    XZZ      -0.1040    YZZ      -0.0017
       ZZZ      -0.5724
    Hexadecapole Moments (Debye-Ang^3)
      XXXX     -39.7082   XXXY       0.0057   XXYY     -11.9491
      XYYY       0.0051   YYYY     -32.2934   XXXZ      -3.3698
      XXYZ      -0.0014   XYYZ      -1.0746   YYYZ      -0.0040
      XXZZ     -12.6939   XYZZ       0.0017   YYZZ     -11.5595
      XZZZ      -3.4432   YZZZ      -0.0048   ZZZZ     -37.2378
 -----------------------------------------------------------------
 Total job time:  9.56s(wall), 8.91s(cpu) 
 Tue Apr 30 20:52:44 2013

        *************************************************************
        *                                                           *
        *  Thank you very much for using Q-Chem.  Have a nice day.  *
        *                                                           *
        *************************************************************


0 sent ACK to 0 
now end server 0 ... 
 
**********************************************************************
Job 2 of 3 
**********************************************************************
 
Process 0 of 1 is on cl011.stfx.acenet.ca - thread support 1
initial socket setup ...start
initial socket setup ...done 
now start server 0 ... 

cmd = /usr/bin/ssh clhead /usr/local/qchem/bin/get_hostid 1022847095 > /scratch/tmp/5955457.1.short.q/qchem12239/lic.dat
                  Welcome to Q-Chem
     A Quantum Leap Into The Future Of Chemistry

 Y. Shao, L. Fusti-Molnar, Y. Jung, J. Kussmann, C. Ochsenfeld,
 S. T. Brown, A. T. B. Gilbert, L. V. Slipchenko,S. V. Levchenko,
 D. P. O'Neill, R. A. DiStasio Jr., R. C. Lochan, T. Wang,
 G. J. O. Beran, N. A. Besley, J. M. Herbert, C. Y. Lin,
 T. Van Voorhis, S. H. Chien, A. Sodt, R. P. Steele, 
 V. A. Rassolov, P. E. Maslen, P. P. Korambath, R. D. Adamson,
 B. Austin, J. Baker, E. F. C. Byrd, H. Dachsel, R. J. Doerksen,
 A. Dreuw, B. D. Dunietz, A. D. Dutoi, T. R. Furlani,
 S. R. Gwaltney, A. Heyden, S. Hirata, C.-P. Hsu, G. Kedziora,
 R. Z. Khaliullin, P. Klunzinger, A. M. Lee, M. S. Lee, W. Liang,
 I. Lotan, N. Nair, B. Peters, E. I. Proynov, P. A. Pieniazek, 
 Y. M. Rhee, J. Ritchie, E. Rosta, C. D. Sherrill, 
 A. C. Simmonett, J. E. Subotnik, H. L. Woodcock III,
 W. Zhang, A. T. Bell, A. K. Chakraborty, D. M. Chipman,
 F. J. Keil, A. Warshel, W. J. Hehre, H. F. Schaefer III,
 J. Kong, A. I. Krylov, P. M. W. Gill, M. Head-Gordon,
 Q-Chem, Version 3.1, Q-Chem, Inc., Pittsburgh, PA (2007).

 Additional authors for Version 3.1: 
 Z. Gan, Y. Zhao, N. E. Schultz, D. Truhlar, E. Epifanovsky and M. Oana.

 Additional authors for Version 3.2: 
 R. Baer, B. R. Brooks, D. Casanova, J.-D. Chai, C.-L. Cheng, 
 C. Cramer, D. Crittenden, A. Ghysels, G. Hawkins, E. G. Hohenstein, 
 C. Kelley, W. Kurlancheek, D. Liotard, E. Livshits, P. Manohar, 
 A. Marenich, D. Neuhauser, R. Olson, M. A. Rohrdanz, K. S. Thanthiriwatte, 
 A. J. W. Thom, V. Vanovschi, C. F. Williams, Q. Wu and Z.-Q. You. 


 Intel X86 Linux Version

 Q-chem begins on Tue Apr 30 20:52:47 2013  

 Parallel job on  1  processors
Processing $rem in /usr/local/qchem/config/preferences.

theFileMan(): MAXOPENFILES=974 MAX_SUB_FILE_NUM=16
Maximum size of a physical file is 2.0 GB, maximum size of a tmp-file is 32.0 GB


--------------------------------------------------------------
User input:
--------------------------------------------------------------

$molecule
0,1
C
H,1,CH
H,1,CH,2,HCH

CH=1.11942218
HCH=100.2755497

$end

$comment
neutral
$end

$xc_functional
C PBE   1.00
X wPBE  1.00
$end


$rem
SYMMETRY_DECOMPOSITION	0
LRC_DFT                 true
exchange 		general
BASIS                   g3large
omega			430
mem_static              760
max_scf_cycles          200
scf_final_print         1
sym_ignore              true
$end

--------------------------------------------------------------
 Writing REM_CC_EA            3
 ----------------------------------------------------
       Standard Nuclear Orientation (Angstroms)
    I     Atom         X            Y            Z
 ----------------------------------------------------
    1      C       0.000000     0.000000     0.000000
    2      H       0.000000     0.000000     1.119422
    3      H       1.101468     0.000000    -0.199685
 ----------------------------------------------------
 Nuclear Repulsion Energy =     5.9806103808 hartrees
 There are        4 alpha and        4 beta electrons
 Requested basis set is G3large
 There are 22 shells and 62 basis functions

Total QAlloc Memory Limit   2000 MB
Mega-Array Size       743 MB
MEM_STATIC part       760 MB

                       Distance Matrix (Angstroms)
             C (  1)   H (  2)
   H (  2)  1.119422
   H (  3)  1.119422  1.718510
 
 A cutoff of  1.0D-08 yielded    253 shell pairs
 There are   2043 function pairs (  2475 Cartesian)
Evaluating contribution to one-electron hamiltonian from nuclear
 Smallest overlap matrix eigenvalue = 3.40E-03
 Multipole matrices computed through 2nd order

  Scale SEOQF with 1.000000e-01/1.000000e-01/1.000000e-01

 Standard Electronic Orientation quadrupole field applied
 Guess from superposition of atomic densities
 Warning:  Energy on first SCF cycle will be non-variational
 Long-range K will be added via erf
 Coulomb attenuation parameter = 0.43 bohr**(-1)
 A restricted Kohn-Sham SCF calculation will be
 performed using Pulay DIIS extrapolation
 Exchange:  wPBE + LR-HF      Correlation:  PBE
 Using SG-1 standard quadrature grid
 SCF converges when DIIS error is below 1.0E-05
 Requested basis set is G3large
 There are 22 shells and 62 basis functions
 A cutoff of  1.0D-08 yielded    253 shell pairs
 There are   2043 function pairs (  2475 Cartesian)
 ---------------------------------------
  Cycle       Energy         DIIS Error
 ---------------------------------------
    1     -38.9739566154      3.21E-02
    2     -39.0715279620      4.04E-03
    3     -39.0917766424      1.76E-03
    4     -39.0979019845      1.08E-03
    5     -39.1035969220      6.75E-04
    6     -39.1065821944      3.49E-04
    7     -39.1073624052      1.50E-04
    8     -39.1075116420      5.47E-05
    9     -39.1075296106      1.11E-05
   10     -39.1075299786      2.44E-06 Convergence criterion met
 ---------------------------------------
 One-Electron    Energy =   -63.5525192977
 Total Coulomb   Energy =    24.4632333819
 Alpha Exchange  Energy =    -0.8243798786
 Beta  Exchange  Energy =    -0.8243798786
 DFT   Exchange  Energy =    -4.1258409891
 DFT Correlation Energy =    -0.2242536971
 Nuclear Repu.   Energy =     5.9806103807
 Nuclear Attr.   Energy =  -102.4764739136
 Kinetic         Energy =    38.9239546159
 SCF time:  CPU 7.90 s  wall 8.32 s
 Final Alpha MO Eigenvalues
            1           2           3           4           5           6
    1 -10.1944608  -0.8237934  -0.5364938  -0.3852795  -0.0314816   0.0398686
            7           8           9
    1   0.0708568   0.1287096   0.1319666
 Analysis of SCF Wavefunction
 
 --------------------------------------------------------------
                    Orbital Energies (a.u.)
 --------------------------------------------------------------
 
 Alpha MOs
 -- Occupied --
-10.194  -0.824  -0.536  -0.385
 -- Virtual --
 -0.031   0.040   0.071   0.129   0.132   0.155   0.179   0.240
  0.255   0.501   0.574   0.624   0.650   0.663   0.665   0.672
  0.706   0.816   1.027   1.028   1.133   1.166   1.178   1.329
  1.536   1.537   2.456   2.457   2.741   2.913   2.940   2.952
  2.999   3.045   3.053   3.198   3.225   3.276   3.417   3.454
  3.489   3.784   3.852   4.149   4.216   4.226   4.321   5.087
  5.571  23.692  27.148  27.515  27.892  40.844  40.927  41.073
 41.075  41.108
 --------------------------------------------------------------
 
          Ground-State Mulliken Net Atomic Charges

     Atom                 Charge (a.u.)
  ----------------------------------------
      1 C                    -0.130966
      2 H                     0.065485
      3 H                     0.065480
  ----------------------------------------
  Sum of atomic charges =     0.000000

 -----------------------------------------------------------------
                    Cartesian Multipole Moments
 -----------------------------------------------------------------
    Charge (ESU x 10^10)
                 0.0000
    Dipole Moment (Debye)
         X       1.5119      Y       0.0000      Z       1.2625
       Tot       1.9697
    Quadrupole Moments (Debye-Ang)
        XX      -8.1610     XY       0.0001     YY      -6.4649
        XZ      -0.8228     YZ       0.0000     ZZ      -7.8626
    Octapole Moments (Debye-Ang^2)
       XXX      -0.2154    XXY       0.0000    XYY      -0.2716
       YYY      -0.0001    XXZ      -0.6233    XYZ       0.0000
       YYZ      -0.2268    XZZ      -0.4401    YZZ       0.0000
       ZZZ       0.0760
    Hexadecapole Moments (Debye-Ang^3)
      XXXX     -16.0097   XXXY       0.0001   XXYY      -4.0052
      XYYY       0.0001   YYYY      -6.3461   XXXZ      -0.9179
      XXYZ       0.0000   XYYZ      -0.1666   YYYZ       0.0001
      XXZZ      -5.7876   XYZZ       0.0000   YYZZ      -3.9448
      XZZZ      -0.6123   YZZZ       0.0001   ZZZZ     -15.4547
 -----------------------------------------------------------------
 Total job time:  8.40s(wall), 7.97s(cpu) 
 Tue Apr 30 20:52:55 2013

        *************************************************************
        *                                                           *
        *  Thank you very much for using Q-Chem.  Have a nice day.  *
        *                                                           *
        *************************************************************


0 sent ACK to 0 
now end server 0 ... 
 
**********************************************************************
Job 3 of 3 
**********************************************************************
 
Process 0 of 1 is on cl011.stfx.acenet.ca - thread support 1
initial socket setup ...start
initial socket setup ...done 
now start server 0 ... 

cmd = /usr/bin/ssh clhead /usr/local/qchem/bin/get_hostid 1659493296 > /scratch/tmp/5955457.1.short.q/qchem12239/lic.dat
                  Welcome to Q-Chem
     A Quantum Leap Into The Future Of Chemistry

 Y. Shao, L. Fusti-Molnar, Y. Jung, J. Kussmann, C. Ochsenfeld,
 S. T. Brown, A. T. B. Gilbert, L. V. Slipchenko,S. V. Levchenko,
 D. P. O'Neill, R. A. DiStasio Jr., R. C. Lochan, T. Wang,
 G. J. O. Beran, N. A. Besley, J. M. Herbert, C. Y. Lin,
 T. Van Voorhis, S. H. Chien, A. Sodt, R. P. Steele, 
 V. A. Rassolov, P. E. Maslen, P. P. Korambath, R. D. Adamson,
 B. Austin, J. Baker, E. F. C. Byrd, H. Dachsel, R. J. Doerksen,
 A. Dreuw, B. D. Dunietz, A. D. Dutoi, T. R. Furlani,
 S. R. Gwaltney, A. Heyden, S. Hirata, C.-P. Hsu, G. Kedziora,
 R. Z. Khaliullin, P. Klunzinger, A. M. Lee, M. S. Lee, W. Liang,
 I. Lotan, N. Nair, B. Peters, E. I. Proynov, P. A. Pieniazek, 
 Y. M. Rhee, J. Ritchie, E. Rosta, C. D. Sherrill, 
 A. C. Simmonett, J. E. Subotnik, H. L. Woodcock III,
 W. Zhang, A. T. Bell, A. K. Chakraborty, D. M. Chipman,
 F. J. Keil, A. Warshel, W. J. Hehre, H. F. Schaefer III,
 J. Kong, A. I. Krylov, P. M. W. Gill, M. Head-Gordon,
 Q-Chem, Version 3.1, Q-Chem, Inc., Pittsburgh, PA (2007).

 Additional authors for Version 3.1: 
 Z. Gan, Y. Zhao, N. E. Schultz, D. Truhlar, E. Epifanovsky and M. Oana.

 Additional authors for Version 3.2: 
 R. Baer, B. R. Brooks, D. Casanova, J.-D. Chai, C.-L. Cheng, 
 C. Cramer, D. Crittenden, A. Ghysels, G. Hawkins, E. G. Hohenstein, 
 C. Kelley, W. Kurlancheek, D. Liotard, E. Livshits, P. Manohar, 
 A. Marenich, D. Neuhauser, R. Olson, M. A. Rohrdanz, K. S. Thanthiriwatte, 
 A. J. W. Thom, V. Vanovschi, C. F. Williams, Q. Wu and Z.-Q. You. 


 Intel X86 Linux Version

 Q-chem begins on Tue Apr 30 20:52:58 2013  

 Parallel job on  1  processors
Processing $rem in /usr/local/qchem/config/preferences.

theFileMan(): MAXOPENFILES=974 MAX_SUB_FILE_NUM=16
Maximum size of a physical file is 2.0 GB, maximum size of a tmp-file is 32.0 GB


--------------------------------------------------------------
User input:
--------------------------------------------------------------

$molecule
1,2
C
H,1,CH
H,1,CH,2,HCH

CH=1.11942218
HCH=100.2755497

$end

$comment
positive
$end

$xc_functional
C PBE   1.00
X wPBE  1.00
$end

$rem
SYMMETRY_DECOMPOSITION	0
LRC_DFT                 true
exchange 		general
BASIS                   g3large
omega			430
mem_static              760
max_scf_cycles          200
scf_final_print         1
sym_ignore              true
$end

--------------------------------------------------------------
 Writing REM_CC_EA            3
 ----------------------------------------------------
       Standard Nuclear Orientation (Angstroms)
    I     Atom         X            Y            Z
 ----------------------------------------------------
    1      C       0.000000     0.000000     0.000000
    2      H       0.000000     0.000000     1.119422
    3      H       1.101468     0.000000    -0.199685
 ----------------------------------------------------
 Nuclear Repulsion Energy =     5.9806103808 hartrees
 There are        4 alpha and        3 beta electrons
 Requested basis set is G3large
 There are 22 shells and 62 basis functions

Total QAlloc Memory Limit   2000 MB
Mega-Array Size       743 MB
MEM_STATIC part       760 MB

                       Distance Matrix (Angstroms)
             C (  1)   H (  2)
   H (  2)  1.119422
   H (  3)  1.119422  1.718510
 
 A cutoff of  1.0D-08 yielded    253 shell pairs
 There are   2043 function pairs (  2475 Cartesian)
Evaluating contribution to one-electron hamiltonian from nuclear
 Smallest overlap matrix eigenvalue = 3.40E-03
 Multipole matrices computed through 2nd order

  Scale SEOQF with 1.000000e-01/1.000000e-01/1.000000e-01

 Standard Electronic Orientation quadrupole field applied
 Guess from superposition of atomic densities
 Warning:  Energy on first SCF cycle will be non-variational
 Long-range K will be added via erf
 Coulomb attenuation parameter = 0.43 bohr**(-1)
 An unrestricted Kohn-Sham SCF calculation will be
 performed using Pulay DIIS extrapolation
 Exchange:  wPBE + LR-HF      Correlation:  PBE
 Using SG-1 standard quadrature grid
 SCF converges when DIIS error is below 1.0E-05
 Requested basis set is G3large
 There are 22 shells and 62 basis functions
 A cutoff of  1.0D-08 yielded    253 shell pairs
 There are   2043 function pairs (  2475 Cartesian)
 Warning!  Inaccurate integrated density:
   Number of electrons =     7
   Numerical integral  =     7.999994824901
   Relative error      =    14.2856403557 %
 ---------------------------------------
  Cycle       Energy         DIIS Error
 ---------------------------------------
    1     -38.9739566154      3.21E-02
    2     -38.6429192051      8.00E-03
    3     -38.7050575132      3.22E-03
    4     -38.7132791751      8.96E-04
    5     -38.7168401988      5.40E-04
    6     -38.7192274278      2.99E-04
    7     -38.7203636210      1.67E-04
    8     -38.7207790635      8.09E-05
    9     -38.7208842072      1.86E-05
   10     -38.7208876413      5.07E-06 Convergence criterion met
 ---------------------------------------
 One-Electron    Energy =   -60.3625678861
 Total Coulomb   Energy =    21.3670082528
 Alpha Exchange  Energy =    -0.8439357805
 Beta  Exchange  Energy =    -0.6377259739
 DFT   Exchange  Energy =    -4.0369315417
 DFT Correlation Energy =    -0.1873450924
 Nuclear Repu.   Energy =     5.9806103807
 Nuclear Attr.   Energy =   -98.9309324364
 Kinetic         Energy =    38.5683645503
 <S^2> = 0.7518
 SCF time:  CPU 9.01 s  wall 9.76 s
 Final Alpha MO Eigenvalues
            1           2           3           4           5           6
    1 -10.6573555  -1.2158709  -0.9148274  -0.8563538  -0.4040607  -0.1425250
            7           8           9
    1  -0.1003882  -0.0725119  -0.0676289
 Final Beta MO Eigenvalues
            1           2           3           4           5           6
    1 -10.6401426  -1.1710808  -0.8971504  -0.3817551  -0.3701964  -0.1389006
            7           8
    1  -0.0920685  -0.0642667
 Analysis of SCF Wavefunction
 
 --------------------------------------------------------------
                    Orbital Energies (a.u.)
 --------------------------------------------------------------
 
 Alpha MOs
 -- Occupied --
-10.657  -1.216  -0.915  -0.856
 -- Virtual --
 -0.404  -0.143  -0.100  -0.073  -0.068  -0.059  -0.007  -0.003
  0.013   0.230   0.270   0.318   0.333   0.340   0.343   0.367
  0.386   0.493   0.698   0.719   0.817   0.852   0.857   0.992
  1.215   1.223   2.105   2.106   2.334   2.489   2.532   2.573
  2.611   2.618   2.646   2.786   2.844   2.872   2.965   3.013
  3.032   3.358   3.445   3.789   3.849   3.866   3.941   4.709
  5.185  23.235  26.691  27.039  27.438  40.384  40.460  40.606
 40.620  40.643
 
 Beta MOs
 -- Occupied --
-10.640  -1.171  -0.897
 -- Virtual --
 -0.382  -0.370  -0.139  -0.092  -0.064  -0.059  -0.046  -0.005
  0.004   0.023   0.245   0.293   0.349   0.351   0.352   0.374
  0.395   0.405   0.523   0.719   0.734   0.833   0.871   0.878
  1.029   1.230   1.236   2.120   2.127   2.357   2.555   2.587
  2.592   2.642   2.684   2.690   2.843   2.863   2.901   3.056
  3.070   3.133   3.423   3.481   3.806   3.872   3.880   3.974
  4.733   5.215  23.255  26.703  27.079  27.451  40.400  40.489
 40.627  40.635  40.670
 --------------------------------------------------------------
 
          Ground-State Mulliken Net Atomic Charges

     Atom                 Charge (a.u.)    Spin (a.u.)
  --------------------------------------------------------
      1 C                     0.566417       0.929745
      2 H                     0.216715       0.034910
      3 H                     0.216868       0.035345
  --------------------------------------------------------
  Sum of atomic charges =     1.000000
  Sum of spin   charges =     1.000000

 -----------------------------------------------------------------
                    Cartesian Multipole Moments
 -----------------------------------------------------------------
    Charge (ESU x 10^10)
                 4.8032
    Dipole Moment (Debye)
         X       1.2567      Y       0.0001      Z       1.0493
       Tot       1.6371
    Quadrupole Moments (Debye-Ang)
        XX      -3.8416     XY      -0.0001     YY      -4.3885
        XZ      -0.0131     YZ      -0.0001     ZZ      -3.8391
    Octapole Moments (Debye-Ang^2)
       XXX       0.7987    XXY       0.0000    XYY      -0.6049
       YYY       0.0000    XXZ      -0.9077    XYZ       0.0000
       YYZ      -0.5051    XZZ      -0.4728    YZZ       0.0000
       ZZZ       1.1789
    Hexadecapole Moments (Debye-Ang^3)
      XXXX      -5.3108   XXXY       0.0000   XXYY      -2.0067
      XYYY       0.0000   YYYY      -3.1037   XXXZ      -0.0341
      XXYZ       0.0000   XYYZ       0.1956   YYYZ       0.0000
      XXZZ      -2.9548   XYZZ       0.0000   YYZZ      -2.0781
      XZZZ       0.6120   YZZZ       0.0000   ZZZZ      -5.5246
 -----------------------------------------------------------------
 Total job time:  9.84s(wall), 9.08s(cpu) 
 Tue Apr 30 20:53:08 2013

        *************************************************************
        *                                                           *
        *  Thank you very much for using Q-Chem.  Have a nice day.  *
        *                                                           *
        *************************************************************


0 sent ACK to 0 
now end server 0 ... 
