Process 0 of 1 is on cl008.stfx.acenet.ca - thread support 1
initial socket setup ...start
initial socket setup ...done 
now start server 0 ... 

cmd = /usr/bin/ssh clhead /usr/local/qchem/bin/get_hostid 1020108923 > /scratch/tmp/6022136.1.short.q/qchem7164/lic.dat
                  Welcome to Q-Chem
     A Quantum Leap Into The Future Of Chemistry

 Y. Shao, L. Fusti-Molnar, Y. Jung, J. Kussmann, C. Ochsenfeld,
 S. T. Brown, A. T. B. Gilbert, L. V. Slipchenko,S. V. Levchenko,
 D. P. O'Neill, R. A. DiStasio Jr., R. C. Lochan, T. Wang,
 G. J. O. Beran, N. A. Besley, J. M. Herbert, C. Y. Lin,
 T. Van Voorhis, S. H. Chien, A. Sodt, R. P. Steele, 
 V. A. Rassolov, P. E. Maslen, P. P. Korambath, R. D. Adamson,
 B. Austin, J. Baker, E. F. C. Byrd, H. Dachsel, R. J. Doerksen,
 A. Dreuw, B. D. Dunietz, A. D. Dutoi, T. R. Furlani,
 S. R. Gwaltney, A. Heyden, S. Hirata, C.-P. Hsu, G. Kedziora,
 R. Z. Khaliullin, P. Klunzinger, A. M. Lee, M. S. Lee, W. Liang,
 I. Lotan, N. Nair, B. Peters, E. I. Proynov, P. A. Pieniazek, 
 Y. M. Rhee, J. Ritchie, E. Rosta, C. D. Sherrill, 
 A. C. Simmonett, J. E. Subotnik, H. L. Woodcock III,
 W. Zhang, A. T. Bell, A. K. Chakraborty, D. M. Chipman,
 F. J. Keil, A. Warshel, W. J. Hehre, H. F. Schaefer III,
 J. Kong, A. I. Krylov, P. M. W. Gill, M. Head-Gordon,
 Q-Chem, Version 3.1, Q-Chem, Inc., Pittsburgh, PA (2007).

 Additional authors for Version 3.1: 
 Z. Gan, Y. Zhao, N. E. Schultz, D. Truhlar, E. Epifanovsky and M. Oana.

 Additional authors for Version 3.2: 
 R. Baer, B. R. Brooks, D. Casanova, J.-D. Chai, C.-L. Cheng, 
 C. Cramer, D. Crittenden, A. Ghysels, G. Hawkins, E. G. Hohenstein, 
 C. Kelley, W. Kurlancheek, D. Liotard, E. Livshits, P. Manohar, 
 A. Marenich, D. Neuhauser, R. Olson, M. A. Rohrdanz, K. S. Thanthiriwatte, 
 A. J. W. Thom, V. Vanovschi, C. F. Williams, Q. Wu and Z.-Q. You. 


 Intel X86 Linux Version

 Q-chem begins on Wed May 29 17:03:51 2013  

 Parallel job on  1  processors
Processing $rem in /usr/local/qchem/config/preferences.

theFileMan(): MAXOPENFILES=974 MAX_SUB_FILE_NUM=16
Maximum size of a physical file is 2.0 GB, maximum size of a tmp-file is 32.0 GB


--------------------------------------------------------------
User input:
--------------------------------------------------------------

$molecule
-1,2
C          0.00330        0.00000        0.01264
S          0.00259        0.00000        1.81020
H          1.32804        0.00000        1.98171
H         -1.04144        0.00000       -0.29717
H          0.48038        0.89273       -0.38851
H          0.48038       -0.89273       -0.38850
$end

$comment
negative
$end

$xc_functional
C PBE   1.00
X wPBE  1.00
$end

$rem
SYMMETRY_DECOMPOSITION	0
exchange 		general
LRC_DFT                 true
BASIS                   g3large
omega			380
mem_static              760
max_scf_cycles          200
scf_final_print         1
sym_ignore              true
$end

--------------------------------------------------------------
 Writing REM_CC_EA            6
 ----------------------------------------------------
       Standard Nuclear Orientation (Angstroms)
    I     Atom         X            Y            Z
 ----------------------------------------------------
    1      C       0.003300     0.000000     0.012640
    2      S       0.002590     0.000000     1.810200
    3      H       1.328040     0.000000     1.981710
    4      H      -1.041440     0.000000    -0.297170
    5      H       0.480380     0.892730    -0.388510
    6      H       0.480380    -0.892730    -0.388500
 ----------------------------------------------------
 Nuclear Repulsion Energy =    56.7282423558 hartrees
 There are       14 alpha and       13 beta electrons
 Requested basis set is G3large
 There are 53 shells and 148 basis functions

Total QAlloc Memory Limit   2000 MB
Mega-Array Size       743 MB
MEM_STATIC part       760 MB

                       Distance Matrix (Angstroms)
             C (  1)   S (  2)   H (  3)   H (  4)   H (  5)
   S (  2)  1.797560
   H (  3)  2.373220  1.336500
   H (  4)  1.089708  2.351809  3.287511
   H (  5)  1.088804  2.420656  2.670850  1.766705
   H (  6)  1.088800  2.420647  2.670841  1.766704  1.785460
 
 A cutoff of  1.0D-08 yielded   1382 shell pairs
 There are  10875 function pairs ( 13912 Cartesian)
Evaluating contribution to one-electron hamiltonian from nuclear
 Smallest overlap matrix eigenvalue = 3.53E-04
 Multipole matrices computed through 2nd order

  Scale SEOQF with 1.000000e-01/1.000000e-01/1.000000e-01

 Standard Electronic Orientation quadrupole field applied
 Nucleus-field energy     =    -0.0000000058 hartrees
 Guess from superposition of atomic densities
 Warning:  Energy on first SCF cycle will be non-variational
 Long-range K will be added via erf
 Coulomb attenuation parameter = 0.38 bohr**(-1)
 An unrestricted Kohn-Sham SCF calculation will be
 performed using Pulay DIIS extrapolation
 Exchange:  wPBE + LR-HF      Correlation:  PBE
 Using SG-1 standard quadrature grid
 SCF converges when DIIS error is below 1.0E-05
 Requested basis set is G3large
 There are 53 shells and 148 basis functions
 A cutoff of  1.0D-08 yielded   1382 shell pairs
 There are  10875 function pairs ( 13912 Cartesian)
 Warning!  Inaccurate integrated density:
   Number of electrons =    27
   Numerical integral  =    26.000046506408
   Relative error      =    -3.7035314577 %
 ---------------------------------------
  Cycle       Energy         DIIS Error
 ---------------------------------------
    1    -438.8090428902      3.06E-02
    2    -438.4415157011      3.61E-03
    3    -438.4917933433      3.36E-03
    4    -438.5233781871      6.55E-04
    5    -438.5300192345      3.79E-04
    6    -438.5341219016      1.75E-04
    7    -438.5357808375      7.31E-05
    8    -438.5362078587      2.81E-05
    9    -438.5363008395      1.37E-05
   10    -438.5363267827      9.13E-06 Convergence criterion met
 ---------------------------------------
 One-Electron    Energy =  -720.0102276409
 Total Coulomb   Energy =   257.2718912056
 Alpha Exchange  Energy =    -2.5873790945
 Beta  Exchange  Energy =    -2.5177972841
 DFT   Exchange  Energy =   -26.4847646940
 DFT Correlation Energy =    -0.9362916248
 Nuclear Repu.   Energy =    56.7282423499
 Nuclear Attr.   Energy = -1157.8605343220
 Kinetic         Energy =   437.8503066811
 <S^2> = 0.7503
 SCF time:  CPU 82.72 s  wall 83.23 s
 Final Alpha MO Eigenvalues
            1           2           3           4           5           6
    1 -88.1051409  -9.9657477  -7.7422984  -5.7593129  -5.7551414  -5.7487979
            7           8           9          10          11          12
    1  -0.7837287  -0.6343400  -0.4278884  -0.4026005  -0.3621801  -0.3052039
           13          14          15          16          17          18
    1  -0.2117707   0.0262269   0.1430141   0.1573305   0.1643253   0.2011729
           19
    1   0.2243958
 Final Beta MO Eigenvalues
            1           2           3           4           5           6
    1 -88.1050326  -9.9650204  -7.7421857  -5.7589871  -5.7550691  -5.7487577
            7           8           9          10          11          12
    1  -0.7826901  -0.6322098  -0.4263249  -0.4016267  -0.3607179  -0.3040911
           13          14          15          16          17          18
    1  -0.2113374   0.1446361   0.1564308   0.1755715   0.1759385   0.2044872
 Analysis of SCF Wavefunction
 
 --------------------------------------------------------------
                    Orbital Energies (a.u.)
 --------------------------------------------------------------
 
 Alpha MOs
 -- Occupied --
-88.105  -9.966  -7.742  -5.759  -5.755  -5.749  -0.784  -0.634
 -0.428  -0.403  -0.362  -0.305  -0.212   0.026
 -- Virtual --
  0.143   0.157   0.164   0.201   0.224   0.232   0.249   0.269
  0.275   0.289   0.301   0.314   0.340   0.381   0.383   0.465
  0.472   0.494   0.510   0.519   0.582   0.586   0.638   0.650
  0.673   0.679   0.772   0.781   0.789   0.852   0.886   0.928
  0.945   0.957   1.018   1.071   1.088   1.110   1.133   1.153
  1.154   1.214   1.240   1.245   1.315   1.353   1.355   1.391
  1.458   1.464   1.476   1.507   1.523   1.569   1.634   1.643
  1.651   1.665   1.721   1.726   1.794   1.875   2.108   2.286
  2.325   2.696   2.728   2.782   3.055   3.171   3.181   3.234
  3.288   3.408   3.427   3.433   3.467   3.497   3.607   3.638
  3.742   3.753   3.773   3.775   3.820   3.853   3.882   4.060
  4.115   4.135   4.171   4.225   4.307   4.389   4.401   4.561
  4.580   4.592   4.620   4.671   4.820   5.030   5.034   5.215
  5.372   5.757   5.872   5.889   8.539  17.263  17.420  17.530
 23.681  23.706  23.737  23.753  23.914  24.274  28.017  28.202
 28.202  31.046  31.050  31.053  31.055  31.059  31.072  31.080
 41.071  41.099  41.310  41.340  41.392 189.064
 
 Beta MOs
 -- Occupied --
-88.105  -9.965  -7.742  -5.759  -5.755  -5.749  -0.783  -0.632
 -0.426  -0.402  -0.361  -0.304  -0.211
 -- Virtual --
  0.145   0.156   0.176   0.176   0.204   0.226   0.234   0.249
  0.272   0.272   0.293   0.299   0.315   0.341   0.383   0.384
  0.465   0.470   0.492   0.511   0.518   0.582   0.586   0.639
  0.649   0.672   0.678   0.771   0.779   0.787   0.852   0.884
  0.929   0.946   0.958   1.019   1.071   1.088   1.111   1.135
  1.154   1.155   1.215   1.240   1.246   1.316   1.353   1.355
  1.392   1.459   1.464   1.477   1.508   1.523   1.569   1.634
  1.644   1.652   1.666   1.721   1.726   1.795   1.875   2.109
  2.287   2.326   2.696   2.728   2.782   3.056   3.171   3.181
  3.235   3.289   3.409   3.428   3.434   3.468   3.498   3.608
  3.638   3.743   3.754   3.773   3.776   3.821   3.854   3.883
  4.061   4.115   4.136   4.172   4.226   4.307   4.389   4.401
  4.561   4.580   4.592   4.620   4.671   4.820   5.031   5.034
  5.215   5.372   5.757   5.873   5.890   8.540  17.263  17.421
 17.531  23.681  23.706  23.737  23.753  23.915  24.275  28.018
 28.203  28.203  31.046  31.050  31.053  31.055  31.059  31.073
 31.080  41.071  41.100  41.310  41.340  41.393 189.064
 --------------------------------------------------------------
 
          Ground-State Mulliken Net Atomic Charges

     Atom                 Charge (a.u.)    Spin (a.u.)
  --------------------------------------------------------
      1 C                     2.628207      -2.621219
      2 S                    -0.375009       0.019124
      3 H                    -0.140188       0.240610
      4 H                    -0.881390       0.957809
      5 H                    -1.123855       1.210151
      6 H                    -1.107766       1.193525
  --------------------------------------------------------
  Sum of atomic charges =    -1.000000
  Sum of spin   charges =     1.000000

 -----------------------------------------------------------------
                    Cartesian Multipole Moments
 -----------------------------------------------------------------
    Charge (ESU x 10^10)
                -4.8032
    Dipole Moment (Debye)
         X      -1.1302      Y      -0.0533      Z       1.2374
       Tot       1.6767
    Quadrupole Moments (Debye-Ang)
        XX     -44.7909     XY      -0.0475     YY     -46.5600
        XZ       2.4026     YZ       0.0410     ZZ     -43.7820
    Octapole Moments (Debye-Ang^2)
       XXX     -18.5855    XXY      -0.2046    XYY     -10.3657
       YYY      -0.5872    XXZ     -12.7165    XYZ       0.0202
       YYZ     -14.8509    XZZ      -2.9866    YZZ      -0.1768
       ZZZ     -52.1640
    Hexadecapole Moments (Debye-Ang^3)
      XXXX    -329.4549   XXXY      -0.3766   XXYY    -106.9772
      XYYY      -0.4141   YYYY    -309.1388   XXXZ      -5.4244
      XXYZ       0.0965   XYYZ       0.7080   YYYZ       0.3270
      XXZZ    -136.0894   XYZZ      -0.1269   YYZZ    -142.3434
      XZZZ       6.7334   YZZZ       0.2941   ZZZZ    -502.1803
 -----------------------------------------------------------------
 Total job time:  83.44s(wall), 82.92s(cpu) 
 Wed May 29 17:05:15 2013

        *************************************************************
        *                                                           *
        *  Thank you very much for using Q-Chem.  Have a nice day.  *
        *                                                           *
        *************************************************************


0 sent ACK to 0 
now end server 0 ... 
 
**********************************************************************
Job 2 of 3 
**********************************************************************
 
Process 0 of 1 is on cl008.stfx.acenet.ca - thread support 1
initial socket setup ...start
initial socket setup ...done 
now start server 0 ... 

cmd = /usr/bin/ssh clhead /usr/local/qchem/bin/get_hostid 337928720 > /scratch/tmp/6022136.1.short.q/qchem7164/lic.dat
                  Welcome to Q-Chem
     A Quantum Leap Into The Future Of Chemistry

 Y. Shao, L. Fusti-Molnar, Y. Jung, J. Kussmann, C. Ochsenfeld,
 S. T. Brown, A. T. B. Gilbert, L. V. Slipchenko,S. V. Levchenko,
 D. P. O'Neill, R. A. DiStasio Jr., R. C. Lochan, T. Wang,
 G. J. O. Beran, N. A. Besley, J. M. Herbert, C. Y. Lin,
 T. Van Voorhis, S. H. Chien, A. Sodt, R. P. Steele, 
 V. A. Rassolov, P. E. Maslen, P. P. Korambath, R. D. Adamson,
 B. Austin, J. Baker, E. F. C. Byrd, H. Dachsel, R. J. Doerksen,
 A. Dreuw, B. D. Dunietz, A. D. Dutoi, T. R. Furlani,
 S. R. Gwaltney, A. Heyden, S. Hirata, C.-P. Hsu, G. Kedziora,
 R. Z. Khaliullin, P. Klunzinger, A. M. Lee, M. S. Lee, W. Liang,
 I. Lotan, N. Nair, B. Peters, E. I. Proynov, P. A. Pieniazek, 
 Y. M. Rhee, J. Ritchie, E. Rosta, C. D. Sherrill, 
 A. C. Simmonett, J. E. Subotnik, H. L. Woodcock III,
 W. Zhang, A. T. Bell, A. K. Chakraborty, D. M. Chipman,
 F. J. Keil, A. Warshel, W. J. Hehre, H. F. Schaefer III,
 J. Kong, A. I. Krylov, P. M. W. Gill, M. Head-Gordon,
 Q-Chem, Version 3.1, Q-Chem, Inc., Pittsburgh, PA (2007).

 Additional authors for Version 3.1: 
 Z. Gan, Y. Zhao, N. E. Schultz, D. Truhlar, E. Epifanovsky and M. Oana.

 Additional authors for Version 3.2: 
 R. Baer, B. R. Brooks, D. Casanova, J.-D. Chai, C.-L. Cheng, 
 C. Cramer, D. Crittenden, A. Ghysels, G. Hawkins, E. G. Hohenstein, 
 C. Kelley, W. Kurlancheek, D. Liotard, E. Livshits, P. Manohar, 
 A. Marenich, D. Neuhauser, R. Olson, M. A. Rohrdanz, K. S. Thanthiriwatte, 
 A. J. W. Thom, V. Vanovschi, C. F. Williams, Q. Wu and Z.-Q. You. 


 Intel X86 Linux Version

 Q-chem begins on Wed May 29 17:05:18 2013  

 Parallel job on  1  processors
Processing $rem in /usr/local/qchem/config/preferences.

theFileMan(): MAXOPENFILES=974 MAX_SUB_FILE_NUM=16
Maximum size of a physical file is 2.0 GB, maximum size of a tmp-file is 32.0 GB


--------------------------------------------------------------
User input:
--------------------------------------------------------------

$molecule
0,1
C          0.00330        0.00000        0.01264
S          0.00259        0.00000        1.81020
H          1.32804        0.00000        1.98171
H         -1.04144        0.00000       -0.29717
H          0.48038        0.89273       -0.38851
H          0.48038       -0.89273       -0.38850
$end

$comment
neutral
$end

$xc_functional
C PBE   1.00
X wPBE  1.00
$end


$rem
SYMMETRY_DECOMPOSITION	0
LRC_DFT                 true
exchange 		general
BASIS                   g3large
omega			380
mem_static              760
max_scf_cycles          200
scf_final_print         1
sym_ignore              true
$end

--------------------------------------------------------------
 Writing REM_CC_EA            6
 ----------------------------------------------------
       Standard Nuclear Orientation (Angstroms)
    I     Atom         X            Y            Z
 ----------------------------------------------------
    1      C       0.003300     0.000000     0.012640
    2      S       0.002590     0.000000     1.810200
    3      H       1.328040     0.000000     1.981710
    4      H      -1.041440     0.000000    -0.297170
    5      H       0.480380     0.892730    -0.388510
    6      H       0.480380    -0.892730    -0.388500
 ----------------------------------------------------
 Nuclear Repulsion Energy =    56.7282423558 hartrees
 There are       13 alpha and       13 beta electrons
 Requested basis set is G3large
 There are 53 shells and 148 basis functions

Total QAlloc Memory Limit   2000 MB
Mega-Array Size       743 MB
MEM_STATIC part       760 MB

                       Distance Matrix (Angstroms)
             C (  1)   S (  2)   H (  3)   H (  4)   H (  5)
   S (  2)  1.797560
   H (  3)  2.373220  1.336500
   H (  4)  1.089708  2.351809  3.287511
   H (  5)  1.088804  2.420656  2.670850  1.766705
   H (  6)  1.088800  2.420647  2.670841  1.766704  1.785460
 
 A cutoff of  1.0D-08 yielded   1382 shell pairs
 There are  10875 function pairs ( 13912 Cartesian)
Evaluating contribution to one-electron hamiltonian from nuclear
 Smallest overlap matrix eigenvalue = 3.53E-04
 Multipole matrices computed through 2nd order

  Scale SEOQF with 1.000000e-01/1.000000e-01/1.000000e-01

 Standard Electronic Orientation quadrupole field applied
 Nucleus-field energy     =    -0.0000000058 hartrees
 Guess from superposition of atomic densities
 Warning:  Energy on first SCF cycle will be non-variational
 Long-range K will be added via erf
 Coulomb attenuation parameter = 0.38 bohr**(-1)
 A restricted Kohn-Sham SCF calculation will be
 performed using Pulay DIIS extrapolation
 Exchange:  wPBE + LR-HF      Correlation:  PBE
 Using SG-1 standard quadrature grid
 SCF converges when DIIS error is below 1.0E-05
 Requested basis set is G3large
 There are 53 shells and 148 basis functions
 A cutoff of  1.0D-08 yielded   1382 shell pairs
 There are  10875 function pairs ( 13912 Cartesian)
 ---------------------------------------
  Cycle       Energy         DIIS Error
 ---------------------------------------
    1    -438.8090428902      3.06E-02
    2    -438.5477599800      2.32E-03
    3    -438.5642516848      1.02E-03
    4    -438.5665506037      2.47E-04
    5    -438.5667960732      8.93E-05
    6    -438.5668361477      3.56E-05
    7    -438.5668442900      1.15E-05
    8    -438.5668461012      4.12E-06 Convergence criterion met
 ---------------------------------------
 One-Electron    Energy =  -716.3302693133
 Total Coulomb   Energy =   253.4802490668
 Alpha Exchange  Energy =    -2.5195786327
 Beta  Exchange  Energy =    -2.5195786327
 DFT   Exchange  Energy =   -26.4777660731
 DFT Correlation Energy =    -0.9281448662
 Nuclear Repu.   Energy =    56.7282423499
 Nuclear Attr.   Energy = -1154.1124287991
 Kinetic         Energy =   437.7821594858
 SCF time:  CPU 53.36 s  wall 54.21 s
 Final Alpha MO Eigenvalues
            1           2           3           4           5           6
    1 -88.2438164 -10.1187488  -7.8809495  -5.8982821  -5.8937860  -5.8870803
            7           8           9          10          11          12
    1  -0.9274428  -0.7792953  -0.5738768  -0.5537516  -0.5071422  -0.4447166
           13          14          15          16          17          18
    1  -0.3499749   0.0365643   0.0549137   0.0691218   0.0726921   0.0981952
 Analysis of SCF Wavefunction
 
 --------------------------------------------------------------
                    Orbital Energies (a.u.)
 --------------------------------------------------------------
 
 Alpha MOs
 -- Occupied --
-88.244 -10.119  -7.881  -5.898  -5.894  -5.887  -0.927  -0.779
 -0.574  -0.554  -0.507  -0.445  -0.350
 -- Virtual --
  0.037   0.055   0.069   0.073   0.098   0.121   0.131   0.136
  0.151   0.158   0.176   0.187   0.191   0.215   0.242   0.245
  0.330   0.339   0.360   0.376   0.393   0.452   0.462   0.507
  0.510   0.529   0.549   0.631   0.639   0.647   0.715   0.744
  0.788   0.801   0.813   0.879   0.933   0.953   0.970   0.985
  1.014   1.016   1.078   1.102   1.110   1.170   1.205   1.209
  1.250   1.318   1.320   1.336   1.366   1.385   1.427   1.492
  1.501   1.502   1.516   1.574   1.581   1.653   1.730   1.972
  2.149   2.188   2.544   2.577   2.633   2.916   3.018   3.033
  3.086   3.142   3.260   3.276   3.285   3.319   3.348   3.468
  3.500   3.593   3.609   3.628   3.633   3.673   3.711   3.740
  3.913   3.965   3.986   4.025   4.087   4.166   4.237   4.249
  4.415   4.428   4.443   4.473   4.518   4.682   4.889   4.893
  5.069   5.226   5.616   5.718   5.737   8.401  17.125  17.282
 17.392  23.543  23.567  23.598  23.614  23.775  24.122  27.865
 28.049  28.049  30.908  30.911  30.914  30.917  30.920  30.934
 30.941  40.918  40.946  41.157  41.187  41.239 188.925
 --------------------------------------------------------------
 
          Ground-State Mulliken Net Atomic Charges

     Atom                 Charge (a.u.)
  ----------------------------------------
      1 C                    -0.031802
      2 S                    -0.317987
      3 H                     0.103290
      4 H                     0.082640
      5 H                     0.081921
      6 H                     0.081938
  ----------------------------------------
  Sum of atomic charges =     0.000000

 -----------------------------------------------------------------
                    Cartesian Multipole Moments
 -----------------------------------------------------------------
    Charge (ESU x 10^10)
                 0.0000
    Dipole Moment (Debye)
         X       0.7494      Y      -0.0002      Z      -1.4358
       Tot       1.6196
    Quadrupole Moments (Debye-Ang)
        XX     -19.0040     XY       0.0001     YY     -22.4732
        XZ       2.0832     YZ      -0.0002     ZZ     -23.5019
    Octapole Moments (Debye-Ang^2)
       XXX      -1.8979    XXY      -0.0009    XYY      -0.2787
       YYY      -0.0007    XXZ     -21.6909    XYZ       0.0002
       YYZ     -28.6311    XZZ       4.0642    YZZ       0.0010
       ZZZ     -75.6171
    Hexadecapole Moments (Debye-Ang^3)
      XXXX     -34.2428   XXXY      -0.0003   XXYY     -12.6584
      XYYY       0.0001   YYYY     -36.7910   XXXZ      -1.0398
      XXYZ      -0.0019   XYYZ      -2.1917   YYYZ      -0.0013
      XXZZ     -51.4218   XYZZ       0.0004   YYZZ     -64.4890
      XZZZ       6.2794   YZZZ       0.0048   ZZZZ    -302.1820
 -----------------------------------------------------------------
 Total job time:  54.40s(wall), 53.55s(cpu) 
 Wed May 29 17:06:12 2013

        *************************************************************
        *                                                           *
        *  Thank you very much for using Q-Chem.  Have a nice day.  *
        *                                                           *
        *************************************************************


0 sent ACK to 0 
now end server 0 ... 
 
**********************************************************************
Job 3 of 3 
**********************************************************************
 
Process 0 of 1 is on cl008.stfx.acenet.ca - thread support 1
initial socket setup ...start
initial socket setup ...done 
now start server 0 ... 

cmd = /usr/bin/ssh clhead /usr/local/qchem/bin/get_hostid 948258466 > /scratch/tmp/6022136.1.short.q/qchem7164/lic.dat
                  Welcome to Q-Chem
     A Quantum Leap Into The Future Of Chemistry

 Y. Shao, L. Fusti-Molnar, Y. Jung, J. Kussmann, C. Ochsenfeld,
 S. T. Brown, A. T. B. Gilbert, L. V. Slipchenko,S. V. Levchenko,
 D. P. O'Neill, R. A. DiStasio Jr., R. C. Lochan, T. Wang,
 G. J. O. Beran, N. A. Besley, J. M. Herbert, C. Y. Lin,
 T. Van Voorhis, S. H. Chien, A. Sodt, R. P. Steele, 
 V. A. Rassolov, P. E. Maslen, P. P. Korambath, R. D. Adamson,
 B. Austin, J. Baker, E. F. C. Byrd, H. Dachsel, R. J. Doerksen,
 A. Dreuw, B. D. Dunietz, A. D. Dutoi, T. R. Furlani,
 S. R. Gwaltney, A. Heyden, S. Hirata, C.-P. Hsu, G. Kedziora,
 R. Z. Khaliullin, P. Klunzinger, A. M. Lee, M. S. Lee, W. Liang,
 I. Lotan, N. Nair, B. Peters, E. I. Proynov, P. A. Pieniazek, 
 Y. M. Rhee, J. Ritchie, E. Rosta, C. D. Sherrill, 
 A. C. Simmonett, J. E. Subotnik, H. L. Woodcock III,
 W. Zhang, A. T. Bell, A. K. Chakraborty, D. M. Chipman,
 F. J. Keil, A. Warshel, W. J. Hehre, H. F. Schaefer III,
 J. Kong, A. I. Krylov, P. M. W. Gill, M. Head-Gordon,
 Q-Chem, Version 3.1, Q-Chem, Inc., Pittsburgh, PA (2007).

 Additional authors for Version 3.1: 
 Z. Gan, Y. Zhao, N. E. Schultz, D. Truhlar, E. Epifanovsky and M. Oana.

 Additional authors for Version 3.2: 
 R. Baer, B. R. Brooks, D. Casanova, J.-D. Chai, C.-L. Cheng, 
 C. Cramer, D. Crittenden, A. Ghysels, G. Hawkins, E. G. Hohenstein, 
 C. Kelley, W. Kurlancheek, D. Liotard, E. Livshits, P. Manohar, 
 A. Marenich, D. Neuhauser, R. Olson, M. A. Rohrdanz, K. S. Thanthiriwatte, 
 A. J. W. Thom, V. Vanovschi, C. F. Williams, Q. Wu and Z.-Q. You. 


 Intel X86 Linux Version

 Q-chem begins on Wed May 29 17:06:15 2013  

 Parallel job on  1  processors
Processing $rem in /usr/local/qchem/config/preferences.

theFileMan(): MAXOPENFILES=974 MAX_SUB_FILE_NUM=16
Maximum size of a physical file is 2.0 GB, maximum size of a tmp-file is 32.0 GB


--------------------------------------------------------------
User input:
--------------------------------------------------------------

$molecule
1,2
C          0.00330        0.00000        0.01264
S          0.00259        0.00000        1.81020
H          1.32804        0.00000        1.98171
H         -1.04144        0.00000       -0.29717
H          0.48038        0.89273       -0.38851
H          0.48038       -0.89273       -0.38850
$end

$comment
positive
$end

$xc_functional
C PBE   1.00
X wPBE  1.00
$end

$rem
SYMMETRY_DECOMPOSITION	0
LRC_DFT                 true
exchange 		general
BASIS                   g3large
omega			380
mem_static              760
max_scf_cycles          200
scf_final_print         1
sym_ignore              true
$end

--------------------------------------------------------------
 Writing REM_CC_EA            6
 ----------------------------------------------------
       Standard Nuclear Orientation (Angstroms)
    I     Atom         X            Y            Z
 ----------------------------------------------------
    1      C       0.003300     0.000000     0.012640
    2      S       0.002590     0.000000     1.810200
    3      H       1.328040     0.000000     1.981710
    4      H      -1.041440     0.000000    -0.297170
    5      H       0.480380     0.892730    -0.388510
    6      H       0.480380    -0.892730    -0.388500
 ----------------------------------------------------
 Nuclear Repulsion Energy =    56.7282423558 hartrees
 There are       13 alpha and       12 beta electrons
 Requested basis set is G3large
 There are 53 shells and 148 basis functions

Total QAlloc Memory Limit   2000 MB
Mega-Array Size       743 MB
MEM_STATIC part       760 MB

                       Distance Matrix (Angstroms)
             C (  1)   S (  2)   H (  3)   H (  4)   H (  5)
   S (  2)  1.797560
   H (  3)  2.373220  1.336500
   H (  4)  1.089708  2.351809  3.287511
   H (  5)  1.088804  2.420656  2.670850  1.766705
   H (  6)  1.088800  2.420647  2.670841  1.766704  1.785460
 
 A cutoff of  1.0D-08 yielded   1382 shell pairs
 There are  10875 function pairs ( 13912 Cartesian)
Evaluating contribution to one-electron hamiltonian from nuclear
 Smallest overlap matrix eigenvalue = 3.53E-04
 Multipole matrices computed through 2nd order

  Scale SEOQF with 1.000000e-01/1.000000e-01/1.000000e-01

 Standard Electronic Orientation quadrupole field applied
 Nucleus-field energy     =    -0.0000000058 hartrees
 Guess from superposition of atomic densities
 Warning:  Energy on first SCF cycle will be non-variational
 Long-range K will be added via erf
 Coulomb attenuation parameter = 0.38 bohr**(-1)
 An unrestricted Kohn-Sham SCF calculation will be
 performed using Pulay DIIS extrapolation
 Exchange:  wPBE + LR-HF      Correlation:  PBE
 Using SG-1 standard quadrature grid
 SCF converges when DIIS error is below 1.0E-05
 Requested basis set is G3large
 There are 53 shells and 148 basis functions
 A cutoff of  1.0D-08 yielded   1382 shell pairs
 There are  10875 function pairs ( 13912 Cartesian)
 Warning!  Inaccurate integrated density:
   Number of electrons =    25
   Numerical integral  =    26.000046506408
   Relative error      =     4.0001860256 %
 ---------------------------------------
  Cycle       Energy         DIIS Error
 ---------------------------------------
    1    -438.8090428902      3.06E-02
    2    -438.1607157381      3.36E-03
    3    -438.2075022866      1.74E-03
    4    -438.2159128496      4.14E-04
    5    -438.2178587084      1.89E-04
    6    -438.2186859098      1.18E-04
    7    -438.2192929406      6.69E-05
    8    -438.2195929585      3.23E-05
    9    -438.2196700320      1.52E-05
   10    -438.2196864255      5.97E-06 Convergence criterion met
 ---------------------------------------
 One-Electron    Energy =  -708.3339940173
 Total Coulomb   Energy =   245.5263991689
 Alpha Exchange  Energy =    -2.5342424429
 Beta  Exchange  Energy =    -2.3470207016
 DFT   Exchange  Energy =   -26.3692621443
 DFT Correlation Energy =    -0.8898086384
 Nuclear Repu.   Energy =    56.7282423499
 Nuclear Attr.   Energy = -1145.7931687583
 Kinetic         Energy =   437.4591747411
 <S^2> = 0.7565
 SCF time:  CPU 82.65 s  wall 82.89 s
 Final Alpha MO Eigenvalues
            1           2           3           4           5           6
    1 -88.6112089 -10.3667106  -8.2428666  -6.2634581  -6.2554424  -6.2506557
            7           8           9          10          11          12
    1  -1.2374461  -1.0566163  -0.8512967  -0.8180727  -0.7739831  -0.7356755
           13          14          15          16          17          18
    1  -0.6976753  -0.1558211  -0.1286942  -0.0948437  -0.0751414  -0.0726635
 Final Beta MO Eigenvalues
            1           2           3           4           5           6
    1 -88.6060636 -10.3667172  -8.2379763  -6.2525554  -6.2486090  -6.2480040
            7           8           9          10          11          12
    1  -1.2066986  -1.0384606  -0.8419581  -0.7865694  -0.7694973  -0.7253552
           13          14          15          16          17
    1  -0.3414379  -0.1510565  -0.1182355  -0.0886454  -0.0719081
 Analysis of SCF Wavefunction
 
 --------------------------------------------------------------
                    Orbital Energies (a.u.)
 --------------------------------------------------------------
 
 Alpha MOs
 -- Occupied --
-88.611 -10.367  -8.243  -6.263  -6.255  -6.251  -1.237  -1.057
 -0.851  -0.818  -0.774  -0.736  -0.698
 -- Virtual --
 -0.156  -0.129  -0.095  -0.075  -0.073  -0.051  -0.033  -0.031
 -0.027  -0.023  -0.023   0.015   0.032   0.047   0.048   0.051
  0.053   0.114   0.122   0.154   0.182   0.225   0.246   0.262
  0.303   0.325   0.330   0.401   0.434   0.437   0.476   0.540
  0.551   0.554   0.569   0.609   0.669   0.687   0.696   0.722
  0.739   0.761   0.778   0.780   0.848   0.935   0.959   0.976
  1.004   1.045   1.073   1.075   1.112   1.136   1.176   1.237
  1.264   1.265   1.278   1.342   1.347   1.398   1.496   1.639
  1.854   1.891   2.302   2.338   2.397   2.643   2.766   2.779
  2.819   2.877   2.999   3.030   3.032   3.059   3.085   3.146
  3.147   3.288   3.290   3.337   3.373   3.388   3.417   3.419
  3.634   3.714   3.737   3.759   3.786   3.879   3.990   4.000
  4.126   4.175   4.189   4.218   4.277   4.324   4.555   4.568
  4.760   4.945   5.296   5.474   5.501   8.050  16.749  16.927
 17.037  23.174  23.201  23.230  23.256  23.423  23.871  27.615
 27.801  27.803  30.541  30.550  30.552  30.553  30.558  30.578
 30.587  40.669  40.699  40.909  40.939  40.991 188.560
 
 Beta MOs
 -- Occupied --
-88.606 -10.367  -8.238  -6.253  -6.249  -6.248  -1.207  -1.038
 -0.842  -0.787  -0.769  -0.725
 -- Virtual --
 -0.341  -0.151  -0.118  -0.089  -0.072  -0.070  -0.039  -0.031
 -0.025  -0.021  -0.019  -0.016   0.017   0.034   0.047   0.055
  0.058   0.085   0.116   0.147   0.168   0.192   0.232   0.250
  0.288   0.305   0.328   0.336   0.407   0.435   0.442   0.483
  0.542   0.557   0.563   0.577   0.630   0.683   0.694   0.715
  0.747   0.752   0.766   0.805   0.812   0.855   0.939   0.974
  0.984   1.009   1.069   1.085   1.087   1.121   1.140   1.190
  1.247   1.269   1.271   1.281   1.347   1.350   1.403   1.499
  1.685   1.860   1.900   2.308   2.341   2.400   2.644   2.771
  2.782   2.827   2.879   3.004   3.034   3.036   3.065   3.094
  3.173   3.193   3.320   3.323   3.346   3.375   3.401   3.430
  3.448   3.643   3.718   3.737   3.765   3.794   3.879   3.996
  4.005   4.131   4.181   4.193   4.222   4.282   4.340   4.571
  4.572   4.778   4.953   5.302   5.481   5.504   8.060  16.774
 16.931  17.041  23.185  23.212  23.241  23.261  23.425  23.871
 27.615  27.802  27.802  30.546  30.554  30.557  30.557  30.562
 30.580  30.588  40.669  40.699  40.909  40.938  40.992 188.565
 --------------------------------------------------------------
 
          Ground-State Mulliken Net Atomic Charges

     Atom                 Charge (a.u.)    Spin (a.u.)
  --------------------------------------------------------
      1 C                     0.045167      -0.020189
      2 S                     0.355379       0.971600
      3 H                     0.184347      -0.022414
      4 H                     0.133322       0.001020
      5 H                     0.140920       0.035076
      6 H                     0.140865       0.034908
  --------------------------------------------------------
  Sum of atomic charges =     1.000000
  Sum of spin   charges =     1.000000

 -----------------------------------------------------------------
                    Cartesian Multipole Moments
 -----------------------------------------------------------------
    Charge (ESU x 10^10)
                 4.8032
    Dipole Moment (Debye)
         X       1.2759      Y      -0.0004      Z       5.1653
       Tot       5.3205
    Quadrupole Moments (Debye-Ang)
        XX     -14.9651     XY       0.0000     YY     -16.5933
        XZ       2.9051     YZ      -0.0023     ZZ      -6.3321
    Octapole Moments (Debye-Ang^2)
       XXX      -0.4330    XXY      -0.0007    XYY       0.2863
       YYY      -0.0004    XXZ     -16.2268    XYZ      -0.0004
       YYZ     -20.1657    XZZ       5.9386    YZZ      -0.0051
       ZZZ     -37.9411
    Hexadecapole Moments (Debye-Ang^3)
      XXXX     -23.1585   XXXY      -0.0001   XXYY      -8.6388
      XYYY       0.0002   YYYY     -22.1090   XXXZ       2.5049
      XXYZ      -0.0018   XYYZ      -2.0546   YYYZ      -0.0025
      XXZZ     -36.9604   XYZZ      -0.0008   YYZZ     -43.1410
      XZZZ       9.9324   YZZZ      -0.0145   ZZZZ    -200.4981
 -----------------------------------------------------------------
 Total job time:  83.08s(wall), 82.82s(cpu) 
 Wed May 29 17:07:38 2013

        *************************************************************
        *                                                           *
        *  Thank you very much for using Q-Chem.  Have a nice day.  *
        *                                                           *
        *************************************************************


0 sent ACK to 0 
now end server 0 ... 
