Process 0 of 1 is on cl122 - thread support 1
initial socket setup ...start
initial socket setup ...done 
now start server 0 ... 

cmd = /usr/bin/ssh clhead /usr/local/qchem/bin/get_hostid 221330842 > /tmp/1601964.1.medium.q/qchem32097/lic.dat

cmd = /usr/bin/ssh clhead /usr/local/qchem/bin/get_hostid 221330842 > /tmp/1601964.1.medium.q/qchem32097/lic.dat

cmd = /usr/bin/ssh clhead /usr/local/qchem/bin/get_hostid 221330842 > /tmp/1601964.1.medium.q/qchem32097/lic.dat

cmd = /usr/bin/ssh clhead /usr/local/qchem/bin/get_hostid 221330842 > /tmp/1601964.1.medium.q/qchem32097/lic.dat

cmd = /usr/bin/ssh clhead /usr/local/qchem/bin/get_hostid 221330842 > /tmp/1601964.1.medium.q/qchem32097/lic.dat
                  Welcome to Q-Chem
     A Quantum Leap Into The Future Of Chemistry

 Y. Shao, L. Fusti-Molnar, Y. Jung, J. Kussmann, C. Ochsenfeld,
 S. T. Brown, A. T. B. Gilbert, L. V. Slipchenko,S. V. Levchenko,
 D. P. O'Neill, R. A. DiStasio Jr., R. C. Lochan, T. Wang,
 G. J. O. Beran, N. A. Besley, J. M. Herbert, C. Y. Lin,
 T. Van Voorhis, S. H. Chien, A. Sodt, R. P. Steele, 
 V. A. Rassolov, P. E. Maslen, P. P. Korambath, R. D. Adamson,
 B. Austin, J. Baker, E. F. C. Byrd, H. Dachsel, R. J. Doerksen,
 A. Dreuw, B. D. Dunietz, A. D. Dutoi, T. R. Furlani,
 S. R. Gwaltney, A. Heyden, S. Hirata, C.-P. Hsu, G. Kedziora,
 R. Z. Khaliullin, P. Klunzinger, A. M. Lee, M. S. Lee, W. Liang,
 I. Lotan, N. Nair, B. Peters, E. I. Proynov, P. A. Pieniazek, 
 Y. M. Rhee, J. Ritchie, E. Rosta, C. D. Sherrill, 
 A. C. Simmonett, J. E. Subotnik, H. L. Woodcock III,
 W. Zhang, A. T. Bell, A. K. Chakraborty, D. M. Chipman,
 F. J. Keil, A. Warshel, W. J. Hehre, H. F. Schaefer III,
 J. Kong, A. I. Krylov, P. M. W. Gill, M. Head-Gordon,
 Q-Chem, Version 3.1, Q-Chem, Inc., Pittsburgh, PA (2007).

 Additional authors for Version 3.1: 
 Z. Gan, Y. Zhao, N. E. Schultz, D. Truhlar, E. Epifanovsky and M. Oana.

 Additional authors for Version 3.2: 
 R. Baer, B. R. Brooks, D. Casanova, J.-D. Chai, C.-L. Cheng, 
 C. Cramer, D. Crittenden, A. Ghysels, G. Hawkins, E. G. Hohenstein, 
 C. Kelley, W. Kurlancheek, D. Liotard, E. Livshits, P. Manohar, 
 A. Marenich, D. Neuhauser, R. Olson, M. A. Rohrdanz, K. S. Thanthiriwatte, 
 A. J. W. Thom, V. Vanovschi, C. F. Williams, Q. Wu and Z.-Q. You. 


 Intel X86 Linux Version

 Q-chem begins on Thu Mar 20 02:49:42 2014  

 Parallel job on  1  processors
Processing $rem in /usr/local/qchem/config/preferences.

theFileMan(): MAXOPENFILES=974 MAX_SUB_FILE_NUM=16
Maximum size of a physical file is 2.0 GB, maximum size of a tmp-file is 32.0 GB


--------------------------------------------------------------
User input:
--------------------------------------------------------------

$molecule
-1,2
C         -0.00006        0.00015        0.99980
C          1.26532        0.76004        0.98857
C          1.26516       -0.76001        0.98799
C         -1.27231       -0.00021        0.25137
C         -1.25820        0.00027        1.77153
H          1.57504        1.26150        1.90176
H          1.55860        1.26345        0.07108
H          1.57486       -1.26190        1.90095
H          1.55826       -1.26313        0.07027
H         -1.57794       -0.91602       -0.24774
H         -1.57802        0.91521       -0.24839
H         -1.55535       -0.91513        2.27650
H         -1.55537        0.91578        2.27629
$end

$comment
negative
$end

$xc_functional
C PBE   1.00
X wPBE  1.00
$end

$rem
SYMMETRY_DECOMPOSITION	0
exchange 		general
LRC_DFT                 true
BASIS                   g3large
omega			260
mem_static              760
max_scf_cycles          200
scf_final_print         1
sym_ignore              true
$end

--------------------------------------------------------------
 Writing REM_CC_EA           13
 ----------------------------------------------------
       Standard Nuclear Orientation (Angstroms)
    I     Atom         X            Y            Z
 ----------------------------------------------------
    1      C      -0.000060     0.000150     0.999800
    2      C       1.265320     0.760040     0.988570
    3      C       1.265160    -0.760010     0.987990
    4      C      -1.272310    -0.000210     0.251370
    5      C      -1.258200     0.000270     1.771530
    6      H       1.575040     1.261500     1.901760
    7      H       1.558600     1.263450     0.071080
    8      H       1.574860    -1.261900     1.900950
    9      H       1.558260    -1.263130     0.070270
   10      H      -1.577940    -0.916020    -0.247740
   11      H      -1.578020     0.915210    -0.248390
   12      H      -1.555350    -0.915130     2.276500
   13      H      -1.555370     0.915780     2.276290
 ----------------------------------------------------
 Nuclear Repulsion Energy =   170.9200549349 hartrees
 There are       20 alpha and       19 beta electrons
 Requested basis set is G3large
 There are 98 shells and 290 basis functions

Total QAlloc Memory Limit   2000 MB
Mega-Array Size       743 MB
MEM_STATIC part       760 MB

                       Distance Matrix (Angstroms)
             C (  1)   C (  2)   C (  3)   C (  4)   C (  5)   H (  6)
   C (  2)  1.476057
   C (  3)  1.476064  1.520050
   C (  4)  1.476065  2.749729  2.749302
   C (  5)  1.475969  2.749260  2.749419  1.520226
   H (  6)  2.210311  1.086878  2.239979  3.524642  3.104015
   H (  7)  2.210852  1.086841  2.240808  3.105381  3.524417  1.830755
   H (  8)  2.210252  2.239753  1.086878  3.524110  3.104199  2.523400
   H (  9)  2.210942  2.241050  1.086852  3.104817  3.524615  3.119037
   H ( 10)  2.210301  3.524453  3.103963  1.086843  2.240373  4.393544
   H ( 11)  2.210265  3.104630  3.524013  1.086836  2.240419  3.832082
   H ( 12)  2.210572  3.524363  3.104770  2.240166  1.086853  3.831121
   H ( 13)  2.210609  3.104637  3.524681  2.240416  1.086854  3.171634
             H (  7)   H (  8)   H (  9)   H ( 10)   H ( 11)   H ( 12)
   H (  8)  3.118667
   H (  9)  2.526580  1.830756
   H ( 10)  3.832704  3.831012  3.171335
   H ( 11)  3.172021  4.393190  3.831835  1.831230
   H ( 12)  4.393947  3.171672  3.831856  2.524341  3.118610
   H ( 13)  3.831532  3.831646  4.394185  3.118770  2.524782  1.830910

 
 A cutoff of  1.0D-08 yielded   4435 shell pairs
 There are  39245 function pairs ( 48051 Cartesian)
Evaluating contribution to one-electron hamiltonian from nuclear
 Smallest overlap matrix eigenvalue = 2.59E-05

 Q-Chem warning in module mkSTV.C, line 194:

 Overlap eigenvalue is smaller than square root of threshold

 Multipole matrices computed through 2nd order

  Scale SEOQF with 1.000000e-01/1.000000e-01/1.000000e-01

 Standard Electronic Orientation quadrupole field applied
 Nucleus-field energy     =    -0.0000000026 hartrees
 Guess from superposition of atomic densities
 Warning:  Energy on first SCF cycle will be non-variational
 Long-range K will be added via erf
 Coulomb attenuation parameter = 0.26 bohr**(-1)
 An unrestricted Kohn-Sham SCF calculation will be
 performed using Pulay DIIS extrapolation
 Exchange:  wPBE + LR-HF      Correlation:  PBE
 Using SG-1 standard quadrature grid
 SCF converges when DIIS error is below 1.0E-05
 Requested basis set is G3large
 There are 98 shells and 290 basis functions
 A cutoff of  1.0D-08 yielded   4435 shell pairs
 There are  39245 function pairs ( 48051 Cartesian)
 Warning!  Inaccurate integrated density:
   Number of electrons =    39
   Numerical integral  =    37.999764099938
   Relative error      =    -2.5647074361 %
 ---------------------------------------
  Cycle       Energy         DIIS Error
 ---------------------------------------
    1    -196.8670657150      2.88E-02
    2    -194.8919112861      3.52E-03
    3    -194.9552534048      3.72E-03
    4    -195.1047377817      4.05E-04
    5    -195.1109659025      2.43E-04
    6    -195.1133425530      7.12E-05
    7    -195.1143029100      3.37E-05
    8    -195.1147687299      2.28E-05
    9    -195.1150572809      1.90E-05
   10    -195.1153271158      1.37E-05
   11    -195.1155212128      9.92E-06 Convergence criterion met
 ---------------------------------------
 One-Electron    Energy =  -604.2532737945
 Total Coulomb   Energy =   268.2856645830
 Alpha Exchange  Energy =    -2.6642231274
 Beta  Exchange  Energy =    -2.6061418619
 DFT   Exchange  Energy =   -23.5453413281
 DFT Correlation Energy =    -1.2522606163
 Nuclear Repu.   Energy =   170.9200549324
 Nuclear Attr.   Energy =  -798.5440845816
 Kinetic         Energy =   194.2908107870
 <S^2> = 0.7501
 SCF time:  CPU 502.40 s  wall 505.64 s
 Final Alpha MO Eigenvalues
            1           2           3           4           5           6
    1  -9.9163665  -9.9080362  -9.9007758  -9.9006746  -9.8999343  -0.8376569
            7           8           9          10          11          12
    1  -0.7562037  -0.5637749  -0.5598489  -0.5016016  -0.4461824  -0.4355784
           13          14          15          16          17          18
    1  -0.4314286  -0.3277000  -0.3140028  -0.3122248  -0.2466023  -0.2453180
           19          20          21          22          23          24
    1  -0.2351059   0.0322492   0.1277383   0.1281269   0.1292184   0.1574081
           25
    1   0.1575024
 Final Beta MO Eigenvalues
            1           2           3           4           5           6
    1  -9.9163735  -9.9079467  -9.9004992  -9.9004419  -9.8996759  -0.8375555
            7           8           9          10          11          12
    1  -0.7560254  -0.5631629  -0.5590642  -0.5008587  -0.4455842  -0.4352753
           13          14          15          16          17          18
    1  -0.4308498  -0.3273160  -0.3134531  -0.3118222  -0.2463030  -0.2450434
           19          20          21          22          23          24
    1  -0.2345794   0.1252999   0.1387312   0.1404606   0.1440987   0.1592165
 Analysis of SCF Wavefunction
 
 --------------------------------------------------------------
                    Orbital Energies (a.u.)
 --------------------------------------------------------------
 
 Alpha MOs
 -- Occupied --
 -9.916  -9.908  -9.901  -9.901  -9.900  -0.838  -0.756  -0.564
 -0.560  -0.502  -0.446  -0.436  -0.431  -0.328  -0.314  -0.312
 -0.247  -0.245  -0.235   0.032
 -- Virtual --
  0.128   0.128   0.129   0.157   0.158   0.162   0.180   0.189
  0.217   0.243   0.245   0.253   0.260   0.263   0.263   0.278
  0.281   0.286   0.295   0.307   0.307   0.320   0.331   0.333
  0.336   0.337   0.349   0.349   0.364   0.405   0.407   0.411
  0.440   0.455   0.461   0.472   0.491   0.523   0.524   0.535
  0.541   0.597   0.645   0.661   0.663   0.668   0.689   0.693
  0.724   0.745   0.747   0.766   0.774   0.781   0.792   0.793
  0.809   0.809   0.827   0.835   0.846   0.849   0.854   0.869
  0.901   0.952   0.995   0.996   1.001   1.019   1.047   1.076
  1.100   1.109   1.110   1.178   1.230   1.232   1.256   1.284
  1.303   1.304   1.311   1.328   1.332   1.369   1.378   1.379
  1.434   1.436   1.492   1.497   1.501   1.521   1.544   1.547
  1.568   1.572   1.595   1.601   1.605   1.643   1.645   1.662
  1.667   1.691   1.740   1.754   1.757   1.771   1.781   1.785
  1.788   1.845   1.951   1.984   1.985   2.013   2.648   2.652
  2.730   2.771   2.799   2.801   2.820   2.833   2.864   2.865
  2.873   2.920   2.959   2.960   3.005   3.060   3.075   3.076
  3.082   3.111   3.166   3.168   3.186   3.190   3.241   3.242
  3.259   3.260   3.271   3.305   3.309   3.349   3.374   3.405
  3.406   3.426   3.456   3.521   3.521   3.531   3.563   3.565
  3.617   3.618   3.627   3.644   3.675   3.676   3.722   3.723
  3.737   3.776   3.776   3.791   3.865   3.961   3.989   4.040
  4.057   4.059   4.115   4.117   4.143   4.230   4.277   4.279
  4.282   4.285   4.315   4.319   4.407   4.432   4.438   4.441
  4.520   4.523   4.527   4.535   4.538   4.578   4.580   4.669
  4.670   4.698   4.702   4.707   4.739   4.779   4.882   4.901
  5.074   5.077   5.145   5.147   5.267   5.433   5.561   5.620
  5.622   5.664   5.770   5.777   5.781   5.814   5.922   5.925
  5.955  24.201  24.223  24.475  24.478  24.548  27.578  27.638
 27.690  27.692  28.076  28.167  28.194  28.196  28.212  28.237
 28.238  28.251  28.638  28.642  29.078  40.955  40.972  40.993
 41.055  41.063  41.066  41.068  41.107  41.109  41.112  41.230
 41.236  41.237  41.242  41.244  41.255  41.277  41.290  41.337
 41.342  41.349  41.351  41.371  41.442  41.443
 
 Beta MOs
 -- Occupied --
 -9.916  -9.908  -9.900  -9.900  -9.900  -0.838  -0.756  -0.563
 -0.559  -0.501  -0.446  -0.435  -0.431  -0.327  -0.313  -0.312
 -0.246  -0.245  -0.235
 -- Virtual --
  0.125   0.139   0.140   0.144   0.159   0.164   0.168   0.182
  0.188   0.216   0.240   0.241   0.247   0.256   0.259   0.259
  0.277   0.278   0.285   0.294   0.305   0.306   0.316   0.327
  0.329   0.331   0.332   0.345   0.346   0.363   0.403   0.407
  0.409   0.439   0.454   0.460   0.468   0.489   0.520   0.521
  0.533   0.540   0.596   0.644   0.659   0.661   0.666   0.688
  0.692   0.722   0.744   0.746   0.765   0.773   0.779   0.791
  0.793   0.807   0.808   0.825   0.834   0.844   0.847   0.852
  0.869   0.900   0.952   0.996   0.996   1.002   1.020   1.047
  1.076   1.101   1.109   1.110   1.178   1.230   1.232   1.256
  1.283   1.304   1.305   1.312   1.328   1.332   1.369   1.378
  1.379   1.434   1.437   1.492   1.497   1.501   1.521   1.544
  1.547   1.568   1.571   1.595   1.602   1.605   1.643   1.645
  1.663   1.668   1.691   1.740   1.754   1.757   1.771   1.781
  1.786   1.788   1.846   1.951   1.984   1.986   2.014   2.648
  2.652   2.730   2.771   2.799   2.801   2.821   2.833   2.864
  2.865   2.873   2.920   2.959   2.960   3.005   3.061   3.075
  3.077   3.082   3.111   3.167   3.168   3.186   3.191   3.241
  3.243   3.260   3.261   3.271   3.305   3.310   3.350   3.375
  3.405   3.406   3.426   3.456   3.521   3.522   3.532   3.563
  3.565   3.617   3.619   3.627   3.645   3.675   3.676   3.723
  3.723   3.737   3.776   3.776   3.791   3.865   3.961   3.990
  4.040   4.057   4.059   4.115   4.117   4.143   4.231   4.277
  4.279   4.282   4.286   4.316   4.319   4.407   4.432   4.438
  4.441   4.520   4.524   4.528   4.535   4.538   4.578   4.580
  4.669   4.670   4.698   4.703   4.707   4.739   4.779   4.882
  4.901   5.075   5.077   5.145   5.148   5.267   5.433   5.561
  5.620   5.622   5.664   5.770   5.777   5.781   5.814   5.923
  5.926   5.956  24.201  24.223  24.475  24.479  24.548  27.578
 27.638  27.690  27.692  28.076  28.167  28.195  28.196  28.213
 28.238  28.238  28.252  28.639  28.643  29.079  40.955  40.972
 40.993  41.055  41.063  41.067  41.068  41.107  41.109  41.113
 41.230  41.236  41.237  41.242  41.244  41.255  41.277  41.291
 41.337  41.343  41.349  41.352  41.371  41.442  41.443
 --------------------------------------------------------------
 
          Ground-State Mulliken Net Atomic Charges

     Atom                 Charge (a.u.)    Spin (a.u.)
  --------------------------------------------------------
      1 C                    -3.579415       4.173767
      2 C                     3.107201      -3.469788
      3 C                    -0.302633      -0.004269
      4 C                     1.649055      -1.979802
      5 C                     1.297538      -1.627405
      6 H                    -0.562467       0.666332
      7 H                    -0.626236       0.732956
      8 H                    -0.028244       0.101588
      9 H                    -0.047346       0.123179
     10 H                    -0.134436       0.209339
     11 H                    -0.886075       1.001889
     12 H                    -0.102980       0.175337
     13 H                    -0.783963       0.896877
  --------------------------------------------------------
  Sum of atomic charges =    -1.000000
  Sum of spin   charges =     1.000000

 -----------------------------------------------------------------
                    Cartesian Multipole Moments
 -----------------------------------------------------------------
    Charge (ESU x 10^10)
                -4.8032
    Dipole Moment (Debye)
         X       2.0304      Y      -7.1026      Z      -4.2302
       Tot       8.5126
    Quadrupole Moments (Debye-Ang)
        XX     -72.8987     XY       1.9517     YY     -65.9570
        XZ       1.8025     YZ      -6.4270     ZZ     -64.3424
    Octapole Moments (Debye-Ang^2)
       XXX      30.9136    XXY     -43.6393    XYY      13.1693
       YYY     -96.7616    XXZ     -69.2934    XYZ       1.7535
       YYZ     -62.6527    XZZ      11.3362    YZZ     -44.5402
       ZZZ    -177.3406
    Hexadecapole Moments (Debye-Ang^3)
      XXXX   -1041.6996   XXXY      10.5886   XXYY    -289.4211
      XYYY      17.3527   YYYY    -608.2926   XXXZ      27.8856
      XXYZ     -40.1892   XYYZ      12.3642   YYYZ     -89.5759
      XXZZ    -331.6519   XYZZ      10.2374   YYZZ    -260.5915
      XZZZ      28.9113   YZZZ    -114.2241   ZZZZ    -847.9528
 -----------------------------------------------------------------
 Total job time:  506.09s(wall), 502.79s(cpu) 
 Thu Mar 20 02:58:08 2014

        *************************************************************
        *                                                           *
        *  Thank you very much for using Q-Chem.  Have a nice day.  *
        *                                                           *
        *************************************************************


0 sent ACK to 0 
now end server 0 ... 
 
**********************************************************************
Job 2 of 3 
**********************************************************************
 
Process 0 of 1 is on cl122 - thread support 1
initial socket setup ...start
initial socket setup ...done 
now start server 0 ... 

cmd = /usr/bin/ssh clhead /usr/local/qchem/bin/get_hostid 1890112092 > /tmp/1601964.1.medium.q/qchem32097/lic.dat

cmd = /usr/bin/ssh clhead /usr/local/qchem/bin/get_hostid 1890112092 > /tmp/1601964.1.medium.q/qchem32097/lic.dat

cmd = /usr/bin/ssh clhead /usr/local/qchem/bin/get_hostid 1890112092 > /tmp/1601964.1.medium.q/qchem32097/lic.dat

cmd = /usr/bin/ssh clhead /usr/local/qchem/bin/get_hostid 1890112092 > /tmp/1601964.1.medium.q/qchem32097/lic.dat

cmd = /usr/bin/ssh clhead /usr/local/qchem/bin/get_hostid 1890112092 > /tmp/1601964.1.medium.q/qchem32097/lic.dat
                  Welcome to Q-Chem
     A Quantum Leap Into The Future Of Chemistry

 Y. Shao, L. Fusti-Molnar, Y. Jung, J. Kussmann, C. Ochsenfeld,
 S. T. Brown, A. T. B. Gilbert, L. V. Slipchenko,S. V. Levchenko,
 D. P. O'Neill, R. A. DiStasio Jr., R. C. Lochan, T. Wang,
 G. J. O. Beran, N. A. Besley, J. M. Herbert, C. Y. Lin,
 T. Van Voorhis, S. H. Chien, A. Sodt, R. P. Steele, 
 V. A. Rassolov, P. E. Maslen, P. P. Korambath, R. D. Adamson,
 B. Austin, J. Baker, E. F. C. Byrd, H. Dachsel, R. J. Doerksen,
 A. Dreuw, B. D. Dunietz, A. D. Dutoi, T. R. Furlani,
 S. R. Gwaltney, A. Heyden, S. Hirata, C.-P. Hsu, G. Kedziora,
 R. Z. Khaliullin, P. Klunzinger, A. M. Lee, M. S. Lee, W. Liang,
 I. Lotan, N. Nair, B. Peters, E. I. Proynov, P. A. Pieniazek, 
 Y. M. Rhee, J. Ritchie, E. Rosta, C. D. Sherrill, 
 A. C. Simmonett, J. E. Subotnik, H. L. Woodcock III,
 W. Zhang, A. T. Bell, A. K. Chakraborty, D. M. Chipman,
 F. J. Keil, A. Warshel, W. J. Hehre, H. F. Schaefer III,
 J. Kong, A. I. Krylov, P. M. W. Gill, M. Head-Gordon,
 Q-Chem, Version 3.1, Q-Chem, Inc., Pittsburgh, PA (2007).

 Additional authors for Version 3.1: 
 Z. Gan, Y. Zhao, N. E. Schultz, D. Truhlar, E. Epifanovsky and M. Oana.

 Additional authors for Version 3.2: 
 R. Baer, B. R. Brooks, D. Casanova, J.-D. Chai, C.-L. Cheng, 
 C. Cramer, D. Crittenden, A. Ghysels, G. Hawkins, E. G. Hohenstein, 
 C. Kelley, W. Kurlancheek, D. Liotard, E. Livshits, P. Manohar, 
 A. Marenich, D. Neuhauser, R. Olson, M. A. Rohrdanz, K. S. Thanthiriwatte, 
 A. J. W. Thom, V. Vanovschi, C. F. Williams, Q. Wu and Z.-Q. You. 


 Intel X86 Linux Version

 Q-chem begins on Thu Mar 20 02:58:12 2014  

 Parallel job on  1  processors
Processing $rem in /usr/local/qchem/config/preferences.

theFileMan(): MAXOPENFILES=974 MAX_SUB_FILE_NUM=16
Maximum size of a physical file is 2.0 GB, maximum size of a tmp-file is 32.0 GB


--------------------------------------------------------------
User input:
--------------------------------------------------------------

$molecule
0,1
C         -0.00006        0.00015        0.99980
C          1.26532        0.76004        0.98857
C          1.26516       -0.76001        0.98799
C         -1.27231       -0.00021        0.25137
C         -1.25820        0.00027        1.77153
H          1.57504        1.26150        1.90176
H          1.55860        1.26345        0.07108
H          1.57486       -1.26190        1.90095
H          1.55826       -1.26313        0.07027
H         -1.57794       -0.91602       -0.24774
H         -1.57802        0.91521       -0.24839
H         -1.55535       -0.91513        2.27650
H         -1.55537        0.91578        2.27629
$end

$comment
neutral
$end

$xc_functional
C PBE   1.00
X wPBE  1.00
$end


$rem
SYMMETRY_DECOMPOSITION	0
LRC_DFT                 true
exchange 		general
BASIS                   g3large
omega			260
mem_static              760
max_scf_cycles          200
scf_final_print         1
sym_ignore              true
$end

--------------------------------------------------------------
 Writing REM_CC_EA           13
 ----------------------------------------------------
       Standard Nuclear Orientation (Angstroms)
    I     Atom         X            Y            Z
 ----------------------------------------------------
    1      C      -0.000060     0.000150     0.999800
    2      C       1.265320     0.760040     0.988570
    3      C       1.265160    -0.760010     0.987990
    4      C      -1.272310    -0.000210     0.251370
    5      C      -1.258200     0.000270     1.771530
    6      H       1.575040     1.261500     1.901760
    7      H       1.558600     1.263450     0.071080
    8      H       1.574860    -1.261900     1.900950
    9      H       1.558260    -1.263130     0.070270
   10      H      -1.577940    -0.916020    -0.247740
   11      H      -1.578020     0.915210    -0.248390
   12      H      -1.555350    -0.915130     2.276500
   13      H      -1.555370     0.915780     2.276290
 ----------------------------------------------------
 Nuclear Repulsion Energy =   170.9200549349 hartrees
 There are       19 alpha and       19 beta electrons
 Requested basis set is G3large
 There are 98 shells and 290 basis functions

Total QAlloc Memory Limit   2000 MB
Mega-Array Size       743 MB
MEM_STATIC part       760 MB

                       Distance Matrix (Angstroms)
             C (  1)   C (  2)   C (  3)   C (  4)   C (  5)   H (  6)
   C (  2)  1.476057
   C (  3)  1.476064  1.520050
   C (  4)  1.476065  2.749729  2.749302
   C (  5)  1.475969  2.749260  2.749419  1.520226
   H (  6)  2.210311  1.086878  2.239979  3.524642  3.104015
   H (  7)  2.210852  1.086841  2.240808  3.105381  3.524417  1.830755
   H (  8)  2.210252  2.239753  1.086878  3.524110  3.104199  2.523400
   H (  9)  2.210942  2.241050  1.086852  3.104817  3.524615  3.119037
   H ( 10)  2.210301  3.524453  3.103963  1.086843  2.240373  4.393544
   H ( 11)  2.210265  3.104630  3.524013  1.086836  2.240419  3.832082
   H ( 12)  2.210572  3.524363  3.104770  2.240166  1.086853  3.831121
   H ( 13)  2.210609  3.104637  3.524681  2.240416  1.086854  3.171634
             H (  7)   H (  8)   H (  9)   H ( 10)   H ( 11)   H ( 12)
   H (  8)  3.118667
   H (  9)  2.526580  1.830756
   H ( 10)  3.832704  3.831012  3.171335
   H ( 11)  3.172021  4.393190  3.831835  1.831230
   H ( 12)  4.393947  3.171672  3.831856  2.524341  3.118610
   H ( 13)  3.831532  3.831646  4.394185  3.118770  2.524782  1.830910

 
 A cutoff of  1.0D-08 yielded   4435 shell pairs
 There are  39245 function pairs ( 48051 Cartesian)
Evaluating contribution to one-electron hamiltonian from nuclear
 Smallest overlap matrix eigenvalue = 2.59E-05

 Q-Chem warning in module mkSTV.C, line 194:

 Overlap eigenvalue is smaller than square root of threshold

 Multipole matrices computed through 2nd order

  Scale SEOQF with 1.000000e-01/1.000000e-01/1.000000e-01

 Standard Electronic Orientation quadrupole field applied
 Nucleus-field energy     =    -0.0000000026 hartrees
 Guess from superposition of atomic densities
 Warning:  Energy on first SCF cycle will be non-variational
 Long-range K will be added via erf
 Coulomb attenuation parameter = 0.26 bohr**(-1)
 A restricted Kohn-Sham SCF calculation will be
 performed using Pulay DIIS extrapolation
 Exchange:  wPBE + LR-HF      Correlation:  PBE
 Using SG-1 standard quadrature grid
 SCF converges when DIIS error is below 1.0E-05
 Requested basis set is G3large
 There are 98 shells and 290 basis functions
 A cutoff of  1.0D-08 yielded   4435 shell pairs
 There are  39245 function pairs ( 48051 Cartesian)
 ---------------------------------------
  Cycle       Energy         DIIS Error
 ---------------------------------------
    1    -196.8670657150      2.88E-02
    2    -195.0592191223      2.80E-03
    3    -195.0986180910      2.30E-03
    4    -195.1507962294      2.55E-04
    5    -195.1514790206      1.34E-04
    6    -195.1516533890      2.80E-05
    7    -195.1516651596      7.16E-06 Convergence criterion met
 ---------------------------------------
 One-Electron    Energy =  -599.6459722256
 Total Coulomb   Energy =   263.5678653021
 Alpha Exchange  Energy =    -2.6069034703
 Beta  Exchange  Energy =    -2.6069034703
 DFT   Exchange  Energy =   -23.5346838973
 DFT Correlation Energy =    -1.2451223305
 Nuclear Repu.   Energy =   170.9200549324
 Nuclear Attr.   Energy =  -793.8684192182
 Kinetic         Energy =   194.2224469925
 SCF time:  CPU 238.33 s  wall 239.78 s
 Final Alpha MO Eigenvalues
            1           2           3           4           5           6
    1 -10.0384138 -10.0253650 -10.0251861 -10.0250827 -10.0248565  -0.9597945
            7           8           9          10          11          12
    1  -0.8782594  -0.6836476  -0.6836138  -0.6231609  -0.5675073  -0.5557182
           13          14          15          16          17          18
    1  -0.5556651  -0.4493834  -0.4357823  -0.4347812  -0.3680132  -0.3679039
           19          20          21          22          23          24
    1  -0.3570139   0.0400653   0.0518045   0.0518305   0.0562165   0.0750728
 Analysis of SCF Wavefunction
 
 --------------------------------------------------------------
                    Orbital Energies (a.u.)
 --------------------------------------------------------------
 
 Alpha MOs
 -- Occupied --
-10.038 -10.025 -10.025 -10.025 -10.025  -0.960  -0.878  -0.684
 -0.684  -0.623  -0.568  -0.556  -0.556  -0.449  -0.436  -0.435
 -0.368  -0.368  -0.357
 -- Virtual --
  0.040   0.052   0.052   0.056   0.075   0.075   0.080   0.097
  0.098   0.120   0.145   0.145   0.157   0.162   0.164   0.164
  0.179   0.180   0.180   0.191   0.202   0.202   0.215   0.231
  0.232   0.233   0.233   0.240   0.240   0.252   0.292   0.292
  0.296   0.325   0.343   0.343   0.363   0.376   0.411   0.412
  0.424   0.427   0.482   0.531   0.549   0.549   0.550   0.575
  0.575   0.608   0.629   0.629   0.651   0.658   0.663   0.675
  0.675   0.691   0.691   0.710   0.717   0.731   0.731   0.737
  0.748   0.784   0.832   0.875   0.876   0.881   0.897   0.925
  0.956   0.979   0.988   0.989   1.058   1.110   1.110   1.135
  1.163   1.183   1.183   1.190   1.210   1.210   1.249   1.258
  1.258   1.316   1.316   1.372   1.379   1.379   1.401   1.426
  1.426   1.449   1.452   1.475   1.481   1.487   1.524   1.524
  1.544   1.546   1.572   1.620   1.636   1.636   1.650   1.664
  1.664   1.666   1.724   1.830   1.863   1.864   1.892   2.528
  2.528   2.608   2.651   2.679   2.679   2.699   2.710   2.742
  2.743   2.751   2.799   2.838   2.838   2.883   2.938   2.954
  2.954   2.960   2.989   3.045   3.045   3.064   3.068   3.120
  3.120   3.138   3.138   3.149   3.183   3.187   3.228   3.253
  3.283   3.283   3.304   3.334   3.400   3.400   3.410   3.442
  3.442   3.496   3.496   3.505   3.522   3.553   3.554   3.601
  3.601   3.616   3.654   3.654   3.669   3.743   3.839   3.867
  3.918   3.936   3.936   3.994   3.994   4.021   4.109   4.156
  4.156   4.159   4.163   4.195   4.195   4.286   4.311   4.316
  4.319   4.398   4.404   4.404   4.414   4.414   4.457   4.457
  4.547   4.547   4.577   4.582   4.582   4.617   4.657   4.760
  4.779   4.954   4.954   5.024   5.024   5.145   5.311   5.439
  5.499   5.499   5.542   5.653   5.653   5.657   5.691   5.802
  5.802   5.833  24.079  24.100  24.354  24.354  24.426  27.455
 27.515  27.569  27.569  27.954  28.044  28.073  28.073  28.090
 28.115  28.115  28.128  28.518  28.518  28.956  40.833  40.850
 40.870  40.934  40.942  40.942  40.944  40.985  40.988  40.988
 41.108  41.114  41.114  41.120  41.120  41.132  41.154  41.168
 41.218  41.218  41.226  41.227  41.248  41.320  41.320
 --------------------------------------------------------------
 
          Ground-State Mulliken Net Atomic Charges

     Atom                 Charge (a.u.)
  ----------------------------------------
      1 C                     0.531846
      2 C                    -0.315409
      3 C                    -0.316604
      4 C                    -0.315903
      5 C                    -0.315977
      6 H                     0.091548
      7 H                     0.091523
      8 H                     0.091510
      9 H                     0.091513
     10 H                     0.091491
     11 H                     0.091483
     12 H                     0.091457
     13 H                     0.091522
  ----------------------------------------
  Sum of atomic charges =     0.000000

 -----------------------------------------------------------------
                    Cartesian Multipole Moments
 -----------------------------------------------------------------
    Charge (ESU x 10^10)
                 0.0000
    Dipole Moment (Debye)
         X       0.0002      Y      -0.0014      Z       0.0001
       Tot       0.0015
    Quadrupole Moments (Debye-Ang)
        XX     -32.9565     XY       0.0021     YY     -30.8394
        XZ       0.0191     YZ      -0.0001     ZZ     -30.8431
    Octapole Moments (Debye-Ang^2)
       XXX       0.0034    XXY       0.0006    XYY      -0.6632
       YYY      -0.0009    XXZ     -32.9367    XYZ       0.0025
       YYZ     -30.8380    XZZ       0.7021    YZZ       0.0030
       ZZZ     -92.5364
    Hexadecapole Moments (Debye-Ang^3)
      XXXX    -350.7360   XXXY       0.0141   XXYY     -67.9371
      XYYY       0.0075   YYYY    -116.0655   XXXZ       1.3321
      XXYZ      -0.0014   XYYZ      -0.3574   YYYZ      -0.0155
      XXZZ    -100.8707   XYZZ       0.0111   YYZZ     -64.0845
      XZZZ       2.8514   YZZZ      -0.0079   ZZZZ    -301.1751
 -----------------------------------------------------------------
 Total job time:  240.20s(wall), 238.70s(cpu) 
 Thu Mar 20 03:02:12 2014

        *************************************************************
        *                                                           *
        *  Thank you very much for using Q-Chem.  Have a nice day.  *
        *                                                           *
        *************************************************************


0 sent ACK to 0 
now end server 0 ... 
 
**********************************************************************
Job 3 of 3 
**********************************************************************
 
Process 0 of 1 is on cl122 - thread support 1
initial socket setup ...start
initial socket setup ...done 
now start server 0 ... 

cmd = /usr/bin/ssh clhead /usr/local/qchem/bin/get_hostid 1466102703 > /tmp/1601964.1.medium.q/qchem32097/lic.dat

cmd = /usr/bin/ssh clhead /usr/local/qchem/bin/get_hostid 1466102703 > /tmp/1601964.1.medium.q/qchem32097/lic.dat

cmd = /usr/bin/ssh clhead /usr/local/qchem/bin/get_hostid 1466102703 > /tmp/1601964.1.medium.q/qchem32097/lic.dat

cmd = /usr/bin/ssh clhead /usr/local/qchem/bin/get_hostid 1466102703 > /tmp/1601964.1.medium.q/qchem32097/lic.dat

cmd = /usr/bin/ssh clhead /usr/local/qchem/bin/get_hostid 1466102703 > /tmp/1601964.1.medium.q/qchem32097/lic.dat
                  Welcome to Q-Chem
     A Quantum Leap Into The Future Of Chemistry

 Y. Shao, L. Fusti-Molnar, Y. Jung, J. Kussmann, C. Ochsenfeld,
 S. T. Brown, A. T. B. Gilbert, L. V. Slipchenko,S. V. Levchenko,
 D. P. O'Neill, R. A. DiStasio Jr., R. C. Lochan, T. Wang,
 G. J. O. Beran, N. A. Besley, J. M. Herbert, C. Y. Lin,
 T. Van Voorhis, S. H. Chien, A. Sodt, R. P. Steele, 
 V. A. Rassolov, P. E. Maslen, P. P. Korambath, R. D. Adamson,
 B. Austin, J. Baker, E. F. C. Byrd, H. Dachsel, R. J. Doerksen,
 A. Dreuw, B. D. Dunietz, A. D. Dutoi, T. R. Furlani,
 S. R. Gwaltney, A. Heyden, S. Hirata, C.-P. Hsu, G. Kedziora,
 R. Z. Khaliullin, P. Klunzinger, A. M. Lee, M. S. Lee, W. Liang,
 I. Lotan, N. Nair, B. Peters, E. I. Proynov, P. A. Pieniazek, 
 Y. M. Rhee, J. Ritchie, E. Rosta, C. D. Sherrill, 
 A. C. Simmonett, J. E. Subotnik, H. L. Woodcock III,
 W. Zhang, A. T. Bell, A. K. Chakraborty, D. M. Chipman,
 F. J. Keil, A. Warshel, W. J. Hehre, H. F. Schaefer III,
 J. Kong, A. I. Krylov, P. M. W. Gill, M. Head-Gordon,
 Q-Chem, Version 3.1, Q-Chem, Inc., Pittsburgh, PA (2007).

 Additional authors for Version 3.1: 
 Z. Gan, Y. Zhao, N. E. Schultz, D. Truhlar, E. Epifanovsky and M. Oana.

 Additional authors for Version 3.2: 
 R. Baer, B. R. Brooks, D. Casanova, J.-D. Chai, C.-L. Cheng, 
 C. Cramer, D. Crittenden, A. Ghysels, G. Hawkins, E. G. Hohenstein, 
 C. Kelley, W. Kurlancheek, D. Liotard, E. Livshits, P. Manohar, 
 A. Marenich, D. Neuhauser, R. Olson, M. A. Rohrdanz, K. S. Thanthiriwatte, 
 A. J. W. Thom, V. Vanovschi, C. F. Williams, Q. Wu and Z.-Q. You. 


 Intel X86 Linux Version

 Q-chem begins on Thu Mar 20 03:02:20 2014  

 Parallel job on  1  processors
Processing $rem in /usr/local/qchem/config/preferences.

theFileMan(): MAXOPENFILES=974 MAX_SUB_FILE_NUM=16
Maximum size of a physical file is 2.0 GB, maximum size of a tmp-file is 32.0 GB


--------------------------------------------------------------
User input:
--------------------------------------------------------------

$molecule
1,2
C         -0.00006        0.00015        0.99980
C          1.26532        0.76004        0.98857
C          1.26516       -0.76001        0.98799
C         -1.27231       -0.00021        0.25137
C         -1.25820        0.00027        1.77153
H          1.57504        1.26150        1.90176
H          1.55860        1.26345        0.07108
H          1.57486       -1.26190        1.90095
H          1.55826       -1.26313        0.07027
H         -1.57794       -0.91602       -0.24774
H         -1.57802        0.91521       -0.24839
H         -1.55535       -0.91513        2.27650
H         -1.55537        0.91578        2.27629
$end

$comment
positive
$end

$xc_functional
C PBE   1.00
X wPBE  1.00
$end

$rem
SYMMETRY_DECOMPOSITION	0
LRC_DFT                 true
exchange 		general
BASIS                   g3large
omega			260
mem_static              760
max_scf_cycles          200
scf_final_print         1
sym_ignore              true
$end

--------------------------------------------------------------
 Writing REM_CC_EA           13
 ----------------------------------------------------
       Standard Nuclear Orientation (Angstroms)
    I     Atom         X            Y            Z
 ----------------------------------------------------
    1      C      -0.000060     0.000150     0.999800
    2      C       1.265320     0.760040     0.988570
    3      C       1.265160    -0.760010     0.987990
    4      C      -1.272310    -0.000210     0.251370
    5      C      -1.258200     0.000270     1.771530
    6      H       1.575040     1.261500     1.901760
    7      H       1.558600     1.263450     0.071080
    8      H       1.574860    -1.261900     1.900950
    9      H       1.558260    -1.263130     0.070270
   10      H      -1.577940    -0.916020    -0.247740
   11      H      -1.578020     0.915210    -0.248390
   12      H      -1.555350    -0.915130     2.276500
   13      H      -1.555370     0.915780     2.276290
 ----------------------------------------------------
 Nuclear Repulsion Energy =   170.9200549349 hartrees
 There are       19 alpha and       18 beta electrons
 Requested basis set is G3large
 There are 98 shells and 290 basis functions

Total QAlloc Memory Limit   2000 MB
Mega-Array Size       743 MB
MEM_STATIC part       760 MB

                       Distance Matrix (Angstroms)
             C (  1)   C (  2)   C (  3)   C (  4)   C (  5)   H (  6)
   C (  2)  1.476057
   C (  3)  1.476064  1.520050
   C (  4)  1.476065  2.749729  2.749302
   C (  5)  1.475969  2.749260  2.749419  1.520226
   H (  6)  2.210311  1.086878  2.239979  3.524642  3.104015
   H (  7)  2.210852  1.086841  2.240808  3.105381  3.524417  1.830755
   H (  8)  2.210252  2.239753  1.086878  3.524110  3.104199  2.523400
   H (  9)  2.210942  2.241050  1.086852  3.104817  3.524615  3.119037
   H ( 10)  2.210301  3.524453  3.103963  1.086843  2.240373  4.393544
   H ( 11)  2.210265  3.104630  3.524013  1.086836  2.240419  3.832082
   H ( 12)  2.210572  3.524363  3.104770  2.240166  1.086853  3.831121
   H ( 13)  2.210609  3.104637  3.524681  2.240416  1.086854  3.171634
             H (  7)   H (  8)   H (  9)   H ( 10)   H ( 11)   H ( 12)
   H (  8)  3.118667
   H (  9)  2.526580  1.830756
   H ( 10)  3.832704  3.831012  3.171335
   H ( 11)  3.172021  4.393190  3.831835  1.831230
   H ( 12)  4.393947  3.171672  3.831856  2.524341  3.118610
   H ( 13)  3.831532  3.831646  4.394185  3.118770  2.524782  1.830910

 
 A cutoff of  1.0D-08 yielded   4435 shell pairs
 There are  39245 function pairs ( 48051 Cartesian)
Evaluating contribution to one-electron hamiltonian from nuclear
 Smallest overlap matrix eigenvalue = 2.59E-05

 Q-Chem warning in module mkSTV.C, line 194:

 Overlap eigenvalue is smaller than square root of threshold

 Multipole matrices computed through 2nd order

  Scale SEOQF with 1.000000e-01/1.000000e-01/1.000000e-01

 Standard Electronic Orientation quadrupole field applied
 Nucleus-field energy     =    -0.0000000026 hartrees
 Guess from superposition of atomic densities
 Warning:  Energy on first SCF cycle will be non-variational
 Long-range K will be added via erf
 Coulomb attenuation parameter = 0.26 bohr**(-1)
 An unrestricted Kohn-Sham SCF calculation will be
 performed using Pulay DIIS extrapolation
 Exchange:  wPBE + LR-HF      Correlation:  PBE
 Using SG-1 standard quadrature grid
 SCF converges when DIIS error is below 1.0E-05
 Requested basis set is G3large
 There are 98 shells and 290 basis functions
 A cutoff of  1.0D-08 yielded   4435 shell pairs
 There are  39245 function pairs ( 48051 Cartesian)
 Warning!  Inaccurate integrated density:
   Number of electrons =    37
   Numerical integral  =    37.999764099938
   Relative error      =     2.7020651350 %
 ---------------------------------------
  Cycle       Energy         DIIS Error
 ---------------------------------------
    1    -196.8670657150      2.88E-02
    2    -194.6970392264      2.41E-03
    3    -194.7252983947      2.29E-03
    4    -194.7764977521      2.98E-04
    5    -194.7784674163      1.80E-04
    6    -194.7792772639      5.66E-05
    7    -194.7799322892      5.89E-05
    8    -194.7803705681      4.90E-05
    9    -194.7809461476      4.55E-05
   10    -194.7814448200      4.00E-05
   11    -194.7817693409      3.66E-05
   12    -194.7831874647      3.24E-05
   13    -194.7837693273      3.10E-05
   14    -194.7847037202      2.45E-05
   15    -194.7853140084      2.10E-04
   16    -194.7850292291      2.52E-04
   17    -194.7851223175      2.39E-04
   18    -194.7856799192      1.57E-04
   19    -194.7858704811      1.03E-04
   20    -194.7860235314      3.43E-05
   21    -194.7860336233      1.71E-05
   22    -194.7860392727      8.68E-06 Convergence criterion met
 ---------------------------------------
 One-Electron    Energy =  -590.5558922709
 Total Coulomb   Energy =   254.5224820600
 Alpha Exchange  Energy =    -2.6146039520
 Beta  Exchange  Energy =    -2.4658228401
 DFT   Exchange  Energy =   -23.3854540833
 DFT Correlation Energy =    -1.2068031187
 Nuclear Repu.   Energy =   170.9200549324
 Nuclear Attr.   Energy =  -784.6402643766
 Kinetic         Energy =   194.0843721057
 <S^2> = 0.7561
 SCF time:  CPU 980.16 s  wall 987.54 s
 Final Alpha MO Eigenvalues
            1           2           3           4           5           6
    1 -10.2868622 -10.2790777 -10.2787828 -10.2787687 -10.2786842  -1.2115505
            7           8           9          10          11          12
    1  -1.1327573  -0.9184363  -0.9182914  -0.8596335  -0.8013313  -0.7872487
           13          14          15          16          17          18
    1  -0.7871314  -0.6918723  -0.6739474  -0.6595873  -0.6187765  -0.6076620
           19          20          21          22          23          24
    1  -0.6074591  -0.0934354  -0.0868002  -0.0867851  -0.0771204  -0.0556165
 Final Beta MO Eigenvalues
            1           2           3           4           5           6
    1 -10.2865844 -10.2750985 -10.2748315 -10.2748280 -10.2747406  -1.2021866
            7           8           9          10          11          12
    1  -1.1180665  -0.9063444  -0.9062638  -0.8473684  -0.7952789  -0.7838873
           13          14          15          16          17          18
    1  -0.7837236  -0.6714637  -0.6570476  -0.6409073  -0.6011088  -0.6003547
           19          20          21          22          23
    1  -0.3747305  -0.0920958  -0.0830599  -0.0830467  -0.0754926
 Analysis of SCF Wavefunction
 
 --------------------------------------------------------------
                    Orbital Energies (a.u.)
 --------------------------------------------------------------
 
 Alpha MOs
 -- Occupied --
-10.287 -10.279 -10.279 -10.279 -10.279  -1.212  -1.133  -0.918
 -0.918  -0.860  -0.801  -0.787  -0.787  -0.692  -0.674  -0.660
 -0.619  -0.608  -0.607
 -- Virtual --
 -0.093  -0.087  -0.087  -0.077  -0.056  -0.056  -0.047  -0.036
 -0.032  -0.020  -0.020  -0.006   0.008   0.014   0.015   0.015
  0.032   0.032   0.040   0.044   0.053   0.053   0.068   0.068
  0.069   0.077   0.088   0.088   0.091   0.094   0.108   0.108
  0.115   0.144   0.158   0.159   0.170   0.200   0.217   0.226
  0.226   0.263   0.291   0.347   0.359   0.367   0.367   0.379
  0.379   0.413   0.433   0.433   0.443   0.456   0.474   0.475
  0.475   0.489   0.489   0.511   0.528   0.540   0.546   0.547
  0.548   0.602   0.615   0.668   0.668   0.681   0.700   0.707
  0.747   0.769   0.783   0.783   0.861   0.910   0.910   0.932
  0.949   0.969   0.980   0.980   1.007   1.007   1.051   1.051
  1.054   1.103   1.103   1.163   1.170   1.170   1.177   1.212
  1.212   1.238   1.239   1.264   1.267   1.289   1.320   1.320
  1.336   1.343   1.371   1.410   1.432   1.432   1.443   1.459
  1.459   1.460   1.509   1.596   1.638   1.638   1.674   2.293
  2.293   2.355   2.432   2.440   2.455   2.455   2.487   2.499
  2.499   2.530   2.552   2.606   2.606   2.649   2.688   2.713
  2.714   2.715   2.743   2.813   2.813   2.822   2.828   2.876
  2.877   2.896   2.898   2.898   2.951   2.963   2.987   3.018
  3.051   3.051   3.072   3.096   3.164   3.164   3.181   3.199
  3.199   3.259   3.259   3.265   3.276   3.309   3.319   3.366
  3.366   3.386   3.416   3.416   3.441   3.506   3.608   3.628
  3.672   3.706   3.707   3.754   3.754   3.784   3.875   3.926
  3.926   3.928   3.932   3.967   3.968   4.061   4.084   4.095
  4.098   4.161   4.163   4.164   4.185   4.185   4.224   4.224
  4.312   4.312   4.347   4.353   4.353   4.375   4.419   4.517
  4.542   4.711   4.712   4.789   4.789   4.916   5.072   5.208
  5.252   5.252   5.313   5.427   5.427   5.431   5.466   5.567
  5.568   5.590  23.831  23.848  24.100  24.101  24.174  27.196
 27.256  27.318  27.318  27.702  27.793  27.821  27.821  27.839
 27.862  27.862  27.877  28.267  28.267  28.706  40.582  40.593
 40.617  40.680  40.687  40.687  40.690  40.731  40.732  40.734
 40.858  40.858  40.859  40.864  40.864  40.875  40.901  40.912
 40.967  40.967  40.975  40.976  40.992  41.068  41.068
 
 Beta MOs
 -- Occupied --
-10.287 -10.275 -10.275 -10.275 -10.275  -1.202  -1.118  -0.906
 -0.906  -0.847  -0.795  -0.784  -0.784  -0.671  -0.657  -0.641
 -0.601  -0.600
 -- Virtual --
 -0.375  -0.092  -0.083  -0.083  -0.075  -0.054  -0.054  -0.046
 -0.035  -0.031  -0.010  -0.010  -0.006   0.010   0.016   0.016
  0.017   0.033   0.034   0.042   0.046   0.054   0.054   0.070
  0.075   0.075   0.079   0.090   0.090   0.092   0.095   0.113
  0.113   0.121   0.145   0.160   0.160   0.179   0.205   0.225
  0.229   0.230   0.264   0.295   0.351   0.359   0.369   0.369
  0.385   0.385   0.421   0.439   0.439   0.455   0.466   0.475
  0.480   0.480   0.491   0.491   0.517   0.532   0.545   0.549
  0.551   0.551   0.604   0.621   0.673   0.673   0.683   0.701
  0.718   0.754   0.778   0.787   0.787   0.860   0.912   0.913
  0.935   0.950   0.979   0.983   0.983   1.008   1.008   1.056
  1.058   1.058   1.110   1.110   1.168   1.175   1.175   1.187
  1.223   1.223   1.245   1.247   1.270   1.270   1.291   1.323
  1.323   1.341   1.346   1.375   1.414   1.434   1.435   1.444
  1.460   1.460   1.465   1.515   1.606   1.643   1.643   1.676
  2.303   2.303   2.375   2.434   2.459   2.459   2.468   2.494
  2.507   2.507   2.534   2.569   2.611   2.611   2.654   2.706
  2.724   2.724   2.732   2.755   2.820   2.820   2.835   2.839
  2.887   2.887   2.912   2.912   2.915   2.956   2.966   2.995
  3.023   3.060   3.060   3.075   3.105   3.175   3.175   3.186
  3.214   3.214   3.271   3.272   3.275   3.298   3.318   3.325
  3.374   3.375   3.393   3.425   3.425   3.441   3.516   3.612
  3.638   3.685   3.710   3.710   3.765   3.765   3.793   3.879
  3.930   3.930   3.934   3.937   3.973   3.973   4.067   4.090
  4.097   4.101   4.170   4.175   4.178   4.191   4.191   4.231
  4.231   4.319   4.320   4.354   4.360   4.360   4.382   4.427
  4.525   4.550   4.718   4.718   4.795   4.795   4.919   5.082
  5.209   5.266   5.266   5.318   5.430   5.430   5.434   5.469
  5.571   5.572   5.596  23.832  23.852  24.105  24.106  24.178
 27.208  27.268  27.321  27.321  27.705  27.795  27.825  27.825
 27.841  27.867  27.867  27.880  28.269  28.270  28.710  40.584
 40.601  40.621  40.685  40.693  40.693  40.696  40.737  40.739
 40.739  40.860  40.866  40.866  40.872  40.872  40.883  40.906
 40.919  40.968  40.968  40.977  40.978  40.999  41.072  41.072
 --------------------------------------------------------------
 
          Ground-State Mulliken Net Atomic Charges

     Atom                 Charge (a.u.)    Spin (a.u.)
  --------------------------------------------------------
      1 C                     0.458614      -0.055120
      2 C                    -0.180871       0.275246
      3 C                    -0.180305       0.275436
      4 C                    -0.181217       0.274249
      5 C                    -0.180033       0.276582
      6 H                     0.157926      -0.005758
      7 H                     0.157992      -0.005865
      8 H                     0.158040      -0.005690
      9 H                     0.157806      -0.005882
     10 H                     0.157940      -0.005727
     11 H                     0.158072      -0.005684
     12 H                     0.158033      -0.005909
     13 H                     0.158004      -0.005878
  --------------------------------------------------------
  Sum of atomic charges =     1.000000
  Sum of spin   charges =     1.000000

 -----------------------------------------------------------------
                    Cartesian Multipole Moments
 -----------------------------------------------------------------
    Charge (ESU x 10^10)
                 4.8032
    Dipole Moment (Debye)
         X       0.0032      Y      -0.0005      Z       4.8055
       Tot       4.8055
    Quadrupole Moments (Debye-Ang)
        XX     -18.2718     XY       0.0005     YY     -23.8903
        XZ      -0.0522     YZ       0.0020     ZZ     -19.0883
    Octapole Moments (Debye-Ang^2)
       XXX       0.0071    XXY       0.0002    XYY       2.3147
       YYY      -0.0042    XXZ     -18.3056    XYZ       0.0009
       YYZ     -23.9152    XZZ      -2.4226    YZZ       0.0042
       ZZZ     -66.8027
    Hexadecapole Moments (Debye-Ang^3)
      XXXX    -274.9731   XXXY       0.0018   XXYY     -48.6519
      XYYY      -0.0008   YYYY     -91.6847   XXXZ       1.1509
      XXYZ       0.0005   XYYZ       2.5348   YYYZ      -0.0159
      XXZZ     -67.0134   XYZZ      -0.0003   YYZZ     -46.9108
      XZZZ      -6.6075   YZZZ      -0.0060   ZZZZ    -229.9673
 -----------------------------------------------------------------
 Total job time:  987.95s(wall), 980.53s(cpu) 
 Thu Mar 20 03:18:48 2014

        *************************************************************
        *                                                           *
        *  Thank you very much for using Q-Chem.  Have a nice day.  *
        *                                                           *
        *************************************************************


0 sent ACK to 0 
now end server 0 ... 
