Process 0 of 1 is on cl142.stfx.acenet.ca - thread support 1
initial socket setup ...start
initial socket setup ...done 
now start server 0 ... 

cmd = /usr/bin/ssh clhead /usr/local/qchem/bin/get_hostid 1764613580 > /scratch/tmp/6060719.1.medium.q/qchem19037/lic.dat
                  Welcome to Q-Chem
     A Quantum Leap Into The Future Of Chemistry

 Y. Shao, L. Fusti-Molnar, Y. Jung, J. Kussmann, C. Ochsenfeld,
 S. T. Brown, A. T. B. Gilbert, L. V. Slipchenko,S. V. Levchenko,
 D. P. O'Neill, R. A. DiStasio Jr., R. C. Lochan, T. Wang,
 G. J. O. Beran, N. A. Besley, J. M. Herbert, C. Y. Lin,
 T. Van Voorhis, S. H. Chien, A. Sodt, R. P. Steele, 
 V. A. Rassolov, P. E. Maslen, P. P. Korambath, R. D. Adamson,
 B. Austin, J. Baker, E. F. C. Byrd, H. Dachsel, R. J. Doerksen,
 A. Dreuw, B. D. Dunietz, A. D. Dutoi, T. R. Furlani,
 S. R. Gwaltney, A. Heyden, S. Hirata, C.-P. Hsu, G. Kedziora,
 R. Z. Khaliullin, P. Klunzinger, A. M. Lee, M. S. Lee, W. Liang,
 I. Lotan, N. Nair, B. Peters, E. I. Proynov, P. A. Pieniazek, 
 Y. M. Rhee, J. Ritchie, E. Rosta, C. D. Sherrill, 
 A. C. Simmonett, J. E. Subotnik, H. L. Woodcock III,
 W. Zhang, A. T. Bell, A. K. Chakraborty, D. M. Chipman,
 F. J. Keil, A. Warshel, W. J. Hehre, H. F. Schaefer III,
 J. Kong, A. I. Krylov, P. M. W. Gill, M. Head-Gordon,
 Q-Chem, Version 3.1, Q-Chem, Inc., Pittsburgh, PA (2007).

 Additional authors for Version 3.1: 
 Z. Gan, Y. Zhao, N. E. Schultz, D. Truhlar, E. Epifanovsky and M. Oana.

 Additional authors for Version 3.2: 
 R. Baer, B. R. Brooks, D. Casanova, J.-D. Chai, C.-L. Cheng, 
 C. Cramer, D. Crittenden, A. Ghysels, G. Hawkins, E. G. Hohenstein, 
 C. Kelley, W. Kurlancheek, D. Liotard, E. Livshits, P. Manohar, 
 A. Marenich, D. Neuhauser, R. Olson, M. A. Rohrdanz, K. S. Thanthiriwatte, 
 A. J. W. Thom, V. Vanovschi, C. F. Williams, Q. Wu and Z.-Q. You. 


 Intel X86 Linux Version

 Q-chem begins on Thu Jul  4 11:04:08 2013  

 Parallel job on  1  processors
Processing $rem in /usr/local/qchem/config/preferences.

theFileMan(): MAXOPENFILES=974 MAX_SUB_FILE_NUM=16
Maximum size of a physical file is 2.0 GB, maximum size of a tmp-file is 32.0 GB


--------------------------------------------------------------
User input:
--------------------------------------------------------------

$molecule
-1,2
Cl         0.00000        0.00000        0.01879
F          0.00000        0.00000        1.59243
F          1.66340        0.00000        0.10804
F         -1.66340        0.00000        0.10804
$end

$comment
negative
$end

$xc_functional
C PBE   1.00
X wPBE  1.00
$end

$rem
SYMMETRY_DECOMPOSITION	0
exchange 		general
LRC_DFT                 true
BASIS                   g3large
omega			1000
mem_static              760
max_scf_cycles          200
scf_final_print         1
sym_ignore              true
$end

--------------------------------------------------------------
 Writing REM_CC_EA            4
 ----------------------------------------------------
       Standard Nuclear Orientation (Angstroms)
    I     Atom         X            Y            Z
 ----------------------------------------------------
    1      Cl      0.000000     0.000000     0.018790
    2      F       0.000000     0.000000     1.592430
    3      F       1.663400     0.000000     0.108040
    4      F      -1.663400     0.000000     0.108040
 ----------------------------------------------------
 Nuclear Repulsion Energy =   199.9948579389 hartrees
 There are       23 alpha and       22 beta electrons
 Requested basis set is G3large
 There are 49 shells and 192 basis functions

Total QAlloc Memory Limit   2000 MB
Mega-Array Size       743 MB
MEM_STATIC part       760 MB

                       Distance Matrix (Angstroms)
             Cl(  1)   F (  2)   F (  3)
   F (  2)  1.573640
   F (  3)  1.665793  2.229420
   F (  4)  1.665793  2.229420  3.326800
 
 A cutoff of  1.0D-08 yielded   1013 shell pairs
 There are  16002 function pairs ( 21671 Cartesian)
Evaluating contribution to one-electron hamiltonian from nuclear
 Smallest overlap matrix eigenvalue = 1.53E-03
 Multipole matrices computed through 2nd order

  Scale SEOQF with 1.000000e-01/1.000000e-01/1.000000e-01

 Standard Electronic Orientation quadrupole field applied
 Nucleus-field energy     =    -0.0000000007 hartrees
 Guess from superposition of atomic densities
 Warning:  Energy on first SCF cycle will be non-variational
 Long-range K will be added via erf
 Coulomb attenuation parameter = 1 bohr**(-1)
 An unrestricted Kohn-Sham SCF calculation will be
 performed using Pulay DIIS extrapolation
 Exchange:  wPBE + LR-HF      Correlation:  PBE
 Using SG-1 standard quadrature grid
 SCF converges when DIIS error is below 1.0E-05
 Requested basis set is G3large
 There are 49 shells and 192 basis functions
 A cutoff of  1.0D-08 yielded   1013 shell pairs
 There are  16002 function pairs ( 21671 Cartesian)
 Warning!  Inaccurate integrated density:
   Number of electrons =    45
   Numerical integral  =    43.999579668551
   Relative error      =    -2.2231562921 %
 ---------------------------------------
  Cycle       Energy         DIIS Error
 ---------------------------------------
    1    -760.1441329143      2.76E-02
    2    -759.3229433114      5.80E-03
    3    -759.3902393602      4.35E-03
    4    -759.4382940913      4.74E-04
    5    -759.4410549487      1.82E-04
    6    -759.4417038495      7.40E-05
    7    -759.4418513845      2.77E-05
    8    -759.4418717274      1.37E-05
    9    -759.4418779712      7.66E-06 Convergence criterion met
 ---------------------------------------
 One-Electron    Energy = -1463.5089492003
 Total Coulomb   Energy =   563.9666919963
 Alpha Exchange  Energy =    -9.9299790189
 Beta  Exchange  Energy =    -9.5275253829
 DFT   Exchange  Energy =   -38.7806396640
 DFT Correlation Energy =    -1.6563346396
 Nuclear Repu.   Energy =   199.9948579382
 Nuclear Attr.   Energy = -2222.7342536810
 Kinetic         Energy =   759.2253044807
 <S^2> = 0.7601
 SCF time:  CPU 89.76 s  wall 90.33 s
 Final Alpha MO Eigenvalues
            1           2           3           4           5           6
    1-101.1157723 -24.5101122 -24.5021106 -24.5018421  -9.6228952  -7.4044148
            7           8           9          10          11          12
    1  -7.3944721  -7.3784608  -1.3750080  -1.2719343  -1.2585985  -0.8831727
           13          14          15          16          17          18
    1  -0.5835976  -0.5757865  -0.5218222  -0.4662877  -0.4220041  -0.4161828
           19          20          21          22          23          24
    1  -0.4128934  -0.3726713  -0.3216005  -0.2508717  -0.0892774   0.2586328
           25          26          27          28
    1   0.2716638   0.2763808   0.2919191   0.4117203
 Final Beta MO Eigenvalues
            1           2           3           4           5           6
    1-101.1113584 -24.5011574 -24.5007634 -24.4975152  -9.6178036  -7.4011271
            7           8           9          10          11          12
    1  -7.3830116  -7.3745130  -1.3437309  -1.2683932  -1.2385920  -0.8397105
           13          14          15          16          17          18
    1  -0.5660177  -0.5089581  -0.5044500  -0.4593637  -0.4210529  -0.4045551
           19          20          21          22          23          24
    1  -0.3854969  -0.3584428  -0.3040749  -0.2298622   0.2585094   0.2695123
           25          26          27
    1   0.2730459   0.2776753   0.3768259
 Analysis of SCF Wavefunction
 
 --------------------------------------------------------------
                    Orbital Energies (a.u.)
 --------------------------------------------------------------
 
 Alpha MOs
 -- Occupied --
******* -24.510 -24.502 -24.502  -9.623  -7.404  -7.394  -7.378
 -1.375  -1.272  -1.259  -0.883  -0.584  -0.576  -0.522  -0.466
 -0.422  -0.416  -0.413  -0.373  -0.322  -0.251  -0.089
 -- Virtual --
  0.259   0.272   0.276   0.292   0.412   0.454   0.477   0.493
  0.497   0.516   0.533   0.577   0.581   0.610   0.621   0.653
  0.700   0.712   0.712   0.746   0.748   0.802   0.823   1.024
  1.099   1.390   1.432   1.443   1.453   1.466   1.541   1.544
  1.600   1.610   1.624   1.649   1.650   1.740   1.751   1.754
  1.756   1.758   1.815   1.823   1.889   1.978   2.172   2.374
  2.377   2.461   2.476   2.486   2.495   2.503   2.597   2.628
  2.654   2.657   2.761   2.765   2.798   2.995   3.206   3.282
  3.295   3.354   3.526   4.087   4.790   4.816   4.845   4.876
  4.941   5.033   5.116   5.475   5.487   5.496   5.726   5.876
  6.704   6.708   6.727   6.747   6.758   6.825   6.832   6.957
  7.112   7.145   7.167   7.169   7.174   7.185   7.188   7.193
  7.196   7.198   7.223   7.232   7.241   7.263   7.267   7.280
  7.303   7.306   7.365   7.384   7.453   7.746   9.622   9.630
  9.634   9.683   9.698   9.720   9.768   9.795   9.895   9.963
 10.052  10.064  10.115  10.353  10.481  10.677  21.008  21.241
 21.840  27.618  27.620  27.636  27.686  27.920  37.241  37.250
 37.257  37.257  37.257  37.286  37.289  50.687  50.703  50.716
 50.721  50.725  50.752  50.768  50.792  50.829  50.895  50.900
 50.903  50.911  50.967  51.031  56.167  56.179  56.186  56.204
 56.205  56.253  56.274  56.338  56.508  67.214  67.247  67.288
216.224
 
 Beta MOs
 -- Occupied --
******* -24.501 -24.501 -24.498  -9.618  -7.401  -7.383  -7.375
 -1.344  -1.268  -1.239  -0.840  -0.566  -0.509  -0.504  -0.459
 -0.421  -0.405  -0.385  -0.358  -0.304  -0.230
 -- Virtual --
  0.259   0.270   0.273   0.278   0.377   0.427   0.456   0.485
  0.495   0.498   0.523   0.535   0.578   0.581   0.614   0.625
  0.679   0.706   0.718   0.726   0.773   0.790   0.805   0.830
  1.026   1.130   1.396   1.441   1.459   1.471   1.491   1.551
  1.553   1.607   1.625   1.640   1.654   1.671   1.744   1.758
  1.760   1.761   1.765   1.816   1.826   1.896   1.997   2.176
  2.381   2.393   2.469   2.478   2.489   2.499   2.510   2.599
  2.629   2.661   2.663   2.768   2.769   2.828   3.014   3.223
  3.286   3.297   3.365   3.546   4.090   4.812   4.843   4.867
  4.901   4.953   5.056   5.130   5.484   5.492   5.506   5.738
  5.884   6.711   6.722   6.728   6.748   6.763   6.830   6.841
  6.986   7.116   7.155   7.171   7.174   7.179   7.188   7.189
  7.194   7.198   7.207   7.230   7.233   7.243   7.270   7.273
  7.294   7.314   7.315   7.372   7.398   7.456   7.766   9.632
  9.634   9.640   9.684   9.702   9.730   9.783   9.800   9.935
  9.977  10.054  10.094  10.121  10.371  10.484  10.703  21.011
 21.254  21.843  27.622  27.630  27.646  27.693  27.930  37.244
 37.253  37.258  37.259  37.261  37.290  37.291  50.690  50.705
 50.721  50.726  50.728  50.754  50.779  50.795  50.859  50.896
 50.901  50.915  50.926  51.006  51.033  56.171  56.187  56.187
 56.205  56.210  56.255  56.278  56.361  56.510  67.215  67.260
 67.290 216.230
 --------------------------------------------------------------
 
          Ground-State Mulliken Net Atomic Charges

     Atom                 Charge (a.u.)    Spin (a.u.)
  --------------------------------------------------------
      1 Cl                    0.129530       0.760860
      2 F                    -0.304641       0.219550
      3 F                    -0.412072       0.008750
      4 F                    -0.412817       0.010840
  --------------------------------------------------------
  Sum of atomic charges =    -1.000000
  Sum of spin   charges =     1.000000

 -----------------------------------------------------------------
                    Cartesian Multipole Moments
 -----------------------------------------------------------------
    Charge (ESU x 10^10)
                -4.8032
    Dipole Moment (Debye)
         X       0.0066      Y      -0.0002      Z      -2.2670
       Tot       2.2670
    Quadrupole Moments (Debye-Ang)
        XX     -40.2360     XY       0.0001     YY     -28.7986
        XZ       0.0028     YZ      -0.0014     ZZ     -34.0087
    Octapole Moments (Debye-Ang^2)
       XXX       0.0410    XXY       0.0009    XYY       0.0045
       YYY      -0.0019    XXZ     -10.6591    XYZ       0.0000
       YYZ      -9.3213    XZZ      -0.0019    YZZ       0.0041
       ZZZ     -36.7798
    Hexadecapole Moments (Debye-Ang^3)
      XXXX    -240.3161   XXXY      -0.0001   XXYY     -38.3311
      XYYY       0.0002   YYYY     -26.0334   XXXZ      -0.0004
      XXYZ      -0.0004   XYYZ       0.0031   YYYZ      -0.0029
      XXZZ     -52.3382   XYZZ       0.0001   YYZZ     -22.8259
      XZZZ       0.0037   YZZZ       0.0011   ZZZZ    -125.8566
 -----------------------------------------------------------------
 Total job time:  90.70s(wall), 90.01s(cpu) 
 Thu Jul  4 11:05:38 2013

        *************************************************************
        *                                                           *
        *  Thank you very much for using Q-Chem.  Have a nice day.  *
        *                                                           *
        *************************************************************


0 sent ACK to 0 
now end server 0 ... 
 
**********************************************************************
Job 2 of 3 
**********************************************************************
 
Process 0 of 1 is on cl142.stfx.acenet.ca - thread support 1
initial socket setup ...start
initial socket setup ...done 
now start server 0 ... 

cmd = /usr/bin/ssh clhead /usr/local/qchem/bin/get_hostid 318303174 > /scratch/tmp/6060719.1.medium.q/qchem19037/lic.dat
                  Welcome to Q-Chem
     A Quantum Leap Into The Future Of Chemistry

 Y. Shao, L. Fusti-Molnar, Y. Jung, J. Kussmann, C. Ochsenfeld,
 S. T. Brown, A. T. B. Gilbert, L. V. Slipchenko,S. V. Levchenko,
 D. P. O'Neill, R. A. DiStasio Jr., R. C. Lochan, T. Wang,
 G. J. O. Beran, N. A. Besley, J. M. Herbert, C. Y. Lin,
 T. Van Voorhis, S. H. Chien, A. Sodt, R. P. Steele, 
 V. A. Rassolov, P. E. Maslen, P. P. Korambath, R. D. Adamson,
 B. Austin, J. Baker, E. F. C. Byrd, H. Dachsel, R. J. Doerksen,
 A. Dreuw, B. D. Dunietz, A. D. Dutoi, T. R. Furlani,
 S. R. Gwaltney, A. Heyden, S. Hirata, C.-P. Hsu, G. Kedziora,
 R. Z. Khaliullin, P. Klunzinger, A. M. Lee, M. S. Lee, W. Liang,
 I. Lotan, N. Nair, B. Peters, E. I. Proynov, P. A. Pieniazek, 
 Y. M. Rhee, J. Ritchie, E. Rosta, C. D. Sherrill, 
 A. C. Simmonett, J. E. Subotnik, H. L. Woodcock III,
 W. Zhang, A. T. Bell, A. K. Chakraborty, D. M. Chipman,
 F. J. Keil, A. Warshel, W. J. Hehre, H. F. Schaefer III,
 J. Kong, A. I. Krylov, P. M. W. Gill, M. Head-Gordon,
 Q-Chem, Version 3.1, Q-Chem, Inc., Pittsburgh, PA (2007).

 Additional authors for Version 3.1: 
 Z. Gan, Y. Zhao, N. E. Schultz, D. Truhlar, E. Epifanovsky and M. Oana.

 Additional authors for Version 3.2: 
 R. Baer, B. R. Brooks, D. Casanova, J.-D. Chai, C.-L. Cheng, 
 C. Cramer, D. Crittenden, A. Ghysels, G. Hawkins, E. G. Hohenstein, 
 C. Kelley, W. Kurlancheek, D. Liotard, E. Livshits, P. Manohar, 
 A. Marenich, D. Neuhauser, R. Olson, M. A. Rohrdanz, K. S. Thanthiriwatte, 
 A. J. W. Thom, V. Vanovschi, C. F. Williams, Q. Wu and Z.-Q. You. 


 Intel X86 Linux Version

 Q-chem begins on Thu Jul  4 11:05:41 2013  

 Parallel job on  1  processors
Processing $rem in /usr/local/qchem/config/preferences.

theFileMan(): MAXOPENFILES=974 MAX_SUB_FILE_NUM=16
Maximum size of a physical file is 2.0 GB, maximum size of a tmp-file is 32.0 GB


--------------------------------------------------------------
User input:
--------------------------------------------------------------

$molecule
0,1
Cl         0.00000        0.00000        0.01879
F          0.00000        0.00000        1.59243
F          1.66340        0.00000        0.10804
F         -1.66340        0.00000        0.10804
$end

$comment
neutral
$end

$xc_functional
C PBE   1.00
X wPBE  1.00
$end


$rem
SYMMETRY_DECOMPOSITION	0
LRC_DFT                 true
exchange 		general
BASIS                   g3large
omega			1000
mem_static              760
max_scf_cycles          200
scf_final_print         1
sym_ignore              true
$end

--------------------------------------------------------------
 Writing REM_CC_EA            4
 ----------------------------------------------------
       Standard Nuclear Orientation (Angstroms)
    I     Atom         X            Y            Z
 ----------------------------------------------------
    1      Cl      0.000000     0.000000     0.018790
    2      F       0.000000     0.000000     1.592430
    3      F       1.663400     0.000000     0.108040
    4      F      -1.663400     0.000000     0.108040
 ----------------------------------------------------
 Nuclear Repulsion Energy =   199.9948579389 hartrees
 There are       22 alpha and       22 beta electrons
 Requested basis set is G3large
 There are 49 shells and 192 basis functions

Total QAlloc Memory Limit   2000 MB
Mega-Array Size       743 MB
MEM_STATIC part       760 MB

                       Distance Matrix (Angstroms)
             Cl(  1)   F (  2)   F (  3)
   F (  2)  1.573640
   F (  3)  1.665793  2.229420
   F (  4)  1.665793  2.229420  3.326800
 
 A cutoff of  1.0D-08 yielded   1013 shell pairs
 There are  16002 function pairs ( 21671 Cartesian)
Evaluating contribution to one-electron hamiltonian from nuclear
 Smallest overlap matrix eigenvalue = 1.53E-03
 Multipole matrices computed through 2nd order

  Scale SEOQF with 1.000000e-01/1.000000e-01/1.000000e-01

 Standard Electronic Orientation quadrupole field applied
 Nucleus-field energy     =    -0.0000000007 hartrees
 Guess from superposition of atomic densities
 Warning:  Energy on first SCF cycle will be non-variational
 Long-range K will be added via erf
 Coulomb attenuation parameter = 1 bohr**(-1)
 A restricted Kohn-Sham SCF calculation will be
 performed using Pulay DIIS extrapolation
 Exchange:  wPBE + LR-HF      Correlation:  PBE
 Using SG-1 standard quadrature grid
 SCF converges when DIIS error is below 1.0E-05
 Requested basis set is G3large
 There are 49 shells and 192 basis functions
 A cutoff of  1.0D-08 yielded   1013 shell pairs
 There are  16002 function pairs ( 21671 Cartesian)
 ---------------------------------------
  Cycle       Energy         DIIS Error
 ---------------------------------------
    1    -760.1441329143      2.76E-02
    2    -759.2340931663      6.79E-03
    3    -759.3224829099      5.14E-03
    4    -759.3911016408      7.04E-04
    5    -759.3938569534      2.66E-04
    6    -759.3948031460      1.09E-04
    7    -759.3950007532      5.37E-05
    8    -759.3950374770      2.20E-05
    9    -759.3950424276      5.63E-06 Convergence criterion met
 ---------------------------------------
 One-Electron    Energy = -1449.7465621956
 Total Coulomb   Energy =   549.7899910644
 Alpha Exchange  Energy =    -9.5762049729
 Beta  Exchange  Energy =    -9.5762049729
 DFT   Exchange  Energy =   -38.6584498568
 DFT Correlation Energy =    -1.6224694321
 Nuclear Repu.   Energy =   199.9948579382
 Nuclear Attr.   Energy = -2207.8384917476
 Kinetic         Energy =   758.0919295520
 SCF time:  CPU 74.93 s  wall 75.26 s
 Final Alpha MO Eigenvalues
            1           2           3           4           5           6
    1-101.4976006 -24.8787549 -24.7791295 -24.7789402  -9.9945362  -7.7735482
            7           8           9          10          11          12
    1  -7.7691348  -7.7499466  -1.6874813  -1.5428319  -1.5397831  -1.1703824
           13          14          15          16          17          18
    1  -0.8605124  -0.8479023  -0.8287357  -0.7608883  -0.7068469  -0.6861387
           19          20          21          22          23          24
    1  -0.6659052  -0.6525042  -0.5845534  -0.5474278  -0.0070207   0.0833912
           25          26          27
    1   0.0857885   0.1097292   0.1286277
 Analysis of SCF Wavefunction
 
 --------------------------------------------------------------
                    Orbital Energies (a.u.)
 --------------------------------------------------------------
 
 Alpha MOs
 -- Occupied --
******* -24.879 -24.779 -24.779  -9.995  -7.774  -7.769  -7.750
 -1.687  -1.543  -1.540  -1.170  -0.861  -0.848  -0.829  -0.761
 -0.707  -0.686  -0.666  -0.653  -0.585  -0.547
 -- Virtual --
 -0.007   0.083   0.086   0.110   0.129   0.156   0.275   0.281
  0.302   0.304   0.306   0.344   0.390   0.392   0.397   0.399
  0.427   0.435   0.472   0.491   0.504   0.522   0.556   0.591
  0.794   0.831   1.103   1.141   1.147   1.148   1.169   1.247
  1.252   1.318   1.320   1.331   1.392   1.410   1.474   1.480
  1.509   1.517   1.520   1.582   1.587   1.631   1.704   1.907
  2.084   2.115   2.159   2.186   2.211   2.229   2.237   2.338
  2.363   2.372   2.376   2.470   2.494   2.498   2.692   2.915
  3.006   3.026   3.060   3.225   3.814   4.457   4.476   4.513
  4.540   4.616   4.703   4.795   5.126   5.139   5.145   5.384
  5.550   6.377   6.406   6.464   6.483   6.485   6.538   6.547
  6.649   6.818   6.831   6.854   6.864   6.883   6.902   6.926
  6.929   6.930   6.931   6.949   6.954   6.964   6.965   6.982
  6.984   7.002   7.035   7.082   7.085   7.176   7.429   9.304
  9.332   9.360   9.416   9.423   9.423   9.476   9.519   9.569
  9.647   9.755   9.782   9.836  10.057  10.211  10.340  20.639
 20.870  21.475  27.248  27.251  27.266  27.317  27.551  36.869
 36.876  36.880  36.884  36.889  36.909  36.920  50.344  50.371
 50.424  50.429  50.439  50.454  50.472  50.484  50.511  50.584
 50.610  50.619  50.623  50.636  50.754  55.815  55.841  55.900
 55.911  55.930  55.963  55.965  56.013  56.226  66.883  66.938
 67.010 215.845
 --------------------------------------------------------------
 
          Ground-State Mulliken Net Atomic Charges

     Atom                 Charge (a.u.)
  ----------------------------------------
      1 Cl                    0.648830
      2 F                    -0.095948
      3 F                    -0.276468
      4 F                    -0.276414
  ----------------------------------------
  Sum of atomic charges =     0.000000

 -----------------------------------------------------------------
                    Cartesian Multipole Moments
 -----------------------------------------------------------------
    Charge (ESU x 10^10)
                 0.0000
    Dipole Moment (Debye)
         X      -0.0004      Y      -0.0001      Z      -0.6907
       Tot       0.6907
    Quadrupole Moments (Debye-Ang)
        XX     -33.2054     XY       0.0000     YY     -25.8465
        XZ       0.0000     YZ      -0.0003     ZZ     -25.7816
    Octapole Moments (Debye-Ang^2)
       XXX      -0.0006    XXY       0.0006    XYY       0.0003
       YYY      -0.0003    XXZ      -9.6927    XYZ       0.0000
       YYZ      -8.4606    XZZ       0.0002    YZZ       0.0012
       ZZZ     -27.2992
    Hexadecapole Moments (Debye-Ang^3)
      XXXX    -203.4432   XXXY      -0.0002   XXYY     -34.6152
      XYYY       0.0000   YYYY     -19.4907   XXXZ      -0.0001
      XXYZ       0.0000   XYYZ       0.0000   YYYZ      -0.0001
      XXZZ     -46.4344   XYZZ       0.0000   YYZZ     -18.3512
      XZZZ       0.0000   YZZZ       0.0014   ZZZZ     -88.6000
 -----------------------------------------------------------------
 Total job time:  75.50s(wall), 75.15s(cpu) 
 Thu Jul  4 11:06:56 2013

        *************************************************************
        *                                                           *
        *  Thank you very much for using Q-Chem.  Have a nice day.  *
        *                                                           *
        *************************************************************


0 sent ACK to 0 
now end server 0 ... 
 
**********************************************************************
Job 3 of 3 
**********************************************************************
 
Process 0 of 1 is on cl142.stfx.acenet.ca - thread support 1
initial socket setup ...start
initial socket setup ...done 
now start server 0 ... 

cmd = /usr/bin/ssh clhead /usr/local/qchem/bin/get_hostid 995339056 > /scratch/tmp/6060719.1.medium.q/qchem19037/lic.dat
                  Welcome to Q-Chem
     A Quantum Leap Into The Future Of Chemistry

 Y. Shao, L. Fusti-Molnar, Y. Jung, J. Kussmann, C. Ochsenfeld,
 S. T. Brown, A. T. B. Gilbert, L. V. Slipchenko,S. V. Levchenko,
 D. P. O'Neill, R. A. DiStasio Jr., R. C. Lochan, T. Wang,
 G. J. O. Beran, N. A. Besley, J. M. Herbert, C. Y. Lin,
 T. Van Voorhis, S. H. Chien, A. Sodt, R. P. Steele, 
 V. A. Rassolov, P. E. Maslen, P. P. Korambath, R. D. Adamson,
 B. Austin, J. Baker, E. F. C. Byrd, H. Dachsel, R. J. Doerksen,
 A. Dreuw, B. D. Dunietz, A. D. Dutoi, T. R. Furlani,
 S. R. Gwaltney, A. Heyden, S. Hirata, C.-P. Hsu, G. Kedziora,
 R. Z. Khaliullin, P. Klunzinger, A. M. Lee, M. S. Lee, W. Liang,
 I. Lotan, N. Nair, B. Peters, E. I. Proynov, P. A. Pieniazek, 
 Y. M. Rhee, J. Ritchie, E. Rosta, C. D. Sherrill, 
 A. C. Simmonett, J. E. Subotnik, H. L. Woodcock III,
 W. Zhang, A. T. Bell, A. K. Chakraborty, D. M. Chipman,
 F. J. Keil, A. Warshel, W. J. Hehre, H. F. Schaefer III,
 J. Kong, A. I. Krylov, P. M. W. Gill, M. Head-Gordon,
 Q-Chem, Version 3.1, Q-Chem, Inc., Pittsburgh, PA (2007).

 Additional authors for Version 3.1: 
 Z. Gan, Y. Zhao, N. E. Schultz, D. Truhlar, E. Epifanovsky and M. Oana.

 Additional authors for Version 3.2: 
 R. Baer, B. R. Brooks, D. Casanova, J.-D. Chai, C.-L. Cheng, 
 C. Cramer, D. Crittenden, A. Ghysels, G. Hawkins, E. G. Hohenstein, 
 C. Kelley, W. Kurlancheek, D. Liotard, E. Livshits, P. Manohar, 
 A. Marenich, D. Neuhauser, R. Olson, M. A. Rohrdanz, K. S. Thanthiriwatte, 
 A. J. W. Thom, V. Vanovschi, C. F. Williams, Q. Wu and Z.-Q. You. 


 Intel X86 Linux Version

 Q-chem begins on Thu Jul  4 11:06:59 2013  

 Parallel job on  1  processors
Processing $rem in /usr/local/qchem/config/preferences.

theFileMan(): MAXOPENFILES=974 MAX_SUB_FILE_NUM=16
Maximum size of a physical file is 2.0 GB, maximum size of a tmp-file is 32.0 GB


--------------------------------------------------------------
User input:
--------------------------------------------------------------

$molecule
1,2
Cl         0.00000        0.00000        0.01879
F          0.00000        0.00000        1.59243
F          1.66340        0.00000        0.10804
F         -1.66340        0.00000        0.10804
$end

$comment
positive
$end

$xc_functional
C PBE   1.00
X wPBE  1.00
$end

$rem
SYMMETRY_DECOMPOSITION	0
LRC_DFT                 true
exchange 		general
BASIS                   g3large
omega			1000
mem_static              760
max_scf_cycles          200
scf_final_print         1
sym_ignore              true
$end

--------------------------------------------------------------
 Writing REM_CC_EA            4
 ----------------------------------------------------
       Standard Nuclear Orientation (Angstroms)
    I     Atom         X            Y            Z
 ----------------------------------------------------
    1      Cl      0.000000     0.000000     0.018790
    2      F       0.000000     0.000000     1.592430
    3      F       1.663400     0.000000     0.108040
    4      F      -1.663400     0.000000     0.108040
 ----------------------------------------------------
 Nuclear Repulsion Energy =   199.9948579389 hartrees
 There are       22 alpha and       21 beta electrons
 Requested basis set is G3large
 There are 49 shells and 192 basis functions

Total QAlloc Memory Limit   2000 MB
Mega-Array Size       743 MB
MEM_STATIC part       760 MB

                       Distance Matrix (Angstroms)
             Cl(  1)   F (  2)   F (  3)
   F (  2)  1.573640
   F (  3)  1.665793  2.229420
   F (  4)  1.665793  2.229420  3.326800
 
 A cutoff of  1.0D-08 yielded   1013 shell pairs
 There are  16002 function pairs ( 21671 Cartesian)
Evaluating contribution to one-electron hamiltonian from nuclear
 Smallest overlap matrix eigenvalue = 1.53E-03
 Multipole matrices computed through 2nd order

  Scale SEOQF with 1.000000e-01/1.000000e-01/1.000000e-01

 Standard Electronic Orientation quadrupole field applied
 Nucleus-field energy     =    -0.0000000007 hartrees
 Guess from superposition of atomic densities
 Warning:  Energy on first SCF cycle will be non-variational
 Long-range K will be added via erf
 Coulomb attenuation parameter = 1 bohr**(-1)
 An unrestricted Kohn-Sham SCF calculation will be
 performed using Pulay DIIS extrapolation
 Exchange:  wPBE + LR-HF      Correlation:  PBE
 Using SG-1 standard quadrature grid
 SCF converges when DIIS error is below 1.0E-05
 Requested basis set is G3large
 There are 49 shells and 192 basis functions
 A cutoff of  1.0D-08 yielded   1013 shell pairs
 There are  16002 function pairs ( 21671 Cartesian)
 Warning!  Inaccurate integrated density:
   Number of electrons =    43
   Numerical integral  =    43.999579668551
   Relative error      =     2.3246038804 %
 ---------------------------------------
  Cycle       Energy         DIIS Error
 ---------------------------------------
    1    -760.1441329143      2.76E-02
    2    -758.5981275307      8.02E-03
    3    -758.7222945116      7.02E-03
    4    -758.8655280779      1.29E-03
    5    -758.8732078919      3.83E-04
    6    -758.8764529524      2.19E-04
    7    -758.8777197912      1.40E-04
    8    -758.8785934827      5.08E-05
    9    -758.8787807953      2.80E-05
   10    -758.8788204242      1.70E-05
   11    -758.8788426080      9.82E-06 Convergence criterion met
 ---------------------------------------
 One-Electron    Energy = -1435.0210538856
 Total Coulomb   Energy =   535.0317440914
 Alpha Exchange  Energy =    -9.6303352735
 Beta  Exchange  Energy =    -9.1467190058
 DFT   Exchange  Energy =   -38.5266420534
 DFT Correlation Energy =    -1.5806944192
 Nuclear Repu.   Energy =   199.9948579382
 Nuclear Attr.   Energy = -2192.1302500316
 Kinetic         Energy =   757.1091961460
 <S^2> = 0.7693
 SCF time:  CPU 108.67 s  wall 109.36 s
 Final Alpha MO Eigenvalues
            1           2           3           4           5           6
    1-101.9139969 -25.2001312 -25.1142563 -25.1128623 -10.3974957  -8.1721513
            7           8           9          10          11          12
    1  -8.1701061  -8.1668004  -2.0098733  -1.8626913  -1.8574693  -1.5240374
           13          14          15          16          17          18
    1  -1.1786100  -1.1752992  -1.1603327  -1.0645597  -1.0316127  -1.0115210
           19          20          21          22          23          24
    1  -0.9701977  -0.9587781  -0.9152339  -0.9010902  -0.3280851  -0.2258782
           25          26          27
    1  -0.1110853  -0.0707362  -0.0518613
 Final Beta MO Eigenvalues
            1           2           3           4           5           6
    1-101.9086220 -25.1976368 -25.1079091 -25.1068961 -10.3919982  -8.1690522
            7           8           9          10          11          12
    1  -8.1645932  -8.1526514  -1.9952442  -1.8447623  -1.8408939  -1.4655663
           13          14          15          16          17          18
    1  -1.1682072  -1.1582337  -1.0916586  -1.0608543  -0.9639146  -0.9569015
           19          20          21          22          23          24
    1  -0.9530108  -0.9194341  -0.8837206  -0.4829305  -0.3061511  -0.2089489
           25          26
    1  -0.1102914  -0.0660010
 Analysis of SCF Wavefunction
 
 --------------------------------------------------------------
                    Orbital Energies (a.u.)
 --------------------------------------------------------------
 
 Alpha MOs
 -- Occupied --
******* -25.200 -25.114 -25.113 -10.397  -8.172  -8.170  -8.167
 -2.010  -1.863  -1.857  -1.524  -1.179  -1.175  -1.160  -1.065
 -1.032  -1.012  -0.970  -0.959  -0.915  -0.901
 -- Virtual --
 -0.328  -0.226  -0.111  -0.071  -0.052  -0.038   0.037   0.047
  0.060   0.099   0.103   0.133   0.148   0.150   0.174   0.182
  0.198   0.204   0.233   0.252   0.285   0.291   0.292   0.351
  0.526   0.558   0.792   0.798   0.814   0.837   0.867   0.911
  0.948   0.992   1.012   1.014   1.124   1.156   1.190   1.218
  1.245   1.251   1.265   1.317   1.328   1.370   1.412   1.615
  1.802   1.803   1.825   1.896   1.920   1.931   1.939   2.041
  2.065   2.069   2.082   2.152   2.184   2.194   2.393   2.624
  2.697   2.711   2.755   2.913   3.513   4.080   4.085   4.137
  4.148   4.233   4.361   4.439   4.751   4.755   4.765   5.005
  5.205   6.071   6.102   6.140   6.160   6.174   6.234   6.235
  6.343   6.513   6.530   6.555   6.566   6.581   6.592   6.615
  6.619   6.620   6.621   6.638   6.646   6.648   6.659   6.669
  6.673   6.686   6.719   6.777   6.778   6.862   7.108   8.991
  9.016   9.034   9.090   9.097   9.101   9.163   9.190   9.254
  9.295   9.445   9.452   9.519   9.736   9.892   9.998  20.220
 20.476  21.080  26.838  26.841  26.872  26.901  27.158  36.467
 36.473  36.476  36.480  36.484  36.514  36.521  50.022  50.049
 50.086  50.091  50.105  50.131  50.134  50.156  50.171  50.259
 50.278  50.288  50.291  50.307  50.422  55.492  55.520  55.571
 55.574  55.590  55.636  55.637  55.685  55.894  66.563  66.605
 66.677 215.432
 
 Beta MOs
 -- Occupied --
******* -25.198 -25.108 -25.107 -10.392  -8.169  -8.165  -8.153
 -1.995  -1.845  -1.841  -1.466  -1.168  -1.158  -1.092  -1.061
 -0.964  -0.957  -0.953  -0.919  -0.884
 -- Virtual --
 -0.483  -0.306  -0.209  -0.110  -0.066  -0.052  -0.037   0.061
  0.064   0.090   0.099   0.103   0.133   0.161   0.168   0.175
  0.183   0.199   0.208   0.247   0.252   0.285   0.291   0.318
  0.358   0.528   0.558   0.801   0.839   0.841   0.842   0.872
  0.936   0.954   1.013   1.018   1.026   1.126   1.157   1.197
  1.225   1.254   1.263   1.268   1.330   1.331   1.372   1.417
  1.622   1.805   1.831   1.849   1.903   1.930   1.944   1.945
  2.054   2.074   2.078   2.087   2.158   2.191   2.206   2.401
  2.625   2.702   2.729   2.758   2.919   3.517   4.105   4.122
  4.163   4.187   4.264   4.363   4.453   4.765   4.766   4.769
  5.022   5.207   6.082   6.106   6.165   6.180   6.185   6.238
  6.241   6.346   6.518   6.534   6.561   6.567   6.585   6.601
  6.627   6.630   6.632   6.633   6.648   6.652   6.659   6.664
  6.679   6.682   6.693   6.731   6.780   6.781   6.867   7.113
  9.003   9.030   9.055   9.111   9.118   9.119   9.168   9.212
  9.264   9.305   9.449   9.475   9.525   9.744   9.902  10.003
 20.242  20.478  21.083  26.852  26.854  26.875  26.919  27.160
 36.470  36.477  36.479  36.484  36.487  36.515  36.523  50.031
 50.057  50.103  50.108  50.120  50.133  50.151  50.166  50.189
 50.262  50.291  50.297  50.298  50.312  50.430  55.499  55.522
 55.577  55.586  55.604  55.639  55.640  55.688  55.898  66.565
 66.611  66.683 215.438
 --------------------------------------------------------------
 
          Ground-State Mulliken Net Atomic Charges

     Atom                 Charge (a.u.)    Spin (a.u.)
  --------------------------------------------------------
      1 Cl                    0.999835       0.599891
      2 F                     0.087112       0.057953
      3 F                    -0.044558       0.166310
      4 F                    -0.042390       0.175846
  --------------------------------------------------------
  Sum of atomic charges =     1.000000
  Sum of spin   charges =     1.000000

 -----------------------------------------------------------------
                    Cartesian Multipole Moments
 -----------------------------------------------------------------
    Charge (ESU x 10^10)
                 4.8032
    Dipole Moment (Debye)
         X      -0.0120      Y       0.0220      Z       0.5568
       Tot       0.5574
    Quadrupole Moments (Debye-Ang)
        XX     -24.7161     XY       0.0015     YY     -22.7728
        XZ      -0.0018     YZ      -0.0249     ZZ     -21.6110
    Octapole Moments (Debye-Ang^2)
       XXX      -0.0439    XXY      -0.0792    XYY      -0.0061
       YYY       0.0182    XXZ      -8.4934    XYZ      -0.0002
       YYZ      -8.1525    XZZ      -0.0021    YZZ       0.0090
       ZZZ     -21.4134
    Hexadecapole Moments (Debye-Ang^3)
      XXXX    -163.7337   XXXY       0.0049   XXYY     -30.8093
      XYYY       0.0008   YYYY     -15.0925   XXXZ      -0.0029
      XXYZ      -0.0213   XYYZ      -0.0015   YYYZ      -0.0168
      XXZZ     -42.5457   XYZZ       0.0002   YYZZ     -16.3729
      XZZZ       0.0006   YZZZ      -0.0177   ZZZZ     -73.2019
 -----------------------------------------------------------------
 Total job time:  109.59s(wall), 108.89s(cpu) 
 Thu Jul  4 11:08:49 2013

        *************************************************************
        *                                                           *
        *  Thank you very much for using Q-Chem.  Have a nice day.  *
        *                                                           *
        *************************************************************


0 sent ACK to 0 
now end server 0 ... 
