Process 0 of 1 is on cl232.stfx.acenet.ca - thread support 1
initial socket setup ...start
initial socket setup ...done 
now start server 0 ... 

cmd = /usr/bin/ssh clhead /usr/local/qchem/bin/get_hostid 1606257541 > /scratch/tmp/6064755.1.long.q/qchem25007/lic.dat
                  Welcome to Q-Chem
     A Quantum Leap Into The Future Of Chemistry

 Y. Shao, L. Fusti-Molnar, Y. Jung, J. Kussmann, C. Ochsenfeld,
 S. T. Brown, A. T. B. Gilbert, L. V. Slipchenko,S. V. Levchenko,
 D. P. O'Neill, R. A. DiStasio Jr., R. C. Lochan, T. Wang,
 G. J. O. Beran, N. A. Besley, J. M. Herbert, C. Y. Lin,
 T. Van Voorhis, S. H. Chien, A. Sodt, R. P. Steele, 
 V. A. Rassolov, P. E. Maslen, P. P. Korambath, R. D. Adamson,
 B. Austin, J. Baker, E. F. C. Byrd, H. Dachsel, R. J. Doerksen,
 A. Dreuw, B. D. Dunietz, A. D. Dutoi, T. R. Furlani,
 S. R. Gwaltney, A. Heyden, S. Hirata, C.-P. Hsu, G. Kedziora,
 R. Z. Khaliullin, P. Klunzinger, A. M. Lee, M. S. Lee, W. Liang,
 I. Lotan, N. Nair, B. Peters, E. I. Proynov, P. A. Pieniazek, 
 Y. M. Rhee, J. Ritchie, E. Rosta, C. D. Sherrill, 
 A. C. Simmonett, J. E. Subotnik, H. L. Woodcock III,
 W. Zhang, A. T. Bell, A. K. Chakraborty, D. M. Chipman,
 F. J. Keil, A. Warshel, W. J. Hehre, H. F. Schaefer III,
 J. Kong, A. I. Krylov, P. M. W. Gill, M. Head-Gordon,
 Q-Chem, Version 3.1, Q-Chem, Inc., Pittsburgh, PA (2007).

 Additional authors for Version 3.1: 
 Z. Gan, Y. Zhao, N. E. Schultz, D. Truhlar, E. Epifanovsky and M. Oana.

 Additional authors for Version 3.2: 
 R. Baer, B. R. Brooks, D. Casanova, J.-D. Chai, C.-L. Cheng, 
 C. Cramer, D. Crittenden, A. Ghysels, G. Hawkins, E. G. Hohenstein, 
 C. Kelley, W. Kurlancheek, D. Liotard, E. Livshits, P. Manohar, 
 A. Marenich, D. Neuhauser, R. Olson, M. A. Rohrdanz, K. S. Thanthiriwatte, 
 A. J. W. Thom, V. Vanovschi, C. F. Williams, Q. Wu and Z.-Q. You. 


 Intel X86 Linux Version

 Q-chem begins on Mon Jul  8 12:24:35 2013  

 Parallel job on  1  processors
Processing $rem in /usr/local/qchem/config/preferences.

theFileMan(): MAXOPENFILES=974 MAX_SUB_FILE_NUM=16
Maximum size of a physical file is 2.0 GB, maximum size of a tmp-file is 32.0 GB


--------------------------------------------------------------
User input:
--------------------------------------------------------------

$molecule
-1,2
N         -0.00002        0.00000       -0.02016
F          1.20897        0.00000       -0.60646
F         -0.60449       -1.04702       -0.60646
F         -0.60449        1.04702       -0.60646
$end

$comment
negative
$end

$xc_functional
C PBE   1.00
X wPBE  1.00
$end

$rem
SYMMETRY_DECOMPOSITION	0
exchange 		general
LRC_DFT                 true
BASIS                   g3large
omega			200
mem_static              760
max_scf_cycles          200
scf_final_print         1
sym_ignore              true
$end

--------------------------------------------------------------
 Writing REM_CC_EA            4
 ----------------------------------------------------
       Standard Nuclear Orientation (Angstroms)
    I     Atom         X            Y            Z
 ----------------------------------------------------
    1      N      -0.000020     0.000000    -0.020160
    2      F       1.208970     0.000000    -0.606460
    3      F      -0.604490    -1.047020    -0.606460
    4      F      -0.604490     1.047020    -0.606460
 ----------------------------------------------------
 Nuclear Repulsion Energy =   135.8432244769 hartrees
 There are       18 alpha and       17 beta electrons
 Requested basis set is G3large
 There are 40 shells and 168 basis functions

Total QAlloc Memory Limit   2000 MB
Mega-Array Size       743 MB
MEM_STATIC part       760 MB

                       Distance Matrix (Angstroms)
             N (  1)   F (  2)   F (  3)
   F (  2)  1.343653
   F (  3)  1.343645  2.094012
   F (  4)  1.343645  2.094012  2.094040
 
 A cutoff of  1.0D-08 yielded    709 shell pairs
 There are  12942 function pairs ( 16926 Cartesian)
Evaluating contribution to one-electron hamiltonian from nuclear
 Smallest overlap matrix eigenvalue = 1.78E-03
 Multipole matrices computed through 2nd order

  Scale SEOQF with 1.000000e-01/1.000000e-01/1.000000e-01

 Standard Electronic Orientation quadrupole field applied
 Nucleus-field energy     =     0.0000000010 hartrees
 Guess from superposition of atomic densities
 Warning:  Energy on first SCF cycle will be non-variational
 Long-range K will be added via erf
 Coulomb attenuation parameter = 0.2 bohr**(-1)
 An unrestricted Kohn-Sham SCF calculation will be
 performed using Pulay DIIS extrapolation
 Exchange:  wPBE + LR-HF      Correlation:  PBE
 Using SG-1 standard quadrature grid
 SCF converges when DIIS error is below 1.0E-05
 Requested basis set is G3large
 There are 40 shells and 168 basis functions
 A cutoff of  1.0D-08 yielded    709 shell pairs
 There are  12942 function pairs ( 16926 Cartesian)
 Warning!  Inaccurate integrated density:
   Number of electrons =    35
   Numerical integral  =    34.000286405006
   Relative error      =    -2.8563245571 %
 ---------------------------------------
  Cycle       Energy         DIIS Error
 ---------------------------------------
    1    -354.4502774402      3.02E-02
    2    -353.7103345579      6.85E-03
    3    -353.6845558185      8.55E-03
    4    -353.8216840854      1.24E-03
    5    -353.8256278310      3.76E-04
    6    -353.8267932352      3.49E-04
    7    -353.8274445014      1.82E-04
    8    -353.8278471294      1.20E-04
    9    -353.8280653308      4.79E-05
   10    -353.8281819024      2.19E-05
   11    -353.8282492812      2.18E-05
   12    -353.8282313134      2.17E-05
   13    -353.8281102861      2.03E-05
   14    -353.8278745464      2.05E-05
   15    -353.8278603629      1.39E-05
   16    -353.8278403638      1.26E-05
   17    -353.8278664176      1.18E-05
   18    -353.8278845946      6.75E-06 Convergence criterion met
 ---------------------------------------
 One-Electron    Energy =  -769.0751746941
 Total Coulomb   Energy =   317.5031358195
 Alpha Exchange  Energy =    -1.9559002575
 Beta  Exchange  Energy =    -1.8717633617
 DFT   Exchange  Energy =   -33.0706466272
 DFT Correlation Energy =    -1.2007599516
 Nuclear Repu.   Energy =   135.8432244780
 Nuclear Attr.   Energy = -1123.1155378815
 Kinetic         Energy =   354.0403631874
 <S^2> = 0.7512
 SCF time:  CPU 107.72 s  wall 108.50 s
 Final Alpha MO Eigenvalues
            1           2           3           4           5           6
    1 -24.2043671 -24.2036219 -24.1893624 -14.1004826  -1.1776221  -1.0445513
            7           8           9          10          11          12
    1  -1.0369471  -0.6364171  -0.4690950  -0.4666594  -0.4091521  -0.3224907
           13          14          15          16          17          18
    1  -0.3202676  -0.2766513  -0.2698964  -0.2543020  -0.1663921   0.1152118
           19          20          21          22          23
    1   0.2515633   0.2760862   0.2960139   0.3316108   0.3357903
 Final Beta MO Eigenvalues
            1           2           3           4           5           6
    1 -24.2028645 -24.2020393 -24.1863664 -14.0937938  -1.1718411  -1.0416782
            7           8           9          10          11          12
    1  -1.0304158  -0.6292516  -0.4656927  -0.4535298  -0.4042125  -0.3181948
           13          14          15          16          17          18
    1  -0.3158206  -0.2748745  -0.2663662  -0.2500273  -0.1561590   0.2632087
           19          20          21          22
    1   0.2817281   0.2867743   0.3073440   0.3401110
 Analysis of SCF Wavefunction
 
 --------------------------------------------------------------
                    Orbital Energies (a.u.)
 --------------------------------------------------------------
 
 Alpha MOs
 -- Occupied --
-24.204 -24.204 -24.189 -14.100  -1.178  -1.045  -1.037  -0.636
 -0.469  -0.467  -0.409  -0.322  -0.320  -0.277  -0.270  -0.254
 -0.166   0.115
 -- Virtual --
  0.252   0.276   0.296   0.332   0.336   0.348   0.420   0.430
  0.467   0.469   0.480   0.543   0.545   0.562   0.563   0.616
  0.662   0.665   0.981   0.985   1.015   1.252   1.259   1.259
  1.438   1.442   1.493   1.511   1.513   1.576   1.618   1.624
  1.647   1.650   1.889   1.890   2.065   2.070   2.114   2.172
  2.214   2.221   2.296   2.329   2.332   2.427   2.430   2.438
  2.821   2.823   2.919   2.934   2.935   3.074   3.841   4.033
  4.035   4.050   4.229   4.231   4.251   4.618   4.701   4.703
  5.096   5.154   5.159   5.201   5.201   6.299   6.302   6.313
  6.376   6.409   6.411   6.729   6.730   6.771   6.773   6.774
  6.780   6.783   6.784   6.786   6.792   6.796   6.804   7.004
  7.005   7.035   7.157   7.294   7.297   7.455   7.459   7.464
  7.582   8.080   8.085   9.179   9.184   9.208   9.221   9.229
  9.237   9.510   9.535   9.540   9.699   9.761   9.766   9.931
 10.165  10.171  35.443  37.523  38.054  38.058  40.405  40.437
 40.525  40.638  40.665  50.124  50.132  50.148  50.166  50.175
 50.182  50.244  50.256  50.269  50.333  50.351  50.356  50.464
 50.489  50.502  55.629  55.635  55.637  55.701  55.708  55.709
 56.023  56.217  56.225  66.637  66.646  66.709
 
 Beta MOs
 -- Occupied --
-24.203 -24.202 -24.186 -14.094  -1.172  -1.042  -1.030  -0.629
 -0.466  -0.454  -0.404  -0.318  -0.316  -0.275  -0.266  -0.250
 -0.156
 -- Virtual --
  0.263   0.282   0.287   0.307   0.340   0.356   0.370   0.435
  0.442   0.473   0.474   0.485   0.547   0.553   0.566   0.570
  0.619   0.664   0.670   0.991   1.004   1.023   1.255   1.264
  1.268   1.441   1.452   1.497   1.515   1.517   1.582   1.628
  1.628   1.650   1.655   1.897   1.900   2.066   2.073   2.116
  2.174   2.216   2.223   2.300   2.335   2.337   2.428   2.434
  2.439   2.827   2.833   2.922   2.940   2.946   3.078   3.846
  4.041   4.045   4.057   4.234   4.246   4.265   4.628   4.706
  4.721   5.108   5.168   5.181   5.221   5.228   6.302   6.305
  6.316   6.379   6.411   6.417   6.733   6.734   6.774   6.775
  6.776   6.783   6.786   6.786   6.789   6.795   6.800   6.808
  7.007   7.010   7.037   7.161   7.299   7.301   7.459   7.464
  7.470   7.590   8.085   8.093   9.184   9.189   9.213   9.226
  9.234   9.243   9.515   9.538   9.546   9.704   9.766   9.771
  9.935  10.168  10.178  35.450  37.526  38.063  38.074  40.410
 40.452  40.539  40.644  40.679  50.127  50.136  50.150  50.169
 50.178  50.184  50.248  50.258  50.272  50.336  50.353  50.360
 50.466  50.491  50.507  55.631  55.637  55.640  55.702  55.711
 55.712  56.026  56.218  56.229  66.639  66.649  66.712
 --------------------------------------------------------------
 
          Ground-State Mulliken Net Atomic Charges

     Atom                 Charge (a.u.)    Spin (a.u.)
  --------------------------------------------------------
      1 N                    -1.557318       1.535865
      2 F                     0.123221      -0.127946
      3 F                     0.114800      -0.121348
      4 F                     0.319297      -0.286571
  --------------------------------------------------------
  Sum of atomic charges =    -1.000000
  Sum of spin   charges =     1.000000

 -----------------------------------------------------------------
                    Cartesian Multipole Moments
 -----------------------------------------------------------------
    Charge (ESU x 10^10)
                -4.8032
    Dipole Moment (Debye)
         X       0.3333      Y      -0.5868      Z      -0.0311
       Tot       0.6756
    Quadrupole Moments (Debye-Ang)
        XX     -30.1680     XY       4.1580     YY     -34.4682
        XZ      -0.6299     YZ       1.2251     ZZ     -28.8686
    Octapole Moments (Debye-Ang^2)
       XXX       0.8244    XXY      -1.5242    XYY       2.5514
       YYY      -4.5420    XXZ       9.9713    XYZ       0.5339
       YYZ       9.4458    XZZ       1.0748    YZZ      -1.9432
       ZZZ      27.0692
    Hexadecapole Moments (Debye-Ang^3)
      XXXX    -128.8986   XXXY      17.7605   XXYY     -50.0588
      XYYY      19.5992   YYYY    -167.5757   XXXZ      -0.7724
      XXYZ       2.1318   XYYZ      -3.6562   YYYZ       6.3839
      XXZZ     -36.7407   XYZZ       7.4906   YYZZ     -44.5010
      XZZZ      -2.0940   YZZZ       4.0521   ZZZZ     -82.7456
 -----------------------------------------------------------------
 Total job time:  108.72s(wall), 107.90s(cpu) 
 Mon Jul  8 12:26:23 2013

        *************************************************************
        *                                                           *
        *  Thank you very much for using Q-Chem.  Have a nice day.  *
        *                                                           *
        *************************************************************


0 sent ACK to 0 
now end server 0 ... 
 
**********************************************************************
Job 2 of 3 
**********************************************************************
 
Process 0 of 1 is on cl232.stfx.acenet.ca - thread support 1
initial socket setup ...start
initial socket setup ...done 
now start server 0 ... 

cmd = /usr/bin/ssh clhead /usr/local/qchem/bin/get_hostid 826037876 > /scratch/tmp/6064755.1.long.q/qchem25007/lic.dat
                  Welcome to Q-Chem
     A Quantum Leap Into The Future Of Chemistry

 Y. Shao, L. Fusti-Molnar, Y. Jung, J. Kussmann, C. Ochsenfeld,
 S. T. Brown, A. T. B. Gilbert, L. V. Slipchenko,S. V. Levchenko,
 D. P. O'Neill, R. A. DiStasio Jr., R. C. Lochan, T. Wang,
 G. J. O. Beran, N. A. Besley, J. M. Herbert, C. Y. Lin,
 T. Van Voorhis, S. H. Chien, A. Sodt, R. P. Steele, 
 V. A. Rassolov, P. E. Maslen, P. P. Korambath, R. D. Adamson,
 B. Austin, J. Baker, E. F. C. Byrd, H. Dachsel, R. J. Doerksen,
 A. Dreuw, B. D. Dunietz, A. D. Dutoi, T. R. Furlani,
 S. R. Gwaltney, A. Heyden, S. Hirata, C.-P. Hsu, G. Kedziora,
 R. Z. Khaliullin, P. Klunzinger, A. M. Lee, M. S. Lee, W. Liang,
 I. Lotan, N. Nair, B. Peters, E. I. Proynov, P. A. Pieniazek, 
 Y. M. Rhee, J. Ritchie, E. Rosta, C. D. Sherrill, 
 A. C. Simmonett, J. E. Subotnik, H. L. Woodcock III,
 W. Zhang, A. T. Bell, A. K. Chakraborty, D. M. Chipman,
 F. J. Keil, A. Warshel, W. J. Hehre, H. F. Schaefer III,
 J. Kong, A. I. Krylov, P. M. W. Gill, M. Head-Gordon,
 Q-Chem, Version 3.1, Q-Chem, Inc., Pittsburgh, PA (2007).

 Additional authors for Version 3.1: 
 Z. Gan, Y. Zhao, N. E. Schultz, D. Truhlar, E. Epifanovsky and M. Oana.

 Additional authors for Version 3.2: 
 R. Baer, B. R. Brooks, D. Casanova, J.-D. Chai, C.-L. Cheng, 
 C. Cramer, D. Crittenden, A. Ghysels, G. Hawkins, E. G. Hohenstein, 
 C. Kelley, W. Kurlancheek, D. Liotard, E. Livshits, P. Manohar, 
 A. Marenich, D. Neuhauser, R. Olson, M. A. Rohrdanz, K. S. Thanthiriwatte, 
 A. J. W. Thom, V. Vanovschi, C. F. Williams, Q. Wu and Z.-Q. You. 


 Intel X86 Linux Version

 Q-chem begins on Mon Jul  8 12:26:26 2013  

 Parallel job on  1  processors
Processing $rem in /usr/local/qchem/config/preferences.

theFileMan(): MAXOPENFILES=974 MAX_SUB_FILE_NUM=16
Maximum size of a physical file is 2.0 GB, maximum size of a tmp-file is 32.0 GB


--------------------------------------------------------------
User input:
--------------------------------------------------------------

$molecule
0,1
N         -0.00002        0.00000       -0.02016
F          1.20897        0.00000       -0.60646
F         -0.60449       -1.04702       -0.60646
F         -0.60449        1.04702       -0.60646
$end

$comment
neutral
$end

$xc_functional
C PBE   1.00
X wPBE  1.00
$end


$rem
SYMMETRY_DECOMPOSITION	0
LRC_DFT                 true
exchange 		general
BASIS                   g3large
omega			200
mem_static              760
max_scf_cycles          200
scf_final_print         1
sym_ignore              true
$end

--------------------------------------------------------------
 Writing REM_CC_EA            4
 ----------------------------------------------------
       Standard Nuclear Orientation (Angstroms)
    I     Atom         X            Y            Z
 ----------------------------------------------------
    1      N      -0.000020     0.000000    -0.020160
    2      F       1.208970     0.000000    -0.606460
    3      F      -0.604490    -1.047020    -0.606460
    4      F      -0.604490     1.047020    -0.606460
 ----------------------------------------------------
 Nuclear Repulsion Energy =   135.8432244769 hartrees
 There are       17 alpha and       17 beta electrons
 Requested basis set is G3large
 There are 40 shells and 168 basis functions

Total QAlloc Memory Limit   2000 MB
Mega-Array Size       743 MB
MEM_STATIC part       760 MB

                       Distance Matrix (Angstroms)
             N (  1)   F (  2)   F (  3)
   F (  2)  1.343653
   F (  3)  1.343645  2.094012
   F (  4)  1.343645  2.094012  2.094040
 
 A cutoff of  1.0D-08 yielded    709 shell pairs
 There are  12942 function pairs ( 16926 Cartesian)
Evaluating contribution to one-electron hamiltonian from nuclear
 Smallest overlap matrix eigenvalue = 1.78E-03
 Multipole matrices computed through 2nd order

  Scale SEOQF with 1.000000e-01/1.000000e-01/1.000000e-01

 Standard Electronic Orientation quadrupole field applied
 Nucleus-field energy     =     0.0000000010 hartrees
 Guess from superposition of atomic densities
 Warning:  Energy on first SCF cycle will be non-variational
 Long-range K will be added via erf
 Coulomb attenuation parameter = 0.2 bohr**(-1)
 A restricted Kohn-Sham SCF calculation will be
 performed using Pulay DIIS extrapolation
 Exchange:  wPBE + LR-HF      Correlation:  PBE
 Using SG-1 standard quadrature grid
 SCF converges when DIIS error is below 1.0E-05
 Requested basis set is G3large
 There are 40 shells and 168 basis functions
 A cutoff of  1.0D-08 yielded    709 shell pairs
 There are  12942 function pairs ( 16926 Cartesian)
 ---------------------------------------
  Cycle       Energy         DIIS Error
 ---------------------------------------
    1    -354.4502774402      3.02E-02
    2    -353.7747426735      8.20E-03
    3    -353.5951743816      1.28E-02
    4    -353.9282652498      8.64E-04
    5    -353.9294472681      2.80E-04
    6    -353.9295718352      5.76E-05
    7    -353.9295821264      1.48E-05
    8    -353.9295826499      1.11E-05
    9    -353.9295827030      9.28E-07 Convergence criterion met
 ---------------------------------------
 One-Electron    Energy =  -760.9951746943
 Total Coulomb   Energy =   309.0909308833
 Alpha Exchange  Energy =    -1.8730819587
 Beta  Exchange  Energy =    -1.8730819587
 DFT   Exchange  Energy =   -32.9396830450
 DFT Correlation Energy =    -1.1827164076
 Nuclear Repu.   Energy =   135.8432244780
 Nuclear Attr.   Energy = -1114.5124035100
 Kinetic         Energy =   353.5172288157
 SCF time:  CPU 40.85 s  wall 41.56 s
 Final Alpha MO Eigenvalues
            1           2           3           4           5           6
    1 -24.4434240 -24.4434122 -24.4434030 -14.3784719  -1.4200360  -1.2790925
            7           8           9          10          11          12
    1  -1.2790804  -0.8731389  -0.7040278  -0.7040237  -0.6478979  -0.5530783
           13          14          15          16          17          18
    1  -0.5530726  -0.5052397  -0.5052288  -0.4872396  -0.4082576   0.0740329
           19          20          21          22
    1   0.0740442   0.0789482   0.1077234   0.1443345
 Analysis of SCF Wavefunction
 
 --------------------------------------------------------------
                    Orbital Energies (a.u.)
 --------------------------------------------------------------
 
 Alpha MOs
 -- Occupied --
-24.443 -24.443 -24.443 -14.378  -1.420  -1.279  -1.279  -0.873
 -0.704  -0.704  -0.648  -0.553  -0.553  -0.505  -0.505  -0.487
 -0.408
 -- Virtual --
  0.074   0.074   0.079   0.108   0.144   0.153   0.153   0.267
  0.267   0.294   0.294   0.302   0.370   0.377   0.396   0.396
  0.437   0.476   0.476   0.770   0.770   0.794   1.017   1.020
  1.020   1.236   1.236   1.286   1.301   1.301   1.361   1.403
  1.414   1.439   1.439   1.657   1.657   1.849   1.849   1.883
  1.939   1.988   1.989   2.076   2.097   2.097   2.196   2.196
  2.205   2.589   2.589   2.687   2.700   2.700   2.839   3.591
  3.788   3.788   3.800   3.985   3.985   4.006   4.375   4.461
  4.461   4.843   4.905   4.905   4.954   4.954   6.067   6.067
  6.079   6.143   6.177   6.177   6.495   6.495   6.541   6.541
  6.543   6.547   6.548   6.548   6.550   6.560   6.561   6.569
  6.768   6.769   6.799   6.919   7.057   7.057   7.216   7.223
  7.223   7.341   7.840   7.840   8.947   8.947   8.972   8.988
  8.997   8.997   9.274   9.301   9.301   9.464   9.527   9.528
  9.695   9.932   9.932  35.167  37.246  37.782  37.782  40.129
 40.163  40.251  40.362  40.391  49.886  49.893  49.899  49.927
 49.933  49.937  50.000  50.016  50.025  50.088  50.111  50.111
 50.224  50.250  50.253  55.390  55.391  55.392  55.462  55.463
 55.463  55.780  55.977  55.977  66.398  66.398  66.465
 --------------------------------------------------------------
 
          Ground-State Mulliken Net Atomic Charges

     Atom                 Charge (a.u.)
  ----------------------------------------
      1 N                    -0.086410
      2 F                     0.028821
      3 F                     0.028796
      4 F                     0.028793
  ----------------------------------------
  Sum of atomic charges =     0.000000

 -----------------------------------------------------------------
                    Cartesian Multipole Moments
 -----------------------------------------------------------------
    Charge (ESU x 10^10)
                 0.0000
    Dipole Moment (Debye)
         X       0.0002      Y       0.0000      Z       0.0508
       Tot       0.0508
    Quadrupole Moments (Debye-Ang)
        XX     -20.3971     XY       0.0000     YY     -20.3968
        XZ      -0.0001     YZ       0.0000     ZZ     -20.6471
    Octapole Moments (Debye-Ang^2)
       XXX      -0.1842    XXY       0.0000    XYY       0.1863
       YYY       0.0001    XXZ       9.1148    XYZ       0.0000
       YYZ       9.1146    XZZ       0.0007    YZZ       0.0000
       ZZZ      26.8062
    Hexadecapole Moments (Debye-Ang^3)
      XXXX     -76.5756   XXXY       0.0000   XXYY     -25.5251
      XYYY       0.0000   YYYY     -76.5787   XXXZ      -0.5469
      XXYZ       0.0000   XYYZ       0.5457   YYYZ      -0.0001
      XXZZ     -20.5533   XYZZ       0.0000   YYZZ     -20.5538
      XZZZ      -0.0010   YZZZ      -0.0001   ZZZZ     -47.7623
 -----------------------------------------------------------------
 Total job time:  41.74s(wall), 41.02s(cpu) 
 Mon Jul  8 12:27:08 2013

        *************************************************************
        *                                                           *
        *  Thank you very much for using Q-Chem.  Have a nice day.  *
        *                                                           *
        *************************************************************


0 sent ACK to 0 
now end server 0 ... 
 
**********************************************************************
Job 3 of 3 
**********************************************************************
 
Process 0 of 1 is on cl232.stfx.acenet.ca - thread support 1
initial socket setup ...start
initial socket setup ...done 
now start server 0 ... 

cmd = /usr/bin/ssh clhead /usr/local/qchem/bin/get_hostid 1407922080 > /scratch/tmp/6064755.1.long.q/qchem25007/lic.dat
                  Welcome to Q-Chem
     A Quantum Leap Into The Future Of Chemistry

 Y. Shao, L. Fusti-Molnar, Y. Jung, J. Kussmann, C. Ochsenfeld,
 S. T. Brown, A. T. B. Gilbert, L. V. Slipchenko,S. V. Levchenko,
 D. P. O'Neill, R. A. DiStasio Jr., R. C. Lochan, T. Wang,
 G. J. O. Beran, N. A. Besley, J. M. Herbert, C. Y. Lin,
 T. Van Voorhis, S. H. Chien, A. Sodt, R. P. Steele, 
 V. A. Rassolov, P. E. Maslen, P. P. Korambath, R. D. Adamson,
 B. Austin, J. Baker, E. F. C. Byrd, H. Dachsel, R. J. Doerksen,
 A. Dreuw, B. D. Dunietz, A. D. Dutoi, T. R. Furlani,
 S. R. Gwaltney, A. Heyden, S. Hirata, C.-P. Hsu, G. Kedziora,
 R. Z. Khaliullin, P. Klunzinger, A. M. Lee, M. S. Lee, W. Liang,
 I. Lotan, N. Nair, B. Peters, E. I. Proynov, P. A. Pieniazek, 
 Y. M. Rhee, J. Ritchie, E. Rosta, C. D. Sherrill, 
 A. C. Simmonett, J. E. Subotnik, H. L. Woodcock III,
 W. Zhang, A. T. Bell, A. K. Chakraborty, D. M. Chipman,
 F. J. Keil, A. Warshel, W. J. Hehre, H. F. Schaefer III,
 J. Kong, A. I. Krylov, P. M. W. Gill, M. Head-Gordon,
 Q-Chem, Version 3.1, Q-Chem, Inc., Pittsburgh, PA (2007).

 Additional authors for Version 3.1: 
 Z. Gan, Y. Zhao, N. E. Schultz, D. Truhlar, E. Epifanovsky and M. Oana.

 Additional authors for Version 3.2: 
 R. Baer, B. R. Brooks, D. Casanova, J.-D. Chai, C.-L. Cheng, 
 C. Cramer, D. Crittenden, A. Ghysels, G. Hawkins, E. G. Hohenstein, 
 C. Kelley, W. Kurlancheek, D. Liotard, E. Livshits, P. Manohar, 
 A. Marenich, D. Neuhauser, R. Olson, M. A. Rohrdanz, K. S. Thanthiriwatte, 
 A. J. W. Thom, V. Vanovschi, C. F. Williams, Q. Wu and Z.-Q. You. 


 Intel X86 Linux Version

 Q-chem begins on Mon Jul  8 12:27:11 2013  

 Parallel job on  1  processors
Processing $rem in /usr/local/qchem/config/preferences.

theFileMan(): MAXOPENFILES=974 MAX_SUB_FILE_NUM=16
Maximum size of a physical file is 2.0 GB, maximum size of a tmp-file is 32.0 GB


--------------------------------------------------------------
User input:
--------------------------------------------------------------

$molecule
1,2
N         -0.00002        0.00000       -0.02016
F          1.20897        0.00000       -0.60646
F         -0.60449       -1.04702       -0.60646
F         -0.60449        1.04702       -0.60646
$end

$comment
positive
$end

$xc_functional
C PBE   1.00
X wPBE  1.00
$end

$rem
SYMMETRY_DECOMPOSITION	0
LRC_DFT                 true
exchange 		general
BASIS                   g3large
omega			200
mem_static              760
max_scf_cycles          200
scf_final_print         1
sym_ignore              true
$end

--------------------------------------------------------------
 Writing REM_CC_EA            4
 ----------------------------------------------------
       Standard Nuclear Orientation (Angstroms)
    I     Atom         X            Y            Z
 ----------------------------------------------------
    1      N      -0.000020     0.000000    -0.020160
    2      F       1.208970     0.000000    -0.606460
    3      F      -0.604490    -1.047020    -0.606460
    4      F      -0.604490     1.047020    -0.606460
 ----------------------------------------------------
 Nuclear Repulsion Energy =   135.8432244769 hartrees
 There are       17 alpha and       16 beta electrons
 Requested basis set is G3large
 There are 40 shells and 168 basis functions

Total QAlloc Memory Limit   2000 MB
Mega-Array Size       743 MB
MEM_STATIC part       760 MB

                       Distance Matrix (Angstroms)
             N (  1)   F (  2)   F (  3)
   F (  2)  1.343653
   F (  3)  1.343645  2.094012
   F (  4)  1.343645  2.094012  2.094040
 
 A cutoff of  1.0D-08 yielded    709 shell pairs
 There are  12942 function pairs ( 16926 Cartesian)
Evaluating contribution to one-electron hamiltonian from nuclear
 Smallest overlap matrix eigenvalue = 1.78E-03
 Multipole matrices computed through 2nd order

  Scale SEOQF with 1.000000e-01/1.000000e-01/1.000000e-01

 Standard Electronic Orientation quadrupole field applied
 Nucleus-field energy     =     0.0000000010 hartrees
 Guess from superposition of atomic densities
 Warning:  Energy on first SCF cycle will be non-variational
 Long-range K will be added via erf
 Coulomb attenuation parameter = 0.2 bohr**(-1)
 An unrestricted Kohn-Sham SCF calculation will be
 performed using Pulay DIIS extrapolation
 Exchange:  wPBE + LR-HF      Correlation:  PBE
 Using SG-1 standard quadrature grid
 SCF converges when DIIS error is below 1.0E-05
 Requested basis set is G3large
 There are 40 shells and 168 basis functions
 A cutoff of  1.0D-08 yielded    709 shell pairs
 There are  12942 function pairs ( 16926 Cartesian)
 Warning!  Inaccurate integrated density:
   Number of electrons =    33
   Numerical integral  =    34.000286405006
   Relative error      =     3.0311709243 %
 ---------------------------------------
  Cycle       Energy         DIIS Error
 ---------------------------------------
    1    -354.4502774402      3.02E-02
    2    -353.1361492867      1.03E-02
    3    -352.6389957335      1.92E-02
    4    -353.4465611790      1.81E-03
    5    -353.4519584207      5.82E-04
    6    -353.4526178977      1.30E-04
    7    -353.4526554684      5.83E-05
    8    -353.4526708399      1.37E-05
    9    -353.4526737442      6.20E-06 Convergence criterion met
 ---------------------------------------
 One-Electron    Energy =  -749.2571719603
 Total Coulomb   Energy =   297.3629341948
 Alpha Exchange  Energy =    -1.8756160341
 Beta  Exchange  Energy =    -1.7610292556
 DFT   Exchange  Energy =   -32.6215116285
 DFT Correlation Energy =    -1.1435035385
 Nuclear Repu.   Energy =   135.8432244780
 Nuclear Attr.   Energy = -1101.9988113684
 Kinetic         Energy =   352.7416394081
 <S^2> = 0.7532
 SCF time:  CPU 51.78 s  wall 52.28 s
 Final Alpha MO Eigenvalues
            1           2           3           4           5           6
    1 -24.8048202 -24.8047935 -24.8045947 -14.7995940  -1.7698013  -1.6240703
            7           8           9          10          11          12
    1  -1.6239607  -1.2241964  -1.0491298  -1.0490836  -1.0151568  -0.8862729
           13          14          15          16          17          18
    1  -0.8862252  -0.8374162  -0.8373152  -0.8159197  -0.7996349  -0.2861478
           19          20          21          22
    1  -0.2861167  -0.2568520  -0.1068762  -0.0613368
 Final Beta MO Eigenvalues
            1           2           3           4           5           6
    1 -24.7991136 -24.7990990 -24.7989266 -14.7879206  -1.7588979  -1.6118407
            7           8           9          10          11          12
    1  -1.6117700  -1.2021012  -1.0360319  -1.0359721  -0.9777878  -0.8722099
           13          14          15          16          17          18
    1  -0.8721411  -0.8251466  -0.8251004  -0.8104132  -0.5451211  -0.2623167
           19          20          21
    1  -0.2622806  -0.2436599  -0.1025510
 Analysis of SCF Wavefunction
 
 --------------------------------------------------------------
                    Orbital Energies (a.u.)
 --------------------------------------------------------------
 
 Alpha MOs
 -- Occupied --
-24.805 -24.805 -24.805 -14.800  -1.770  -1.624  -1.624  -1.224
 -1.049  -1.049  -1.015  -0.886  -0.886  -0.837  -0.837  -0.816
 -0.800
 -- Virtual --
 -0.286  -0.286  -0.257  -0.107  -0.061  -0.052  -0.052   0.063
  0.063   0.080   0.080   0.084   0.146   0.178   0.197   0.197
  0.223   0.243   0.243   0.479   0.484   0.484   0.673   0.681
  0.681   0.965   0.965   1.008   1.021   1.021   1.062   1.120
  1.139   1.157   1.157   1.328   1.328   1.554   1.555   1.560
  1.614   1.673   1.673   1.762   1.762   1.775   1.871   1.871
  1.888   2.251   2.251   2.356   2.364   2.364   2.507   3.204
  3.423   3.430   3.430   3.625   3.625   3.653   4.018   4.110
  4.110   4.434   4.506   4.506   4.569   4.569   5.730   5.730
  5.736   5.814   5.836   5.836   6.154   6.154   6.208   6.209
  6.210   6.210   6.216   6.216   6.221   6.226   6.226   6.234
  6.428   6.428   6.467   6.573   6.716   6.716   6.871   6.874
  6.874   6.986   7.487   7.488   8.600   8.600   8.619   8.639
  8.650   8.650   8.933   8.947   8.948   9.110   9.183   9.184
  9.352   9.586   9.586  34.750  36.816  37.369  37.369  39.700
 39.752  39.836  39.940  39.973  49.522  49.530  49.537  49.566
 49.571  49.575  49.640  49.651  49.663  49.727  49.747  49.752
 49.863  49.888  49.891  55.029  55.032  55.032  55.100  55.100
 55.106  55.417  55.616  55.616  66.039  66.039  66.105
 
 Beta MOs
 -- Occupied --
-24.799 -24.799 -24.799 -14.788  -1.759  -1.612  -1.612  -1.202
 -1.036  -1.036  -0.978  -0.872  -0.872  -0.825  -0.825  -0.810
 -- Virtual --
 -0.545  -0.262  -0.262  -0.244  -0.103  -0.056  -0.051  -0.051
  0.066   0.066   0.081   0.081   0.087   0.149   0.178   0.198
  0.198   0.226   0.245   0.245   0.490   0.490   0.511   0.690
  0.690   0.699   0.972   0.972   1.013   1.027   1.027   1.072
  1.132   1.142   1.166   1.166   1.339   1.339   1.561   1.561
  1.572   1.623   1.679   1.679   1.781   1.781   1.784   1.879
  1.879   1.889   2.268   2.268   2.373   2.376   2.377   2.520
  3.248   3.447   3.447   3.451   3.645   3.645   3.658   4.038
  4.121   4.121   4.491   4.547   4.547   4.598   4.598   5.740
  5.740   5.754   5.818   5.854   5.854   6.169   6.169   6.218
  6.218   6.221   6.222   6.226   6.227   6.227   6.239   6.239
  6.247   6.441   6.441   6.474   6.590   6.726   6.726   6.883
  6.892   6.892   7.004   7.500   7.500   8.616   8.616   8.642
  8.658   8.666   8.667   8.940   8.971   8.971   9.135   9.196
  9.196   9.362   9.601   9.601  34.762  36.846  37.377  37.377
 39.726  39.756  39.844  39.957  39.985  49.537  49.544  49.550
 49.577  49.583  49.588  49.648  49.666  49.674  49.736  49.759
 49.761  49.873  49.898  49.902  55.038  55.038  55.041  55.109
 55.112  55.112  55.426  55.623  55.623  66.045  66.045  66.111
 --------------------------------------------------------------
 
          Ground-State Mulliken Net Atomic Charges

     Atom                 Charge (a.u.)    Spin (a.u.)
  --------------------------------------------------------
      1 N                     0.230167       0.466896
      2 F                     0.256687       0.177856
      3 F                     0.256430       0.177227
      4 F                     0.256716       0.178020
  --------------------------------------------------------
  Sum of atomic charges =     1.000000
  Sum of spin   charges =     1.000000

 -----------------------------------------------------------------
                    Cartesian Multipole Moments
 -----------------------------------------------------------------
    Charge (ESU x 10^10)
                 4.8032
    Dipole Moment (Debye)
         X       0.0004      Y       0.0009      Z      -1.4994
       Tot       1.4994
    Quadrupole Moments (Debye-Ang)
        XX     -15.5506     XY      -0.0009     YY     -15.5511
        XZ       0.0000     YZ      -0.0004     ZZ     -16.1547
    Octapole Moments (Debye-Ang^2)
       XXX       1.8558    XXY       0.0006    XYY      -1.8538
       YYY       0.0017    XXZ       6.2063    XYZ       0.0003
       YYZ       6.2064    XZZ       0.0003    YZZ       0.0006
       ZZZ      22.8479
    Hexadecapole Moments (Debye-Ang^3)
      XXXX     -63.6161   XXXY      -0.0013   XXYY     -21.2056
      XYYY      -0.0012   YYYY     -63.6204   XXXZ      -1.9105
      XXYZ       0.0001   XYYZ       1.9110   YYYZ       0.0006
      XXZZ     -15.9469   XYZZ      -0.0007   YYZZ     -15.9481
      XZZZ      -0.0007   YZZZ      -0.0014   ZZZZ     -37.8121
 -----------------------------------------------------------------
 Total job time:  52.47s(wall), 51.96s(cpu) 
 Mon Jul  8 12:28:03 2013

        *************************************************************
        *                                                           *
        *  Thank you very much for using Q-Chem.  Have a nice day.  *
        *                                                           *
        *************************************************************


0 sent ACK to 0 
now end server 0 ... 
