Process 0 of 1 is on cl086.stfx.acenet.ca - thread support 1
initial socket setup ...start
initial socket setup ...done 
now start server 0 ... 

cmd = /usr/bin/ssh clhead /usr/local/qchem/bin/get_hostid 357262638 > /scratch/tmp/6067132.1.short.q/qchem28782/lic.dat
                  Welcome to Q-Chem
     A Quantum Leap Into The Future Of Chemistry

 Y. Shao, L. Fusti-Molnar, Y. Jung, J. Kussmann, C. Ochsenfeld,
 S. T. Brown, A. T. B. Gilbert, L. V. Slipchenko,S. V. Levchenko,
 D. P. O'Neill, R. A. DiStasio Jr., R. C. Lochan, T. Wang,
 G. J. O. Beran, N. A. Besley, J. M. Herbert, C. Y. Lin,
 T. Van Voorhis, S. H. Chien, A. Sodt, R. P. Steele, 
 V. A. Rassolov, P. E. Maslen, P. P. Korambath, R. D. Adamson,
 B. Austin, J. Baker, E. F. C. Byrd, H. Dachsel, R. J. Doerksen,
 A. Dreuw, B. D. Dunietz, A. D. Dutoi, T. R. Furlani,
 S. R. Gwaltney, A. Heyden, S. Hirata, C.-P. Hsu, G. Kedziora,
 R. Z. Khaliullin, P. Klunzinger, A. M. Lee, M. S. Lee, W. Liang,
 I. Lotan, N. Nair, B. Peters, E. I. Proynov, P. A. Pieniazek, 
 Y. M. Rhee, J. Ritchie, E. Rosta, C. D. Sherrill, 
 A. C. Simmonett, J. E. Subotnik, H. L. Woodcock III,
 W. Zhang, A. T. Bell, A. K. Chakraborty, D. M. Chipman,
 F. J. Keil, A. Warshel, W. J. Hehre, H. F. Schaefer III,
 J. Kong, A. I. Krylov, P. M. W. Gill, M. Head-Gordon,
 Q-Chem, Version 3.1, Q-Chem, Inc., Pittsburgh, PA (2007).

 Additional authors for Version 3.1: 
 Z. Gan, Y. Zhao, N. E. Schultz, D. Truhlar, E. Epifanovsky and M. Oana.

 Additional authors for Version 3.2: 
 R. Baer, B. R. Brooks, D. Casanova, J.-D. Chai, C.-L. Cheng, 
 C. Cramer, D. Crittenden, A. Ghysels, G. Hawkins, E. G. Hohenstein, 
 C. Kelley, W. Kurlancheek, D. Liotard, E. Livshits, P. Manohar, 
 A. Marenich, D. Neuhauser, R. Olson, M. A. Rohrdanz, K. S. Thanthiriwatte, 
 A. J. W. Thom, V. Vanovschi, C. F. Williams, Q. Wu and Z.-Q. You. 


 Intel X86 Linux Version

 Q-chem begins on Wed Jul 24 16:02:22 2013  

 Parallel job on  1  processors
Processing $rem in /usr/local/qchem/config/preferences.

theFileMan(): MAXOPENFILES=974 MAX_SUB_FILE_NUM=16
Maximum size of a physical file is 2.0 GB, maximum size of a tmp-file is 32.0 GB


--------------------------------------------------------------
User input:
--------------------------------------------------------------

$molecule
0,1
c1
c2 c1 rc2
o1 c2 ro1 c1 ao1
n1 c2 rn1 o1 an1 c1 tn1
h1 n1 rh1 c2 ah1 o1 th1
h2 n1 rh2 c2 ah2 h1 th2
h3 c1 rh3 c2 ah3 o1 th3
h4 c1 rh4 c2 ah4 h3 th4
h5 c1 rh5 c2 ah5 h3 th5

 rc2=1.52316421
 ro1=1.22126322
 ao1=122.30670158
 rn1=1.36949683
 an1=122.26031609
 tn1=179.69564918
 rh1=1.01046569
 ah1=117.90359934
 th1=4.97155447
 rh2=1.0080086
 ah2=122.68458623
 rh3=1.09448709
 ah3=113.93131647
 th3=173.18310305
 rh4=1.09494054
 ah4=108.80819051
 th4=121.6529972
 rh5=1.09349446
 ah5=108.61457196
 th5=-121.78094916
 th2=168.54597414

$end


$comment
b3lyp opt
$end

$rem
   EXCHANGE B3LYP
   UNRESTRICTED TRUE
   SYMMETRY_DECOMPOSITION	0
   BASIS                   g3large
   JOBTYPE                 opt
   mem_static              760
   max_scf_cycles          200
   scf_final_print         1
   sym_ignore              true
$end


--------------------------------------------------------------
 Writing REM_CC_EA            9
 ----------------------------------------------------
       Standard Nuclear Orientation (Angstroms)
    I     Atom         X            Y            Z
 ----------------------------------------------------
    1      C       0.000000     0.000000     0.000000
    2      C       0.000000     0.000000     1.523164
    3      O       1.032211     0.000000     2.175870
    4      N      -1.236768    -0.006152     2.111288
    5      H      -1.281982     0.066588     3.118117
    6      H      -2.090644     0.089575     1.584208
    7      H      -0.993324    -0.118744    -0.443969
    8      H       0.435344     0.940614    -0.353010
    9      H       0.646490    -0.809907    -0.349044
 ----------------------------------------------------
 Nuclear Repulsion Energy =   121.2388544767 hartrees
 There are       16 alpha and       16 beta electrons
 Requested basis set is G3large
 There are 70 shells and 218 basis functions

Total QAlloc Memory Limit   2000 MB
Mega-Array Size       743 MB
MEM_STATIC part       760 MB
 A cutoff of  1.0D-11 yielded   2354 shell pairs
 There are  22962 function pairs ( 28423 Cartesian)
Evaluating contribution to one-electron hamiltonian from nuclear
 Smallest overlap matrix eigenvalue = 9.12E-05
 Multipole matrices computed through 2nd order

  Scale SEOQF with 1.000000e-01/1.000000e-01/1.000000e-01

 Standard Electronic Orientation quadrupole field applied
 Nucleus-field energy     =    -0.0000000092 hartrees
 Guess from superposition of atomic densities
 Warning:  Energy on first SCF cycle will be non-variational
 An unrestricted hybrid HF-DFT SCF calculation will be
 performed using Pulay DIIS extrapolation
 Exchange:     0.2000 Hartree-Fock + 0.0800 Slater + 0.7200 Becke88
 Correlation:  0.8100 LYP + 0.1900 VWN1RPA
 Using SG-1 standard quadrature grid
 SCF converges when DIIS error is below 1.0E-08
 ---------------------------------------
  Cycle       Energy         DIIS Error
 ---------------------------------------
    1    -209.7879371924      3.16E-02
    2    -209.1579092814      5.32E-03
    3    -208.9484676727      8.60E-03
    4    -209.2796326590      2.17E-03
    5    -209.3010740514      3.99E-04
    6    -209.3017044805      1.59E-04
    7    -209.3018274512      3.59E-05
    8    -209.3018338845      5.53E-06
    9    -209.3018343201      2.09E-06
   10    -209.3018341676      4.72E-07
   11    -209.3018342381      8.00E-08
   12    -209.3018342381      2.11E-08
   13    -209.3018342397      3.55E-09 Convergence criterion met
 ---------------------------------------
 One-Electron    Energy =  -523.8159656166
 Total Coulomb   Energy =   221.5275729320
 Alpha Exchange  Energy =    -2.6972186765
 Beta  Exchange  Energy =    -2.6972186765
 DFT   Exchange  Energy =   -21.4652315137
 DFT Correlation Energy =    -1.3926271559
 Nuclear Repu.   Energy =   121.2388544675
 Nuclear Attr.   Energy =  -732.2506897893
 Kinetic         Energy =   208.4347241727
 <S^2> = 0.0000
 SCF time:  CPU 207.19 s  wall 208.15 s
 Final Alpha MO Eigenvalues
            1           2           3           4           5           6
    1 -19.0899361 -14.3426125 -10.2813896 -10.1810221  -1.0398736  -0.9133894
            7           8           9          10          11          12
    1  -0.7453218  -0.5998229  -0.5487726  -0.4791733  -0.4536528  -0.4125950
           13          14          15          16          17          18
    1  -0.4081204  -0.3762205  -0.2839189  -0.2637177  -0.0218659   0.0058520
           19          20          21
    1   0.0083518   0.0208275   0.0413027
 Final Beta MO Eigenvalues
            1           2           3           4           5           6
    1 -19.0899361 -14.3426125 -10.2813896 -10.1810221  -1.0398736  -0.9133894
            7           8           9          10          11          12
    1  -0.7453218  -0.5998229  -0.5487726  -0.4791733  -0.4536528  -0.4125950
           13          14          15          16          17          18
    1  -0.4081204  -0.3762205  -0.2839189  -0.2637177  -0.0218659   0.0058520
           19          20          21
    1   0.0083518   0.0208275   0.0413027
 Analysis of SCF Wavefunction
 
 --------------------------------------------------------------
                    Orbital Energies (a.u.)
 --------------------------------------------------------------
 
 Alpha MOs
 -- Occupied --
-19.090 -14.343 -10.281 -10.181  -1.040  -0.913  -0.745  -0.600
 -0.549  -0.479  -0.454  -0.413  -0.408  -0.376  -0.284  -0.264
 -- Virtual --
 -0.022   0.006   0.008   0.021   0.041   0.047   0.059   0.081
  0.085   0.089   0.106   0.107   0.124   0.134   0.143   0.152
  0.162   0.175   0.186   0.196   0.223   0.246   0.254   0.280
  0.286   0.306   0.323   0.342   0.381   0.417   0.425   0.463
  0.484   0.499   0.519   0.551   0.562   0.576   0.597   0.626
  0.635   0.639   0.649   0.685   0.744   0.753   0.760   0.797
  0.814   0.853   0.918   0.937   0.956   0.970   1.001   1.019
  1.064   1.092   1.129   1.139   1.157   1.184   1.192   1.241
  1.246   1.299   1.308   1.332   1.397   1.408   1.416   1.436
  1.470   1.505   1.542   1.576   1.601   1.723   1.781   1.791
  1.806   1.887   2.045   2.096   2.372   2.431   2.481   2.531
  2.577   2.605   2.713   2.727   2.769   2.898   2.917   2.984
  2.985   3.027   3.063   3.070   3.112   3.127   3.194   3.234
  3.268   3.302   3.317   3.368   3.386   3.424   3.477   3.495
  3.510   3.564   3.644   3.706   3.726   3.768   3.841   3.878
  3.905   3.932   3.973   3.997   4.058   4.077   4.162   4.198
  4.207   4.296   4.357   4.368   4.413   4.429   4.507   4.548
  4.597   4.671   4.790   4.993   5.043   5.048   5.061   5.088
  5.137   5.159   5.281   5.344   5.476   5.527   5.553   5.581
  5.612   5.619   5.734   5.868   6.249   6.277   6.339   6.819
  6.876   6.940   7.060   7.269   7.501   7.678  24.249  24.688
 27.349  27.688  28.114  28.134  28.216  28.467  35.800  37.440
 38.319  38.401  40.604  40.624  40.631  40.693  40.785  40.897
 40.994  41.041  41.084  41.088  41.130  41.194  41.244  41.274
 41.363  43.773  43.807  43.915  43.954  44.042  45.855  45.995
 46.701  50.242
 
 Beta MOs
 -- Occupied --
-19.090 -14.343 -10.281 -10.181  -1.040  -0.913  -0.745  -0.600
 -0.549  -0.479  -0.454  -0.413  -0.408  -0.376  -0.284  -0.264
 -- Virtual --
 -0.022   0.006   0.008   0.021   0.041   0.047   0.059   0.081
  0.085   0.089   0.106   0.107   0.124   0.134   0.143   0.152
  0.162   0.175   0.186   0.196   0.223   0.246   0.254   0.280
  0.286   0.306   0.323   0.342   0.381   0.417   0.425   0.463
  0.484   0.499   0.519   0.551   0.562   0.576   0.597   0.626
  0.635   0.639   0.649   0.685   0.744   0.753   0.760   0.797
  0.814   0.853   0.918   0.937   0.956   0.970   1.001   1.019
  1.064   1.092   1.129   1.139   1.157   1.184   1.192   1.241
  1.246   1.299   1.308   1.332   1.397   1.408   1.416   1.436
  1.470   1.505   1.542   1.576   1.601   1.723   1.781   1.791
  1.806   1.887   2.045   2.096   2.372   2.431   2.481   2.531
  2.577   2.605   2.713   2.727   2.769   2.898   2.917   2.984
  2.985   3.027   3.063   3.070   3.112   3.127   3.194   3.234
  3.268   3.302   3.317   3.368   3.386   3.424   3.477   3.495
  3.510   3.564   3.644   3.706   3.726   3.768   3.841   3.878
  3.905   3.932   3.973   3.997   4.058   4.077   4.162   4.198
  4.207   4.296   4.357   4.368   4.413   4.429   4.507   4.548
  4.597   4.671   4.790   4.993   5.043   5.048   5.061   5.088
  5.137   5.159   5.281   5.344   5.476   5.527   5.553   5.581
  5.612   5.619   5.734   5.868   6.249   6.277   6.339   6.819
  6.876   6.940   7.060   7.269   7.501   7.678  24.249  24.688
 27.349  27.688  28.114  28.134  28.216  28.467  35.800  37.440
 38.319  38.401  40.604  40.624  40.631  40.693  40.785  40.897
 40.994  41.041  41.084  41.088  41.130  41.194  41.244  41.274
 41.363  43.773  43.807  43.915  43.954  44.042  45.855  45.995
 46.701  50.242
 --------------------------------------------------------------
 
          Ground-State Mulliken Net Atomic Charges

     Atom                 Charge (a.u.)    Spin (a.u.)
  --------------------------------------------------------
      1 C                    -0.264283       0.000000
      2 C                     0.222939       0.000000
      3 O                    -0.439326       0.000000
      4 N                    -0.277425       0.000000
      5 H                     0.226852       0.000000
      6 H                     0.186338       0.000000
      7 H                     0.079690       0.000000
      8 H                     0.131258       0.000000
      9 H                     0.133957       0.000000
  --------------------------------------------------------
  Sum of atomic charges =     0.000000
  Sum of spin   charges =     0.000000

 -----------------------------------------------------------------
                    Cartesian Multipole Moments
 -----------------------------------------------------------------
    Charge (ESU x 10^10)
                 0.0000
    Dipole Moment (Debye)
         X      -3.6562      Y       0.2578      Z      -1.4580
       Tot       3.9446
    Quadrupole Moments (Debye-Ang)
        XX     -23.8777     XY      -0.5301     YY     -25.3663
        XZ      -8.6556     YZ       0.5896     ZZ     -26.9022
    Octapole Moments (Debye-Ang^2)
       XXX      -4.8923    XXY       0.7219    XYY       5.1102
       YYY       0.0915    XXZ     -33.5691    XYZ      -1.1123
       YYZ     -36.0142    XZZ     -19.2078    YZZ       1.4368
       ZZZ     -97.3446
    Hexadecapole Moments (Debye-Ang^3)
      XXXX    -123.3822   XXXY      -1.8711   XXYY     -31.4730
      XYYY       0.1506   YYYY     -32.9046   XXXZ      -5.0981
      XXYZ       2.0093   XYYZ       8.5314   YYYZ      -0.3840
      XXZZ     -96.4149   XYZZ      -2.5254   YYZZ     -85.9012
      XZZZ     -45.8539   YZZZ       3.8909   ZZZZ    -414.3704
 -----------------------------------------------------------------
 Calculating analytic gradient of the SCF energy
 Gradient of XC Energy
            1           2           3           4           5           6
    1   0.0017074  -0.1149524   0.3048708   0.0197667  -0.0117678  -0.2149553
    2   0.0001096  -0.0008643   0.0019524  -0.0388716   0.0205769   0.0164292
    3   0.0662776  -0.1564333   0.1902412  -0.0112364   0.2502337  -0.1270269
            7           8           9
    1  -0.1706845   0.0739843   0.1120306
    2  -0.0193685   0.1606176  -0.1405814
    3  -0.0817868  -0.0649567  -0.0653124
 Gradient of SCF Energy
            1           2           3           4           5           6
    1  -0.0010441  -0.0028515   0.0089520  -0.0007959  -0.0000938  -0.0042563
    2   0.0002404  -0.0003073   0.0001454  -0.0011286   0.0004217   0.0006510
    3   0.0007242  -0.0011435   0.0051619  -0.0018231   0.0036677  -0.0015835
            7           8           9
    1  -0.0030426   0.0012640   0.0018681
    2  -0.0004009   0.0027985  -0.0024202
    3  -0.0022095  -0.0015502  -0.0012441
 Max gradient component =       8.952E-03
 RMS gradient           =       2.687E-03
 Gradient time:  CPU 71.76 s  wall 71.84 s
 Geometry Optimization Parameters
   NAtoms,    NIC,     NZ,  NCons,   NDum,   NFix, NCnnct, MaxDiis
        9      48       9       0       0       0       0       0


** GEOMETRY OPTIMIZATION IN DELOCALIZED INTERNAL COORDINATES **
   Searching for a Minimum

   Optimization Cycle:   1

                       Coordinates (Angstroms)
     ATOM              X           Y           Z
    1  C           0.000000    0.000000    0.000000
    2  C           0.000000    0.000000    1.523164
    3  O           1.032211    0.000000    2.175870
    4  N          -1.236768   -0.006152    2.111288
    5  H          -1.281982    0.066588    3.118117
    6  H          -2.090644    0.089575    1.584208
    7  H          -0.993324   -0.118744   -0.443969
    8  H           0.435344    0.940614   -0.353010
    9  H           0.646490   -0.809907   -0.349044
   Point Group: c1    Number of degrees of freedom:  21


   Energy is   -209.301834240


 Attempting to Generate Delocalized Internal Coordinates

 21 Hessian modes will be used to form the next step
  Hessian Eigenvalues:
     0.006115    0.011538    0.019680    0.021022    0.068779    0.075888
     0.160000    0.160000    0.160000    0.160000    0.160000    0.249997
     0.250000    0.300638    0.342479    0.342992    0.344119    0.458947
     0.463076    0.510734    0.948258

 Minimum Search - Taking Simple RFO Step
 Searching for Lamda that Minimizes Along All modes
 Value Taken    Lamda =  -0.00044844
 Step Taken.  Stepsize is  0.037771

                             Maximum     Tolerance    Cnvgd?
         Gradient           0.007814      0.000300      NO
         Displacement       0.020615      0.001200      NO
         Energy change     *********      0.000001      NO


 New Cartesian Coordinates Obtained by Inverse Iteration

 Displacement from previous Coordinates is:  0.045570
 Writing REM_CC_EA            9
 ----------------------------------------------------
       Standard Nuclear Orientation (Angstroms)
    I     Atom         X            Y            Z
 ----------------------------------------------------
    1      C      -0.000248     0.000025     0.002038
    2      C      -0.003819     0.003490     1.517644
    3      O       1.022918    -0.000145     2.168217
    4      N      -1.233470    -0.003078     2.109269
    5      H      -1.278767     0.064812     3.112160
    6      H      -2.082189     0.085232     1.582327
    7      H      -0.990417    -0.116172    -0.435542
    8      H       0.435164     0.936024    -0.346905
    9      H       0.642155    -0.808213    -0.342585
 ----------------------------------------------------
 Nuclear Repulsion Energy =   121.7927473773 hartrees
 There are       16 alpha and       16 beta electrons
 Applying Cartesian multipole field
    Component          Value
    ---------          -----
     (2,0,0)        1.00000E-11
     (0,2,0)        2.00000E-11
     (0,0,2)       -3.00000E-11
 Nucleus-field energy     =    -0.0000000091 hartrees
 Requested basis set is G3large
 There are 70 shells and 218 basis functions
 A cutoff of  1.0D-11 yielded   2356 shell pairs
 There are  22981 function pairs ( 28445 Cartesian)
Evaluating contribution to one-electron hamiltonian from nuclear
 Smallest overlap matrix eigenvalue = 8.83E-05
 Multipole matrices computed through 2nd order
 Guess MOs from SCF MO coefficient file
Reading MOs from coefficient file
Reading MOs from coefficient file
 An unrestricted hybrid HF-DFT SCF calculation will be
 performed using Pulay DIIS extrapolation
 Exchange:     0.2000 Hartree-Fock + 0.0800 Slater + 0.7200 Becke88
 Correlation:  0.8100 LYP + 0.1900 VWN1RPA
 Using SG-1 standard quadrature grid
 SCF converges when DIIS error is below 1.0E-08
 ---------------------------------------
  Cycle       Energy         DIIS Error
 ---------------------------------------
    1    -209.3092056395      2.55E-04
    2    -209.3020195265      7.90E-05
    3    -209.3019565566      1.47E-04
    4    -209.3020513662      1.40E-05
    5    -209.3020522608      4.82E-06
    6    -209.3020523338      9.64E-07
    7    -209.3020523696      3.93E-07
    8    -209.3020523841      4.54E-08
    9    -209.3020523799      1.05E-08
   10    -209.3020523805      3.63E-09 Convergence criterion met
 ---------------------------------------
 One-Electron    Energy =  -524.9014513423
 Total Coulomb   Energy =   222.0807792448
 Alpha Exchange  Energy =    -2.6995438157
 Beta  Exchange  Energy =    -2.6995438157
 DFT   Exchange  Energy =   -21.4813158399
 DFT Correlation Energy =    -1.3937241798
 Nuclear Repu.   Energy =   121.7927473682
 Nuclear Attr.   Energy =  -733.4216927279
 Kinetic         Energy =   208.5202413856
 <S^2> = 0.0000
 SCF time:  CPU 156.04 s  wall 156.61 s
 Final Alpha MO Eigenvalues
            1           2           3           4           5           6
    1 -19.0882511 -14.3409882 -10.2788878 -10.1787092  -1.0426610  -0.9148530
            7           8           9          10          11          12
    1  -0.7475372  -0.6004959  -0.5504937  -0.4802070  -0.4556644  -0.4132558
           13          14          15          16          17          18
    1  -0.4091271  -0.3770956  -0.2837204  -0.2630590  -0.0213967   0.0075107
           19          20          21
    1   0.0088489   0.0211154   0.0418242
 Final Beta MO Eigenvalues
            1           2           3           4           5           6
    1 -19.0882511 -14.3409882 -10.2788878 -10.1787092  -1.0426610  -0.9148530
            7           8           9          10          11          12
    1  -0.7475372  -0.6004959  -0.5504937  -0.4802070  -0.4556644  -0.4132558
           13          14          15          16          17          18
    1  -0.4091271  -0.3770956  -0.2837204  -0.2630590  -0.0213967   0.0075107
           19          20          21
    1   0.0088489   0.0211154   0.0418242
 Analysis of SCF Wavefunction
 
 --------------------------------------------------------------
                    Orbital Energies (a.u.)
 --------------------------------------------------------------
 
 Alpha MOs
 -- Occupied --
-19.088 -14.341 -10.279 -10.179  -1.043  -0.915  -0.748  -0.600
 -0.550  -0.480  -0.456  -0.413  -0.409  -0.377  -0.284  -0.263
 -- Virtual --
 -0.021   0.008   0.009   0.021   0.042   0.047   0.059   0.082
  0.085   0.090   0.107   0.108   0.124   0.134   0.143   0.153
  0.162   0.176   0.187   0.197   0.225   0.247   0.256   0.281
  0.286   0.308   0.324   0.344   0.386   0.418   0.426   0.463
  0.486   0.501   0.521   0.552   0.563   0.576   0.599   0.630
  0.638   0.640   0.651   0.687   0.744   0.753   0.762   0.798
  0.817   0.855   0.920   0.940   0.956   0.969   1.002   1.020
  1.066   1.093   1.131   1.139   1.157   1.187   1.195   1.245
  1.249   1.302   1.313   1.337   1.402   1.411   1.421   1.438
  1.475   1.509   1.544   1.581   1.607   1.728   1.783   1.797
  1.810   1.891   2.049   2.100   2.376   2.433   2.487   2.534
  2.575   2.609   2.715   2.730   2.770   2.900   2.925   2.985
  2.986   3.029   3.065   3.073   3.119   3.129   3.195   3.235
  3.265   3.308   3.319   3.371   3.391   3.426   3.480   3.501
  3.511   3.569   3.648   3.716   3.732   3.778   3.846   3.886
  3.920   3.940   3.985   4.009   4.073   4.091   4.170   4.206
  4.216   4.312   4.375   4.381   4.423   4.440   4.518   4.555
  4.605   4.678   4.803   4.995   5.048   5.052   5.061   5.094
  5.144   5.165   5.286   5.357   5.488   5.540   5.569   5.597
  5.630   5.639   5.743   5.888   6.271   6.301   6.366   6.851
  6.879   6.946   7.078   7.272   7.507   7.682  24.278  24.714
 27.354  27.706  28.123  28.148  28.226  28.472  35.819  37.444
 38.334  38.413  40.608  40.627  40.632  40.697  40.791  40.901
 40.999  41.046  41.088  41.099  41.135  41.197  41.249  41.281
 41.372  43.775  43.809  43.918  43.958  44.047  45.861  46.006
 46.715  50.255
 
 Beta MOs
 -- Occupied --
-19.088 -14.341 -10.279 -10.179  -1.043  -0.915  -0.748  -0.600
 -0.550  -0.480  -0.456  -0.413  -0.409  -0.377  -0.284  -0.263
 -- Virtual --
 -0.021   0.008   0.009   0.021   0.042   0.047   0.059   0.082
  0.085   0.090   0.107   0.108   0.124   0.134   0.143   0.153
  0.162   0.176   0.187   0.197   0.225   0.247   0.256   0.281
  0.286   0.308   0.324   0.344   0.386   0.418   0.426   0.463
  0.486   0.501   0.521   0.552   0.563   0.576   0.599   0.630
  0.638   0.640   0.651   0.687   0.744   0.753   0.762   0.798
  0.817   0.855   0.920   0.940   0.956   0.969   1.002   1.020
  1.066   1.093   1.131   1.139   1.157   1.187   1.195   1.245
  1.249   1.302   1.313   1.337   1.402   1.411   1.421   1.438
  1.475   1.509   1.544   1.581   1.607   1.728   1.783   1.797
  1.810   1.891   2.049   2.100   2.376   2.433   2.487   2.534
  2.575   2.609   2.715   2.730   2.770   2.900   2.925   2.985
  2.986   3.029   3.065   3.073   3.119   3.129   3.195   3.235
  3.265   3.308   3.319   3.371   3.391   3.426   3.480   3.501
  3.511   3.569   3.648   3.716   3.732   3.778   3.846   3.886
  3.920   3.940   3.985   4.009   4.073   4.091   4.170   4.206
  4.216   4.312   4.375   4.381   4.423   4.440   4.518   4.555
  4.605   4.678   4.803   4.995   5.048   5.052   5.061   5.094
  5.144   5.165   5.286   5.357   5.488   5.540   5.569   5.597
  5.630   5.639   5.743   5.888   6.271   6.301   6.366   6.851
  6.879   6.946   7.078   7.272   7.507   7.682  24.278  24.714
 27.354  27.706  28.123  28.148  28.226  28.472  35.819  37.444
 38.334  38.413  40.608  40.627  40.632  40.697  40.791  40.901
 40.999  41.046  41.088  41.099  41.135  41.197  41.249  41.281
 41.372  43.775  43.809  43.918  43.958  44.047  45.861  46.006
 46.715  50.255
 --------------------------------------------------------------
 
          Ground-State Mulliken Net Atomic Charges

     Atom                 Charge (a.u.)    Spin (a.u.)
  --------------------------------------------------------
      1 C                    -0.268352       0.000000
      2 C                     0.227292       0.000000
      3 O                    -0.441996       0.000000
      4 N                    -0.277306       0.000000
      5 H                     0.226473       0.000000
      6 H                     0.185100       0.000000
      7 H                     0.080347       0.000000
      8 H                     0.132914       0.000000
      9 H                     0.135529       0.000000
  --------------------------------------------------------
  Sum of atomic charges =     0.000000
  Sum of spin   charges =     0.000000

 -----------------------------------------------------------------
                    Cartesian Multipole Moments
 -----------------------------------------------------------------
    Charge (ESU x 10^10)
                 0.0000
    Dipole Moment (Debye)
         X      -3.6374      Y       0.2449      Z      -1.4527
       Tot       3.9245
    Quadrupole Moments (Debye-Ang)
        XX     -23.8647     XY      -0.4938     YY     -25.3092
        XZ      -8.6076     YZ       0.5605     ZZ     -26.8642
    Octapole Moments (Debye-Ang^2)
       XXX      -4.5551    XXY       0.6187    XYY       5.1375
       YYY      -0.0186    XXZ     -33.4812    XYZ      -1.0351
       YYZ     -35.8767    XZZ     -19.0010    YZZ       1.3221
       ZZZ     -97.0057
    Hexadecapole Moments (Debye-Ang^3)
      XXXX    -122.4945   XXXY      -1.6665   XXYY     -31.2039
      XYYY       0.2213   YYYY     -32.7023   XXXZ      -4.4447
      XXYZ       1.7950   XYYZ       8.6190   YYYZ      -0.5643
      XXZZ     -95.7400   XYZZ      -2.3394   YYZZ     -85.3575
      XZZZ     -45.0362   YZZZ       3.4945   ZZZZ    -411.5971
 -----------------------------------------------------------------
 Calculating analytic gradient of the SCF energy
 Gradient of XC Energy
            1           2           3           4           5           6
    1   0.0036186  -0.1169410   0.3029643   0.0227866  -0.0120137  -0.2154031
    2  -0.0009224   0.0021489   0.0004174  -0.0368420   0.0195373   0.0150490
    3   0.0656716  -0.1599128   0.1898650  -0.0085816   0.2516877  -0.1285673
            7           8           9
    1  -0.1717358   0.0745486   0.1121755
    2  -0.0191398   0.1610526  -0.1413010
    3  -0.0806815  -0.0644088  -0.0650723
 Gradient of SCF Energy
            1           2           3           4           5           6
    1   0.0000647  -0.0003448  -0.0003676   0.0005384  -0.0000886   0.0001265
    2  -0.0001940   0.0010076  -0.0003171  -0.0007549   0.0001403   0.0002029
    3   0.0002018  -0.0002649   0.0001283  -0.0003478   0.0001506   0.0001300
            7           8           9
    1  -0.0000066   0.0000145   0.0000635
    2  -0.0000421   0.0000254  -0.0000682
    3   0.0000857   0.0000191  -0.0001028
 Max gradient component =       1.008E-03
 RMS gradient           =       3.147E-04
 Gradient time:  CPU 71.57 s  wall 71.65 s
 Geometry Optimization Parameters
   NAtoms,    NIC,     NZ,  NCons,   NDum,   NFix, NCnnct, MaxDiis
        9      48       9       0       0       0       0       0

 Cartesian Hessian Update
 Hessian Updated using BFGS Update


** GEOMETRY OPTIMIZATION IN DELOCALIZED INTERNAL COORDINATES **
   Searching for a Minimum

   Optimization Cycle:   2

                       Coordinates (Angstroms)
     ATOM              X           Y           Z
    1  C          -0.000248    0.000025    0.002038
    2  C          -0.003819    0.003490    1.517644
    3  O           1.022918   -0.000145    2.168217
    4  N          -1.233470   -0.003078    2.109269
    5  H          -1.278767    0.064812    3.112160
    6  H          -2.082189    0.085232    1.582327
    7  H          -0.990417   -0.116172   -0.435542
    8  H           0.435164    0.936024   -0.346905
    9  H           0.642155   -0.808213   -0.342585
   Point Group: c1    Number of degrees of freedom:  21


   Energy is   -209.302052381

 Hessian Updated using BFGS Update

 18 Hessian modes will be used to form the next step
  Hessian Eigenvalues:
     0.006114    0.011736    0.019645    0.020675    0.068780    0.075927
     0.159201    0.161165    0.249055    0.253324    0.303351    0.339254
     0.342726    0.343877    0.455306    0.464889    0.522538    0.952598

 Minimum Search - Taking Simple RFO Step
 Searching for Lamda that Minimizes Along All modes
 Value Taken    Lamda =  -0.00001992
 Step Taken.  Stepsize is  0.037019

                             Maximum     Tolerance    Cnvgd?
         Gradient           0.000440      0.000300      NO
         Displacement       0.032684      0.001200      NO
         Energy change     -0.000218      0.000001      NO


 New Cartesian Coordinates Obtained by Inverse Iteration

 Displacement from previous Coordinates is:  0.020385
 Writing REM_CC_EA            9
 ----------------------------------------------------
       Standard Nuclear Orientation (Angstroms)
    I     Atom         X            Y            Z
 ----------------------------------------------------
    1      C      -0.000555    -0.000737     0.002267
    2      C      -0.003596    -0.003304     1.517864
    3      O       1.023892     0.002623     2.167004
    4      N      -1.233615    -0.000556     2.109572
    5      H      -1.279101     0.068415     3.112001
    6      H      -2.082310     0.081643     1.581668
    7      H      -0.990377    -0.114341    -0.436200
    8      H       0.435643     0.936041    -0.342800
    9      H       0.641347    -0.807809    -0.344752
 ----------------------------------------------------
 Nuclear Repulsion Energy =   121.7930963288 hartrees
 There are       16 alpha and       16 beta electrons
 Applying Cartesian multipole field
    Component          Value
    ---------          -----
     (2,0,0)        1.00000E-11
     (0,2,0)        2.00000E-11
     (0,0,2)       -3.00000E-11
 Nucleus-field energy     =    -0.0000000091 hartrees
 Requested basis set is G3large
 There are 70 shells and 218 basis functions
 A cutoff of  1.0D-11 yielded   2356 shell pairs
 There are  22981 function pairs ( 28445 Cartesian)
Evaluating contribution to one-electron hamiltonian from nuclear
 Smallest overlap matrix eigenvalue = 8.85E-05
 Multipole matrices computed through 2nd order
 Guess MOs from SCF MO coefficient file
Reading MOs from coefficient file
Reading MOs from coefficient file
 An unrestricted hybrid HF-DFT SCF calculation will be
 performed using Pulay DIIS extrapolation
 Exchange:     0.2000 Hartree-Fock + 0.0800 Slater + 0.7200 Becke88
 Correlation:  0.8100 LYP + 0.1900 VWN1RPA
 Using SG-1 standard quadrature grid
 SCF converges when DIIS error is below 1.0E-08
 ---------------------------------------
  Cycle       Energy         DIIS Error
 ---------------------------------------
    1    -209.3021520742      1.92E-04
    2    -209.3020479094      1.51E-05
    3    -209.3020491705      8.93E-06
    4    -209.3020492181      6.54E-06
    5    -209.3020494427      1.39E-06
    6    -209.3020495071      4.97E-07
    7    -209.3020494335      1.24E-07
    8    -209.3020494388      3.57E-08
    9    -209.3020494434      1.54E-08
   10    -209.3020494405      2.92E-09 Convergence criterion met
 ---------------------------------------
 One-Electron    Energy =  -524.9014323159
 Total Coulomb   Energy =   222.0807451641
 Alpha Exchange  Energy =    -2.6995785618
 Beta  Exchange  Energy =    -2.6995785618
 DFT   Exchange  Energy =   -21.4815638464
 DFT Correlation Energy =    -1.3937376382
 Nuclear Repu.   Energy =   121.7930963197
 Nuclear Attr.   Energy =  -733.4224698383
 Kinetic         Energy =   208.5210375224
 <S^2> = 0.0000
 SCF time:  CPU 151.89 s  wall 152.41 s
 Final Alpha MO Eigenvalues
            1           2           3           4           5           6
    1 -19.0883158 -14.3409763 -10.2789276 -10.1785682  -1.0426930  -0.9148519
            7           8           9          10          11          12
    1  -0.7475434  -0.6005112  -0.5506116  -0.4802493  -0.4556933  -0.4132718
           13          14          15          16          17          18
    1  -0.4091765  -0.3770583  -0.2837261  -0.2630968  -0.0214059   0.0076890
           19          20          21
    1   0.0087114   0.0211524   0.0420227
 Final Beta MO Eigenvalues
            1           2           3           4           5           6
    1 -19.0883158 -14.3409763 -10.2789276 -10.1785682  -1.0426930  -0.9148519
            7           8           9          10          11          12
    1  -0.7475434  -0.6005112  -0.5506116  -0.4802493  -0.4556933  -0.4132718
           13          14          15          16          17          18
    1  -0.4091765  -0.3770583  -0.2837261  -0.2630968  -0.0214059   0.0076890
           19          20          21
    1   0.0087114   0.0211524   0.0420227
 Analysis of SCF Wavefunction
 
 --------------------------------------------------------------
                    Orbital Energies (a.u.)
 --------------------------------------------------------------
 
 Alpha MOs
 -- Occupied --
-19.088 -14.341 -10.279 -10.179  -1.043  -0.915  -0.748  -0.601
 -0.551  -0.480  -0.456  -0.413  -0.409  -0.377  -0.284  -0.263
 -- Virtual --
 -0.021   0.008   0.009   0.021   0.042   0.047   0.059   0.082
  0.085   0.090   0.107   0.108   0.124   0.134   0.143   0.153
  0.162   0.176   0.187   0.196   0.225   0.248   0.256   0.281
  0.287   0.308   0.324   0.344   0.385   0.418   0.425   0.463
  0.487   0.502   0.521   0.551   0.563   0.576   0.598   0.630
  0.637   0.641   0.652   0.687   0.744   0.754   0.762   0.799
  0.817   0.854   0.919   0.941   0.956   0.968   1.001   1.020
  1.065   1.093   1.131   1.139   1.158   1.187   1.196   1.246
  1.250   1.302   1.314   1.337   1.402   1.412   1.422   1.437
  1.477   1.507   1.544   1.580   1.608   1.728   1.783   1.797
  1.810   1.892   2.046   2.103   2.377   2.435   2.485   2.533
  2.575   2.610   2.715   2.730   2.770   2.900   2.925   2.985
  2.987   3.030   3.064   3.073   3.120   3.129   3.196   3.235
  3.266   3.308   3.319   3.371   3.390   3.425   3.479   3.500
  3.511   3.570   3.646   3.717   3.733   3.778   3.847   3.885
  3.920   3.941   3.986   4.011   4.072   4.091   4.171   4.207
  4.216   4.313   4.377   4.384   4.425   4.439   4.520   4.551
  4.603   4.675   4.801   4.994   5.047   5.052   5.062   5.095
  5.145   5.165   5.286   5.359   5.488   5.541   5.568   5.597
  5.630   5.641   5.744   5.889   6.275   6.299   6.366   6.851
  6.879   6.946   7.079   7.272   7.508   7.682  24.279  24.714
 27.354  27.706  28.124  28.148  28.227  28.472  35.820  37.443
 38.335  38.413  40.608  40.626  40.632  40.698  40.791  40.901
 41.000  41.047  41.088  41.099  41.135  41.197  41.249  41.282
 41.372  43.775  43.809  43.918  43.958  44.047  45.861  46.006
 46.716  50.255
 
 Beta MOs
 -- Occupied --
-19.088 -14.341 -10.279 -10.179  -1.043  -0.915  -0.748  -0.601
 -0.551  -0.480  -0.456  -0.413  -0.409  -0.377  -0.284  -0.263
 -- Virtual --
 -0.021   0.008   0.009   0.021   0.042   0.047   0.059   0.082
  0.085   0.090   0.107   0.108   0.124   0.134   0.143   0.153
  0.162   0.176   0.187   0.196   0.225   0.248   0.256   0.281
  0.287   0.308   0.324   0.344   0.385   0.418   0.425   0.463
  0.487   0.502   0.521   0.551   0.563   0.576   0.598   0.630
  0.637   0.641   0.652   0.687   0.744   0.754   0.762   0.799
  0.817   0.854   0.919   0.941   0.956   0.968   1.001   1.020
  1.065   1.093   1.131   1.139   1.158   1.187   1.196   1.246
  1.250   1.302   1.314   1.337   1.402   1.412   1.422   1.437
  1.477   1.507   1.544   1.580   1.608   1.728   1.783   1.797
  1.810   1.892   2.046   2.103   2.377   2.435   2.485   2.533
  2.575   2.610   2.715   2.730   2.770   2.900   2.925   2.985
  2.987   3.030   3.064   3.073   3.120   3.129   3.196   3.235
  3.266   3.308   3.319   3.371   3.390   3.425   3.479   3.500
  3.511   3.570   3.646   3.717   3.733   3.778   3.847   3.885
  3.920   3.941   3.986   4.011   4.072   4.091   4.171   4.207
  4.216   4.313   4.377   4.384   4.425   4.439   4.520   4.551
  4.603   4.675   4.801   4.994   5.047   5.052   5.062   5.095
  5.145   5.165   5.286   5.359   5.488   5.541   5.568   5.597
  5.630   5.641   5.744   5.889   6.275   6.299   6.366   6.851
  6.879   6.946   7.079   7.272   7.508   7.682  24.279  24.714
 27.354  27.706  28.124  28.148  28.227  28.472  35.820  37.443
 38.335  38.413  40.608  40.626  40.632  40.698  40.791  40.901
 41.000  41.047  41.088  41.099  41.135  41.197  41.249  41.282
 41.372  43.775  43.809  43.918  43.958  44.047  45.861  46.006
 46.716  50.255
 --------------------------------------------------------------
 
          Ground-State Mulliken Net Atomic Charges

     Atom                 Charge (a.u.)    Spin (a.u.)
  --------------------------------------------------------
      1 C                    -0.267877       0.000000
      2 C                     0.226740       0.000000
      3 O                    -0.441763       0.000000
      4 N                    -0.278049       0.000000
      5 H                     0.226650       0.000000
      6 H                     0.185162       0.000000
      7 H                     0.080243       0.000000
      8 H                     0.133663       0.000000
      9 H                     0.135230       0.000000
  --------------------------------------------------------
  Sum of atomic charges =     0.000000
  Sum of spin   charges =     0.000000

 -----------------------------------------------------------------
                    Cartesian Multipole Moments
 -----------------------------------------------------------------
    Charge (ESU x 10^10)
                 0.0000
    Dipole Moment (Debye)
         X      -3.6388      Y       0.2269      Z      -1.4499
       Tot       3.9236
    Quadrupole Moments (Debye-Ang)
        XX     -23.8644     XY      -0.4842     YY     -25.3094
        XZ      -8.6037     YZ       0.5294     ZZ     -26.8561
    Octapole Moments (Debye-Ang^2)
       XXX      -4.5801    XXY       0.6089    XYY       5.1360
       YYY       0.0002    XXZ     -33.4839    XYZ      -1.0349
       YYZ     -35.8723    XZZ     -18.9884    YZZ       1.3079
       ZZZ     -96.9744
    Hexadecapole Moments (Debye-Ang^3)
      XXXX    -122.5476   XXXY      -1.6177   XXYY     -31.2187
      XYYY       0.2402   YYYY     -32.6942   XXXZ      -4.4636
      XXYZ       1.7672   XYYZ       8.6187   YYYZ      -0.6285
      XXZZ     -95.7479   XYZZ      -2.3940   YYZZ     -85.3332
      XZZZ     -44.9914   YZZZ       3.5007   ZZZZ    -411.3912
 -----------------------------------------------------------------
 Calculating analytic gradient of the SCF energy
 Gradient of XC Energy
            1           2           3           4           5           6
    1   0.0033651  -0.1171465   0.3033784   0.0227270  -0.0119568  -0.2155204
    2   0.0002925  -0.0066976   0.0044453  -0.0334183   0.0197657   0.0141208
    3   0.0657464  -0.1596078   0.1894714  -0.0083799   0.2517247  -0.1288679
            7           8           9
    1  -0.1717188   0.0747443   0.1121278
    2  -0.0186387   0.1612556  -0.1411253
    3  -0.0808621  -0.0638771  -0.0653477
 Gradient of SCF Energy
            1           2           3           4           5           6
    1   0.0000975   0.0000741  -0.0002917   0.0000263  -0.0000335   0.0001113
    2   0.0006235  -0.0019675   0.0008374  -0.0000046   0.0001283   0.0003029
    3   0.0000494  -0.0000499  -0.0001367  -0.0000181  -0.0001506   0.0000957
            7           8           9
    1   0.0001375  -0.0000461  -0.0000752
    2   0.0000547  -0.0001087   0.0001340
    3   0.0001234  -0.0001055   0.0001922
 Max gradient component =       1.968E-03
 RMS gradient           =       4.456E-04
 Gradient time:  CPU 67.95 s  wall 68.38 s
 Geometry Optimization Parameters
   NAtoms,    NIC,     NZ,  NCons,   NDum,   NFix, NCnnct, MaxDiis
        9      48       9       0       0       0       0       0

 Cartesian Hessian Update
 Hessian Updated using BFGS Update


** GEOMETRY OPTIMIZATION IN DELOCALIZED INTERNAL COORDINATES **
   Searching for a Minimum

   Optimization Cycle:   3

                       Coordinates (Angstroms)
     ATOM              X           Y           Z
    1  C          -0.000555   -0.000737    0.002267
    2  C          -0.003596   -0.003304    1.517864
    3  O           1.023892    0.002623    2.167004
    4  N          -1.233615   -0.000556    2.109572
    5  H          -1.279101    0.068415    3.112001
    6  H          -2.082310    0.081643    1.581668
    7  H          -0.990377   -0.114341   -0.436200
    8  H           0.435643    0.936041   -0.342800
    9  H           0.641347   -0.807809   -0.344752
   Point Group: c1    Number of degrees of freedom:  21


   Energy is   -209.302049441

 Hessian Updated using BFGS Update

 19 Hessian modes will be used to form the next step
  Hessian Eigenvalues:
     0.006090    0.013213    0.019787    0.043677    0.069215    0.075707
     0.158016    0.160144    0.165262    0.245153    0.250174    0.301291
     0.341186    0.343038    0.344035    0.455917    0.463668    0.509833
     0.949136

 Minimum Search - Taking Simple RFO Step
 Searching for Lamda that Minimizes Along All modes
 Value Taken    Lamda =  -0.00002416
 Step Taken.  Stepsize is  0.023874

                             Maximum     Tolerance    Cnvgd?
         Gradient           0.000704      0.000300      NO
         Displacement       0.016693      0.001200      NO
         Energy change      0.000003      0.000001      NO


 New Cartesian Coordinates Obtained by Inverse Iteration

 Displacement from previous Coordinates is:  0.019452
 Writing REM_CC_EA            9
 ----------------------------------------------------
       Standard Nuclear Orientation (Angstroms)
    I     Atom         X            Y            Z
 ----------------------------------------------------
    1      C      -0.000638    -0.000024     0.002166
    2      C      -0.003231     0.002210     1.518136
    3      O       1.024882     0.001640     2.166623
    4      N      -1.233670     0.002651     2.109807
    5      H      -1.279749     0.065180     3.112624
    6      H      -2.083145     0.077336     1.581697
    7      H      -0.990664    -0.112045    -0.436615
    8      H       0.438274     0.934741    -0.345138
    9      H       0.639269    -0.809713    -0.342676
 ----------------------------------------------------
 Nuclear Repulsion Energy =   121.7679935004 hartrees
 There are       16 alpha and       16 beta electrons
 Applying Cartesian multipole field
    Component          Value
    ---------          -----
     (2,0,0)        1.00000E-11
     (0,2,0)        2.00000E-11
     (0,0,2)       -3.00000E-11
 Nucleus-field energy     =    -0.0000000091 hartrees
 Requested basis set is G3large
 There are 70 shells and 218 basis functions
 A cutoff of  1.0D-11 yielded   2356 shell pairs
 There are  22981 function pairs ( 28445 Cartesian)
Evaluating contribution to one-electron hamiltonian from nuclear
 Smallest overlap matrix eigenvalue = 8.87E-05
 Multipole matrices computed through 2nd order
 Guess MOs from SCF MO coefficient file
Reading MOs from coefficient file
Reading MOs from coefficient file
 An unrestricted hybrid HF-DFT SCF calculation will be
 performed using Pulay DIIS extrapolation
 Exchange:     0.2000 Hartree-Fock + 0.0800 Slater + 0.7200 Becke88
 Correlation:  0.8100 LYP + 0.1900 VWN1RPA
 Using SG-1 standard quadrature grid
 SCF converges when DIIS error is below 1.0E-08
 ---------------------------------------
  Cycle       Energy         DIIS Error
 ---------------------------------------
    1    -209.3018507728      1.21E-04
    2    -209.3020632139      1.24E-05
    3    -209.3020636860      1.06E-05
    4    -209.3020638229      7.58E-06
    5    -209.3020641628      8.29E-07
    6    -209.3020641778      3.32E-07
    7    -209.3020641116      1.02E-07
    8    -209.3020641212      3.29E-08
    9    -209.3020641238      7.74E-09 Convergence criterion met
 ---------------------------------------
 One-Electron    Energy =  -524.8522617154
 Total Coulomb   Energy =   222.0558802943
 Alpha Exchange  Energy =    -2.6994950607
 Beta  Exchange  Energy =    -2.6994950607
 DFT   Exchange  Energy =   -21.4809894611
 DFT Correlation Energy =    -1.3936966116
 Nuclear Repu.   Energy =   121.7679934913
 Nuclear Attr.   Energy =  -733.3699965447
 Kinetic         Energy =   208.5177348293
 <S^2> = 0.0000
 SCF time:  CPU 139.19 s  wall 139.70 s
 Final Alpha MO Eigenvalues
            1           2           3           4           5           6
    1 -19.0883789 -14.3410656 -10.2790331 -10.1785798  -1.0425670  -0.9147901
            7           8           9          10          11          12
    1  -0.7474248  -0.6005009  -0.5506394  -0.4802142  -0.4555927  -0.4132248
           13          14          15          16          17          18
    1  -0.4091436  -0.3769904  -0.2836856  -0.2631452  -0.0214060   0.0077013
           19          20          21
    1   0.0087264   0.0210969   0.0420436
 Final Beta MO Eigenvalues
            1           2           3           4           5           6
    1 -19.0883789 -14.3410656 -10.2790331 -10.1785798  -1.0425670  -0.9147901
            7           8           9          10          11          12
    1  -0.7474248  -0.6005009  -0.5506394  -0.4802142  -0.4555927  -0.4132248
           13          14          15          16          17          18
    1  -0.4091436  -0.3769904  -0.2836856  -0.2631452  -0.0214060   0.0077013
           19          20          21
    1   0.0087264   0.0210969   0.0420436
 Analysis of SCF Wavefunction
 
 --------------------------------------------------------------
                    Orbital Energies (a.u.)
 --------------------------------------------------------------
 
 Alpha MOs
 -- Occupied --
-19.088 -14.341 -10.279 -10.179  -1.043  -0.915  -0.747  -0.601
 -0.551  -0.480  -0.456  -0.413  -0.409  -0.377  -0.284  -0.263
 -- Virtual --
 -0.021   0.008   0.009   0.021   0.042   0.047   0.059   0.082
  0.085   0.090   0.107   0.108   0.124   0.134   0.143   0.153
  0.162   0.176   0.187   0.196   0.225   0.248   0.256   0.281
  0.286   0.308   0.324   0.344   0.385   0.418   0.425   0.463
  0.487   0.503   0.521   0.551   0.563   0.575   0.598   0.630
  0.637   0.640   0.652   0.687   0.744   0.753   0.762   0.798
  0.818   0.854   0.920   0.941   0.955   0.968   1.001   1.019
  1.065   1.093   1.131   1.139   1.158   1.187   1.195   1.246
  1.251   1.302   1.314   1.336   1.403   1.412   1.422   1.437
  1.477   1.506   1.544   1.580   1.608   1.728   1.783   1.797
  1.810   1.892   2.048   2.101   2.377   2.433   2.486   2.533
  2.575   2.610   2.715   2.730   2.770   2.900   2.926   2.985
  2.987   3.030   3.064   3.074   3.120   3.128   3.196   3.235
  3.265   3.309   3.318   3.371   3.389   3.426   3.479   3.500
  3.512   3.570   3.645   3.717   3.732   3.778   3.847   3.885
  3.920   3.941   3.986   4.010   4.071   4.090   4.172   4.207
  4.216   4.314   4.377   4.386   4.427   4.438   4.521   4.548
  4.599   4.674   4.799   4.993   5.046   5.052   5.061   5.094
  5.144   5.164   5.285   5.359   5.488   5.541   5.568   5.598
  5.629   5.640   5.743   5.888   6.274   6.299   6.365   6.851
  6.879   6.946   7.079   7.271   7.507   7.682  24.279  24.713
 27.354  27.705  28.124  28.148  28.227  28.472  35.819  37.442
 38.335  38.413  40.609  40.626  40.631  40.698  40.791  40.900
 40.999  41.046  41.088  41.099  41.135  41.197  41.249  41.282
 41.371  43.775  43.809  43.918  43.958  44.047  45.861  46.006
 46.715  50.255
 
 Beta MOs
 -- Occupied --
-19.088 -14.341 -10.279 -10.179  -1.043  -0.915  -0.747  -0.601
 -0.551  -0.480  -0.456  -0.413  -0.409  -0.377  -0.284  -0.263
 -- Virtual --
 -0.021   0.008   0.009   0.021   0.042   0.047   0.059   0.082
  0.085   0.090   0.107   0.108   0.124   0.134   0.143   0.153
  0.162   0.176   0.187   0.196   0.225   0.248   0.256   0.281
  0.286   0.308   0.324   0.344   0.385   0.418   0.425   0.463
  0.487   0.503   0.521   0.551   0.563   0.575   0.598   0.630
  0.637   0.640   0.652   0.687   0.744   0.753   0.762   0.798
  0.818   0.854   0.920   0.941   0.955   0.968   1.001   1.019
  1.065   1.093   1.131   1.139   1.158   1.187   1.195   1.246
  1.251   1.302   1.314   1.336   1.403   1.412   1.422   1.437
  1.477   1.506   1.544   1.580   1.608   1.728   1.783   1.797
  1.810   1.892   2.048   2.101   2.377   2.433   2.486   2.533
  2.575   2.610   2.715   2.730   2.770   2.900   2.926   2.985
  2.987   3.030   3.064   3.074   3.120   3.128   3.196   3.235
  3.265   3.309   3.318   3.371   3.389   3.426   3.479   3.500
  3.512   3.570   3.645   3.717   3.732   3.778   3.847   3.885
  3.920   3.941   3.986   4.010   4.071   4.090   4.172   4.207
  4.216   4.314   4.377   4.386   4.427   4.438   4.521   4.548
  4.599   4.674   4.799   4.993   5.046   5.052   5.061   5.094
  5.144   5.164   5.285   5.359   5.488   5.541   5.568   5.598
  5.629   5.640   5.743   5.888   6.274   6.299   6.365   6.851
  6.879   6.946   7.079   7.271   7.507   7.682  24.279  24.713
 27.354  27.705  28.124  28.148  28.227  28.472  35.819  37.442
 38.335  38.413  40.609  40.626  40.631  40.698  40.791  40.900
 40.999  41.046  41.088  41.099  41.135  41.197  41.249  41.282
 41.371  43.775  43.809  43.918  43.958  44.047  45.861  46.006
 46.715  50.255
 --------------------------------------------------------------
 
          Ground-State Mulliken Net Atomic Charges

     Atom                 Charge (a.u.)    Spin (a.u.)
  --------------------------------------------------------
      1 C                    -0.268245       0.000000
      2 C                     0.227090       0.000000
      3 O                    -0.441580       0.000000
      4 N                    -0.278300       0.000000
      5 H                     0.226765       0.000000
      6 H                     0.185203       0.000000
      7 H                     0.080199       0.000000
      8 H                     0.133480       0.000000
      9 H                     0.135390       0.000000
  --------------------------------------------------------
  Sum of atomic charges =     0.000000
  Sum of spin   charges =     0.000000

 -----------------------------------------------------------------
                    Cartesian Multipole Moments
 -----------------------------------------------------------------
    Charge (ESU x 10^10)
                 0.0000
    Dipole Moment (Debye)
         X      -3.6431      Y       0.2141      Z      -1.4471
       Tot       3.9258
    Quadrupole Moments (Debye-Ang)
        XX     -23.8573     XY      -0.4414     YY     -25.3153
        XZ      -8.6124     YZ       0.4976     ZZ     -26.8459
    Octapole Moments (Debye-Ang^2)
       XXX      -4.6376    XXY       0.4905    XYY       5.1365
       YYY      -0.1406    XXZ     -33.4670    XYZ      -0.9432
       YYZ     -35.8822    XZZ     -19.0201    YZZ       1.1718
       ZZZ     -96.9351
    Hexadecapole Moments (Debye-Ang^3)
      XXXX    -122.5592   XXXY      -1.3963   XXYY     -31.2409
      XYYY       0.3334   YYYY     -32.7011   XXXZ      -4.5594
      XXYZ       1.5361   XYYZ       8.6193   YYYZ      -0.8317
      XXZZ     -95.7245   XYZZ      -2.1519   YYZZ     -85.3612
      XZZZ     -45.0955   YZZZ       3.0370   ZZZZ    -411.2694
 -----------------------------------------------------------------
 Calculating analytic gradient of the SCF energy
 Gradient of XC Energy
            1           2           3           4           5           6
    1   0.0031292  -0.1171639   0.3036719   0.0227828  -0.0120401  -0.2156642
    2  -0.0005883  -0.0013858   0.0016916  -0.0312381   0.0180285   0.0126173
    3   0.0657960  -0.1592454   0.1892369  -0.0085779   0.2518160  -0.1289011
            7           8           9
    1  -0.1716825   0.0752064   0.1117605
    2  -0.0184381   0.1608664  -0.1415535
    3  -0.0809582  -0.0641010  -0.0650652
 Gradient of SCF Energy
            1           2           3           4           5           6
    1   0.0000496   0.0001818   0.0001321  -0.0003013   0.0000019  -0.0000707
    2   0.0000357  -0.0000913   0.0000942  -0.0003814   0.0001094   0.0001964
    3  -0.0000223   0.0000279  -0.0000638   0.0001098  -0.0001366  -0.0000179
            7           8           9
    1   0.0000752  -0.0000230  -0.0000457
    2   0.0000017  -0.0000648   0.0001001
    3   0.0000081   0.0000298   0.0000650
 Max gradient component =       3.814E-04
 RMS gradient           =       1.258E-04
 Gradient time:  CPU 71.85 s  wall 71.93 s
 Geometry Optimization Parameters
   NAtoms,    NIC,     NZ,  NCons,   NDum,   NFix, NCnnct, MaxDiis
        9      48       9       0       0       0       0       0

 Cartesian Hessian Update
 Hessian Updated using BFGS Update


** GEOMETRY OPTIMIZATION IN DELOCALIZED INTERNAL COORDINATES **
   Searching for a Minimum

   Optimization Cycle:   4

                       Coordinates (Angstroms)
     ATOM              X           Y           Z
    1  C          -0.000638   -0.000024    0.002166
    2  C          -0.003231    0.002210    1.518136
    3  O           1.024882    0.001640    2.166623
    4  N          -1.233670    0.002651    2.109807
    5  H          -1.279749    0.065180    3.112624
    6  H          -2.083145    0.077336    1.581697
    7  H          -0.990664   -0.112045   -0.436615
    8  H           0.438274    0.934741   -0.345138
    9  H           0.639269   -0.809713   -0.342676
   Point Group: c1    Number of degrees of freedom:  21


   Energy is   -209.302064124

 Hessian Updated using BFGS Update

 20 Hessian modes will be used to form the next step
  Hessian Eigenvalues:
     0.006049    0.010305    0.019730    0.042478    0.069180    0.075822
     0.158255    0.159952    0.160592    0.165833    0.248206    0.251532
     0.300643    0.339084    0.342993    0.343740    0.455188    0.464784
     0.519471    0.953716

 Minimum Search - Taking Simple RFO Step
 Searching for Lamda that Minimizes Along All modes
 Value Taken    Lamda =  -0.00000753
 Step Taken.  Stepsize is  0.025971

                             Maximum     Tolerance    Cnvgd?
         Gradient           0.000272      0.000300     YES
         Displacement       0.015037      0.001200      NO
         Energy change     -0.000015      0.000001      NO


 New Cartesian Coordinates Obtained by Inverse Iteration

 Displacement from previous Coordinates is:  0.022022
 Writing REM_CC_EA            9
 ----------------------------------------------------
       Standard Nuclear Orientation (Angstroms)
    I     Atom         X            Y            Z
 ----------------------------------------------------
    1      C      -0.000685     0.000485     0.001950
    2      C      -0.003136     0.004985     1.518152
    3      O       1.024873     0.002446     2.166693
    4      N      -1.233273     0.007797     2.110056
    5      H      -1.280093     0.062811     3.113321
    6      H      -2.083439     0.070482     1.581622
    7      H      -0.991103    -0.108181    -0.436976
    8      H       0.441874     0.933260    -0.346364
    9      H       0.636309    -0.812111    -0.341830
 ----------------------------------------------------
 Nuclear Repulsion Energy =   121.7658060354 hartrees
 There are       16 alpha and       16 beta electrons
 Applying Cartesian multipole field
    Component          Value
    ---------          -----
     (2,0,0)        1.00000E-11
     (0,2,0)        2.00000E-11
     (0,0,2)       -3.00000E-11
 Nucleus-field energy     =    -0.0000000091 hartrees
 Requested basis set is G3large
 There are 70 shells and 218 basis functions
 A cutoff of  1.0D-11 yielded   2356 shell pairs
 There are  22981 function pairs ( 28445 Cartesian)
Evaluating contribution to one-electron hamiltonian from nuclear
 Smallest overlap matrix eigenvalue = 8.87E-05
 Multipole matrices computed through 2nd order
 Guess MOs from SCF MO coefficient file
Reading MOs from coefficient file
Reading MOs from coefficient file
 An unrestricted hybrid HF-DFT SCF calculation will be
 performed using Pulay DIIS extrapolation
 Exchange:     0.2000 Hartree-Fock + 0.0800 Slater + 0.7200 Becke88
 Correlation:  0.8100 LYP + 0.1900 VWN1RPA
 Using SG-1 standard quadrature grid
 SCF converges when DIIS error is below 1.0E-08
 ---------------------------------------
  Cycle       Energy         DIIS Error
 ---------------------------------------
    1    -209.3019676543      8.80E-05
    2    -209.3020692001      1.55E-05
    3    -209.3020700459      7.46E-06
    4    -209.3020701335      1.91E-06
    5    -209.3020702206      1.07E-06
    6    -209.3020702168      3.39E-07
    7    -209.3020701911      9.72E-08
    8    -209.3020701944      2.45E-08
    9    -209.3020701980      8.77E-09 Convergence criterion met
 ---------------------------------------
 One-Electron    Energy =  -524.8486795144
 Total Coulomb   Energy =   222.0543785518
 Alpha Exchange  Energy =    -2.6994848433
 Beta  Exchange  Energy =    -2.6994848433
 DFT   Exchange  Energy =   -21.4809131573
 DFT Correlation Energy =    -1.3936924179
 Nuclear Repu.   Energy =   121.7658060263
 Nuclear Attr.   Energy =  -733.3658139538
 Kinetic         Energy =   208.5171344394
 <S^2> = 0.0000
 SCF time:  CPU 138.93 s  wall 139.36 s
 Final Alpha MO Eigenvalues
            1           2           3           4           5           6
    1 -19.0882882 -14.3410665 -10.2790045 -10.1786220  -1.0425407  -0.9147473
            7           8           9          10          11          12
    1  -0.7473594  -0.6005520  -0.5507314  -0.4801884  -0.4555463  -0.4131868
           13          14          15          16          17          18
    1  -0.4091296  -0.3769794  -0.2835484  -0.2631235  -0.0214001   0.0078550
           19          20          21
    1   0.0086764   0.0210571   0.0421848
 Final Beta MO Eigenvalues
            1           2           3           4           5           6
    1 -19.0882882 -14.3410665 -10.2790045 -10.1786220  -1.0425407  -0.9147473
            7           8           9          10          11          12
    1  -0.7473594  -0.6005520  -0.5507314  -0.4801884  -0.4555463  -0.4131868
           13          14          15          16          17          18
    1  -0.4091296  -0.3769794  -0.2835484  -0.2631235  -0.0214001   0.0078550
           19          20          21
    1   0.0086764   0.0210571   0.0421848
 Analysis of SCF Wavefunction
 
 --------------------------------------------------------------
                    Orbital Energies (a.u.)
 --------------------------------------------------------------
 
 Alpha MOs
 -- Occupied --
-19.088 -14.341 -10.279 -10.179  -1.043  -0.915  -0.747  -0.601
 -0.551  -0.480  -0.456  -0.413  -0.409  -0.377  -0.284  -0.263
 -- Virtual --
 -0.021   0.008   0.009   0.021   0.042   0.047   0.059   0.082
  0.085   0.090   0.107   0.108   0.124   0.134   0.143   0.153
  0.162   0.176   0.187   0.196   0.225   0.248   0.256   0.281
  0.286   0.308   0.325   0.345   0.385   0.419   0.425   0.464
  0.488   0.506   0.521   0.550   0.563   0.575   0.598   0.631
  0.638   0.640   0.652   0.687   0.744   0.753   0.761   0.798
  0.819   0.854   0.920   0.941   0.955   0.967   1.000   1.019
  1.065   1.093   1.130   1.139   1.158   1.187   1.195   1.246
  1.252   1.302   1.315   1.336   1.404   1.412   1.423   1.436
  1.478   1.504   1.543   1.580   1.608   1.728   1.783   1.798
  1.810   1.893   2.048   2.101   2.377   2.433   2.485   2.534
  2.575   2.612   2.715   2.730   2.771   2.900   2.927   2.984
  2.987   3.030   3.064   3.076   3.121   3.128   3.197   3.236
  3.265   3.309   3.317   3.371   3.387   3.426   3.478   3.500
  3.513   3.571   3.642   3.717   3.732   3.778   3.848   3.884
  3.920   3.941   3.987   4.011   4.069   4.091   4.173   4.206
  4.217   4.317   4.377   4.391   4.430   4.437   4.521   4.544
  4.594   4.671   4.799   4.992   5.045   5.051   5.061   5.094
  5.145   5.164   5.286   5.360   5.488   5.542   5.569   5.598
  5.628   5.640   5.743   5.889   6.276   6.298   6.365   6.851
  6.879   6.946   7.080   7.271   7.508   7.682  24.278  24.713
 27.353  27.705  28.123  28.148  28.227  28.472  35.819  37.441
 38.335  38.414  40.610  40.625  40.630  40.698  40.791  40.901
 40.999  41.046  41.088  41.099  41.135  41.197  41.249  41.281
 41.371  43.775  43.809  43.918  43.958  44.047  45.861  46.006
 46.716  50.256
 
 Beta MOs
 -- Occupied --
-19.088 -14.341 -10.279 -10.179  -1.043  -0.915  -0.747  -0.601
 -0.551  -0.480  -0.456  -0.413  -0.409  -0.377  -0.284  -0.263
 -- Virtual --
 -0.021   0.008   0.009   0.021   0.042   0.047   0.059   0.082
  0.085   0.090   0.107   0.108   0.124   0.134   0.143   0.153
  0.162   0.176   0.187   0.196   0.225   0.248   0.256   0.281
  0.286   0.308   0.325   0.345   0.385   0.419   0.425   0.464
  0.488   0.506   0.521   0.550   0.563   0.575   0.598   0.631
  0.638   0.640   0.652   0.687   0.744   0.753   0.761   0.798
  0.819   0.854   0.920   0.941   0.955   0.967   1.000   1.019
  1.065   1.093   1.130   1.139   1.158   1.187   1.195   1.246
  1.252   1.302   1.315   1.336   1.404   1.412   1.423   1.436
  1.478   1.504   1.543   1.580   1.608   1.728   1.783   1.798
  1.810   1.893   2.048   2.101   2.377   2.433   2.485   2.534
  2.575   2.612   2.715   2.730   2.771   2.900   2.927   2.984
  2.987   3.030   3.064   3.076   3.121   3.128   3.197   3.236
  3.265   3.309   3.317   3.371   3.387   3.426   3.478   3.500
  3.513   3.571   3.642   3.717   3.732   3.778   3.848   3.884
  3.920   3.941   3.987   4.011   4.069   4.091   4.173   4.206
  4.217   4.317   4.377   4.391   4.430   4.437   4.521   4.544
  4.594   4.671   4.799   4.992   5.045   5.051   5.061   5.094
  5.145   5.164   5.286   5.360   5.488   5.542   5.569   5.598
  5.628   5.640   5.743   5.889   6.276   6.298   6.365   6.851
  6.879   6.946   7.080   7.271   7.508   7.682  24.278  24.713
 27.353  27.705  28.123  28.148  28.227  28.472  35.819  37.441
 38.335  38.414  40.610  40.625  40.630  40.698  40.791  40.901
 40.999  41.046  41.088  41.099  41.135  41.197  41.249  41.281
 41.371  43.775  43.809  43.918  43.958  44.047  45.861  46.006
 46.716  50.256
 --------------------------------------------------------------
 
          Ground-State Mulliken Net Atomic Charges

     Atom                 Charge (a.u.)    Spin (a.u.)
  --------------------------------------------------------
      1 C                    -0.268130       0.000000
      2 C                     0.227170       0.000000
      3 O                    -0.441699       0.000000
      4 N                    -0.278600       0.000000
      5 H                     0.227056       0.000000
      6 H                     0.185116       0.000000
      7 H                     0.080131       0.000000
      8 H                     0.133627       0.000000
      9 H                     0.135328       0.000000
  --------------------------------------------------------
  Sum of atomic charges =     0.000000
  Sum of spin   charges =     0.000000

 -----------------------------------------------------------------
                    Cartesian Multipole Moments
 -----------------------------------------------------------------
    Charge (ESU x 10^10)
                 0.0000
    Dipole Moment (Debye)
         X      -3.6473      Y       0.1877      Z      -1.4461
       Tot       3.9280
    Quadrupole Moments (Debye-Ang)
        XX     -23.8489     XY      -0.3864     YY     -25.3190
        XZ      -8.6228     YZ       0.4381     ZZ     -26.8390
    Octapole Moments (Debye-Ang^2)
       XXX      -4.6753    XXY       0.3421    XYY       5.1400
       YYY      -0.3036    XXZ     -33.4475    XYZ      -0.8345
       YYZ     -35.8901    XZZ     -19.0546    YZZ       0.9881
       ZZZ     -96.8988
    Hexadecapole Moments (Debye-Ang^3)
      XXXX    -122.4775   XXXY      -1.1183   XXYY     -31.2433
      XYYY       0.4440   YYYY     -32.7047   XXXZ      -4.6261
      XXYZ       1.2389   XYYZ       8.6206   YYYZ      -1.1197
      XXZZ     -95.6762   XYZZ      -1.8930   YYZZ     -85.3899
      XZZZ     -45.2104   YZZZ       2.4396   ZZZZ    -411.1665
 -----------------------------------------------------------------
 Calculating analytic gradient of the SCF energy
 Gradient of XC Energy
            1           2           3           4           5           6
    1   0.0030072  -0.1170203   0.3035637   0.0231663  -0.0121656  -0.2159042
    2  -0.0008515  -0.0002493   0.0008165  -0.0266589   0.0159363   0.0104279
    3   0.0657671  -0.1596018   0.1893167  -0.0082835   0.2519101  -0.1290448
            7           8           9
    1  -0.1717074   0.0758465   0.1112136
    2  -0.0179164   0.1605091  -0.1420136
    3  -0.0809791  -0.0641818  -0.0649028
 Gradient of SCF Energy
            1           2           3           4           5           6
    1  -0.0000080   0.0002797  -0.0000252  -0.0002501  -0.0000146  -0.0000263
    2  -0.0001303   0.0003831  -0.0001039  -0.0004050   0.0000897   0.0001300
    3  -0.0000703   0.0000335  -0.0000539   0.0001700  -0.0000423  -0.0000637
            7           8           9
    1   0.0000365   0.0000047   0.0000034
    2  -0.0000099  -0.0000001   0.0000465
    3  -0.0000373   0.0000519   0.0000121
 Max gradient component =       4.050E-04
 RMS gradient           =       1.437E-04
 Gradient time:  CPU 72.44 s  wall 72.53 s
 Geometry Optimization Parameters
   NAtoms,    NIC,     NZ,  NCons,   NDum,   NFix, NCnnct, MaxDiis
        9      48       9       0       0       0       0       0

 Cartesian Hessian Update
 Hessian Updated using BFGS Update


** GEOMETRY OPTIMIZATION IN DELOCALIZED INTERNAL COORDINATES **
   Searching for a Minimum

   Optimization Cycle:   5

                       Coordinates (Angstroms)
     ATOM              X           Y           Z
    1  C          -0.000685    0.000485    0.001950
    2  C          -0.003136    0.004985    1.518152
    3  O           1.024873    0.002446    2.166693
    4  N          -1.233273    0.007797    2.110056
    5  H          -1.280093    0.062811    3.113321
    6  H          -2.083439    0.070482    1.581622
    7  H          -0.991103   -0.108181   -0.436976
    8  H           0.441874    0.933260   -0.346364
    9  H           0.636309   -0.812111   -0.341830
   Point Group: c1    Number of degrees of freedom:  21


   Energy is   -209.302070198

 Hessian Updated using BFGS Update

 21 Hessian modes will be used to form the next step
  Hessian Eigenvalues:
     0.002606    0.006402    0.019675    0.054343    0.070312    0.076114
     0.158594    0.160000    0.160193    0.161718    0.171893    0.248040
     0.253672    0.306006    0.340611    0.343148    0.343688    0.455612
     0.464551    0.509329    0.958916

 Minimum Search - Taking Simple RFO Step
 Searching for Lamda that Minimizes Along All modes
 Value Taken    Lamda =  -0.00001528
 Step Taken.  Stepsize is  0.074533

                             Maximum     Tolerance    Cnvgd?
         Gradient           0.000194      0.000300     YES
         Displacement       0.036999      0.001200      NO
         Energy change     -0.000006      0.000001      NO


 New Cartesian Coordinates Obtained by Inverse Iteration

 Displacement from previous Coordinates is:  0.061909
 Writing REM_CC_EA            9
 ----------------------------------------------------
       Standard Nuclear Orientation (Angstroms)
    I     Atom         X            Y            Z
 ----------------------------------------------------
    1      C      -0.000783     0.001805     0.001879
    2      C      -0.002935     0.010496     1.518228
    3      O       1.025230     0.006216     2.166532
    4      N      -1.232482     0.022244     2.109966
    5      H      -1.280627     0.056954     3.113982
    6      H      -2.084143     0.050783     1.581307
    7      H      -0.992372    -0.096632    -0.436939
    8      H       0.452140     0.928867    -0.348510
    9      H       0.627297    -0.818758    -0.339819
 ----------------------------------------------------
 Nuclear Repulsion Energy =   121.7724853810 hartrees
 There are       16 alpha and       16 beta electrons
 Applying Cartesian multipole field
    Component          Value
    ---------          -----
     (2,0,0)        1.00000E-11
     (0,2,0)        2.00000E-11
     (0,0,2)       -3.00000E-11
 Nucleus-field energy     =    -0.0000000091 hartrees
 Requested basis set is G3large
 There are 70 shells and 218 basis functions
 A cutoff of  1.0D-11 yielded   2357 shell pairs
 There are  22982 function pairs ( 28446 Cartesian)
Evaluating contribution to one-electron hamiltonian from nuclear
 Smallest overlap matrix eigenvalue = 8.89E-05
 Multipole matrices computed through 2nd order
 Guess MOs from SCF MO coefficient file
Reading MOs from coefficient file
Reading MOs from coefficient file
 An unrestricted hybrid HF-DFT SCF calculation will be
 performed using Pulay DIIS extrapolation
 Exchange:     0.2000 Hartree-Fock + 0.0800 Slater + 0.7200 Becke88
 Correlation:  0.8100 LYP + 0.1900 VWN1RPA
 Using SG-1 standard quadrature grid
 SCF converges when DIIS error is below 1.0E-08
 ---------------------------------------
  Cycle       Energy         DIIS Error
 ---------------------------------------
    1    -209.3016646345      2.42E-04
    2    -209.3020717324      4.43E-05
    3    -209.3020780413      2.24E-05
    4    -209.3020801096      7.26E-06
    5    -209.3020803956      3.19E-06
    6    -209.3020803926      1.16E-06
    7    -209.3020803789      3.09E-07
    8    -209.3020803579      6.35E-08
    9    -209.3020803719      2.35E-08
   10    -209.3020803670      2.06E-09 Convergence criterion met
 ---------------------------------------
 One-Electron    Energy =  -524.8628934777
 Total Coulomb   Energy =   222.0620784990
 Alpha Exchange  Energy =    -2.6995031725
 Beta  Exchange  Energy =    -2.6995031725
 DFT   Exchange  Energy =   -21.4810383022
 DFT Correlation Energy =    -1.3937061130
 Nuclear Repu.   Energy =   121.7724853718
 Nuclear Attr.   Energy =  -733.3801704900
 Kinetic         Energy =   208.5172770123
 <S^2> = 0.0000
 SCF time:  CPU 155.89 s  wall 156.40 s
 Final Alpha MO Eigenvalues
            1           2           3           4           5           6
    1 -19.0881027 -14.3411038 -10.2789228 -10.1786155  -1.0424347  -0.9147952
            7           8           9          10          11          12
    1  -0.7472790  -0.6007593  -0.5509954  -0.4801328  -0.4554940  -0.4130909
           13          14          15          16          17          18
    1  -0.4090989  -0.3769468  -0.2833224  -0.2630600  -0.0214035   0.0081968
           19          20          21
    1   0.0085453   0.0209719   0.0426032
 Final Beta MO Eigenvalues
            1           2           3           4           5           6
    1 -19.0881027 -14.3411038 -10.2789228 -10.1786155  -1.0424347  -0.9147952
            7           8           9          10          11          12
    1  -0.7472790  -0.6007593  -0.5509954  -0.4801328  -0.4554940  -0.4130909
           13          14          15          16          17          18
    1  -0.4090989  -0.3769468  -0.2833224  -0.2630600  -0.0214035   0.0081968
           19          20          21
    1   0.0085453   0.0209719   0.0426032
 Analysis of SCF Wavefunction
 
 --------------------------------------------------------------
                    Orbital Energies (a.u.)
 --------------------------------------------------------------
 
 Alpha MOs
 -- Occupied --
-19.088 -14.341 -10.279 -10.179  -1.042  -0.915  -0.747  -0.601
 -0.551  -0.480  -0.455  -0.413  -0.409  -0.377  -0.283  -0.263
 -- Virtual --
 -0.021   0.008   0.009   0.021   0.043   0.047   0.059   0.082
  0.085   0.090   0.107   0.108   0.124   0.134   0.143   0.153
  0.162   0.176   0.188   0.196   0.226   0.249   0.257   0.281
  0.287   0.307   0.325   0.347   0.386   0.419   0.425   0.464
  0.489   0.512   0.521   0.548   0.562   0.573   0.596   0.631
  0.638   0.640   0.652   0.688   0.745   0.754   0.760   0.799
  0.821   0.853   0.919   0.942   0.954   0.966   0.998   1.019
  1.066   1.094   1.130   1.139   1.158   1.188   1.195   1.246
  1.256   1.302   1.317   1.334   1.407   1.413   1.426   1.435
  1.482   1.498   1.543   1.580   1.608   1.729   1.783   1.799
  1.810   1.894   2.049   2.101   2.378   2.433   2.484   2.535
  2.576   2.615   2.714   2.730   2.773   2.900   2.929   2.982
  2.989   3.030   3.064   3.079   3.123   3.127   3.198   3.237
  3.265   3.311   3.315   3.371   3.383   3.426   3.477   3.500
  3.515   3.573   3.635   3.718   3.732   3.778   3.849   3.883
  3.920   3.941   3.989   4.012   4.067   4.092   4.177   4.206
  4.218   4.323   4.376   4.400   4.433   4.445   4.508   4.544
  4.581   4.668   4.798   4.989   5.043   5.049   5.061   5.094
  5.146   5.164   5.287   5.362   5.488   5.543   5.570   5.601
  5.626   5.639   5.743   5.891   6.281   6.294   6.365   6.853
  6.879   6.947   7.081   7.271   7.508   7.683  24.278  24.714
 27.353  27.706  28.123  28.148  28.228  28.473  35.821  37.439
 38.337  38.415  40.611  40.624  40.628  40.698  40.792  40.901
 40.999  41.047  41.088  41.099  41.135  41.197  41.250  41.281
 41.372  43.776  43.809  43.918  43.958  44.047  45.861  46.006
 46.716  50.256
 
 Beta MOs
 -- Occupied --
-19.088 -14.341 -10.279 -10.179  -1.042  -0.915  -0.747  -0.601
 -0.551  -0.480  -0.455  -0.413  -0.409  -0.377  -0.283  -0.263
 -- Virtual --
 -0.021   0.008   0.009   0.021   0.043   0.047   0.059   0.082
  0.085   0.090   0.107   0.108   0.124   0.134   0.143   0.153
  0.162   0.176   0.188   0.196   0.226   0.249   0.257   0.281
  0.287   0.307   0.325   0.347   0.386   0.419   0.425   0.464
  0.489   0.512   0.521   0.548   0.562   0.573   0.596   0.631
  0.638   0.640   0.652   0.688   0.745   0.754   0.760   0.799
  0.821   0.853   0.919   0.942   0.954   0.966   0.998   1.019
  1.066   1.094   1.130   1.139   1.158   1.188   1.195   1.246
  1.256   1.302   1.317   1.334   1.407   1.413   1.426   1.435
  1.482   1.498   1.543   1.580   1.608   1.729   1.783   1.799
  1.810   1.894   2.049   2.101   2.378   2.433   2.484   2.535
  2.576   2.615   2.714   2.730   2.773   2.900   2.929   2.982
  2.989   3.030   3.064   3.079   3.123   3.127   3.198   3.237
  3.265   3.311   3.315   3.371   3.383   3.426   3.477   3.500
  3.515   3.573   3.635   3.718   3.732   3.778   3.849   3.883
  3.920   3.941   3.989   4.012   4.067   4.092   4.177   4.206
  4.218   4.323   4.376   4.400   4.433   4.445   4.508   4.544
  4.581   4.668   4.798   4.989   5.043   5.049   5.061   5.094
  5.146   5.164   5.287   5.362   5.488   5.543   5.570   5.601
  5.626   5.639   5.743   5.891   6.281   6.294   6.365   6.853
  6.879   6.947   7.081   7.271   7.508   7.683  24.278  24.714
 27.353  27.706  28.123  28.148  28.228  28.473  35.821  37.439
 38.337  38.415  40.611  40.624  40.628  40.698  40.792  40.901
 40.999  41.047  41.088  41.099  41.135  41.197  41.250  41.281
 41.372  43.776  43.809  43.918  43.958  44.047  45.861  46.006
 46.716  50.256
 --------------------------------------------------------------
 
          Ground-State Mulliken Net Atomic Charges

     Atom                 Charge (a.u.)    Spin (a.u.)
  --------------------------------------------------------
      1 C                    -0.267899       0.000000
      2 C                     0.227166       0.000000
      3 O                    -0.442061       0.000000
      4 N                    -0.279028       0.000000
      5 H                     0.227668       0.000000
      6 H                     0.184937       0.000000
      7 H                     0.079879       0.000000
      8 H                     0.134322       0.000000
      9 H                     0.135015       0.000000
  --------------------------------------------------------
  Sum of atomic charges =     0.000000
  Sum of spin   charges =     0.000000

 -----------------------------------------------------------------
                    Cartesian Multipole Moments
 -----------------------------------------------------------------
    Charge (ESU x 10^10)
                 0.0000
    Dipole Moment (Debye)
         X      -3.6581      Y       0.1090      Z      -1.4430
       Tot       3.9339
    Quadrupole Moments (Debye-Ang)
        XX     -23.8306     XY      -0.2360     YY     -25.3266
        XZ      -8.6480     YZ       0.2622     ZZ     -26.8262
    Octapole Moments (Debye-Ang^2)
       XXX      -4.7713    XXY      -0.0672    XYY       5.1475
       YYY      -0.7498    XXZ     -33.4038    XYZ      -0.5423
       YYZ     -35.9045    XZZ     -19.1285    YZZ       0.4688
       ZZZ     -96.8345
    Hexadecapole Moments (Debye-Ang^3)
      XXXX    -122.3135   XXXY      -0.3722   XXYY     -31.2563
      XYYY       0.7263   YYYY     -32.7208   XXXZ      -4.8042
      XXYZ       0.4128   XYYZ       8.6144   YYYZ      -1.9315
      XXZZ     -95.5653   XYZZ      -1.2139   YYZZ     -85.4265
      XZZZ     -45.4528   YZZZ       0.7627   ZZZZ    -410.9116
 -----------------------------------------------------------------
 Calculating analytic gradient of the SCF energy
 Gradient of XC Energy
            1           2           3           4           5           6
    1   0.0028428  -0.1167114   0.3034850   0.0238433  -0.0123599  -0.2165148
    2  -0.0009982  -0.0001646  -0.0001302  -0.0132360   0.0101365   0.0044547
    3   0.0656678  -0.1599561   0.1892632  -0.0080550   0.2521288  -0.1292126
            7           8           9
    1  -0.1718429   0.0776970   0.1095608
    2  -0.0163081   0.1595528  -0.1433068
    3  -0.0809038  -0.0643693  -0.0645629
 Gradient of SCF Energy
            1           2           3           4           5           6
    1  -0.0000803   0.0002210  -0.0001126  -0.0001526  -0.0000028   0.0000443
    2  -0.0002378   0.0006465  -0.0002452  -0.0002650   0.0000394   0.0000166
    3  -0.0000892   0.0001720  -0.0000819   0.0001244  -0.0000374  -0.0000891
            7           8           9
    1   0.0000039   0.0000268   0.0000523
    2  -0.0000145   0.0000670  -0.0000069
    3  -0.0000542   0.0000706  -0.0000152
 Max gradient component =       6.465E-04
 RMS gradient           =       1.705E-04
 Gradient time:  CPU 68.36 s  wall 68.43 s
 Geometry Optimization Parameters
   NAtoms,    NIC,     NZ,  NCons,   NDum,   NFix, NCnnct, MaxDiis
        9      48       9       0       0       0       0       0

 Cartesian Hessian Update
 Hessian Updated using BFGS Update


** GEOMETRY OPTIMIZATION IN DELOCALIZED INTERNAL COORDINATES **
   Searching for a Minimum

   Optimization Cycle:   6

                       Coordinates (Angstroms)
     ATOM              X           Y           Z
    1  C          -0.000783    0.001805    0.001879
    2  C          -0.002935    0.010496    1.518228
    3  O           1.025230    0.006216    2.166532
    4  N          -1.232482    0.022244    2.109966
    5  H          -1.280627    0.056954    3.113982
    6  H          -2.084143    0.050783    1.581307
    7  H          -0.992372   -0.096632   -0.436939
    8  H           0.452140    0.928867   -0.348510
    9  H           0.627297   -0.818758   -0.339819
   Point Group: c1    Number of degrees of freedom:  21


   Energy is   -209.302080367

 Hessian Updated using BFGS Update

 21 Hessian modes will be used to form the next step
  Hessian Eigenvalues:
     0.001597    0.006490    0.019666    0.055290    0.070560    0.076029
     0.158402    0.160006    0.160262    0.161819    0.172116    0.248129
[...]
Order 1, Length 27
   0.0034538  -0.0020139  -0.1747356   0.1476633   0.0040990   0.6843749  -0.2650011  -0.0004313  -0.2883553   0.0923699  -0.0031859  -0.1956984   0.0374333  -0.0004858  -0.0152973  -0.0234998   0.0004274   0.0155834   0.0029762   0.0005819  -0.0028680   0.0022939  -0.0009612  -0.0117305   0.0023129   0.0019769  -0.0112681
Order 1, Length 27
  -0.0042475   0.0003034  -0.0240657  -0.4931539   0.0005239  -0.2650011   0.6037893  -0.0014781   0.3084605  -0.1056306   0.0008651  -0.0203204   0.0018277  -0.0000847  -0.0033886  -0.0052696   0.0002202   0.0066011   0.0027982   0.0000856  -0.0009311  -0.0002513   0.0006740  -0.0006422   0.0001350  -0.0011194  -0.0007190
Order 1, Length 27
   0.0006378   0.0166429  -0.0002873   0.0006323  -0.0797796  -0.0004313  -0.0014781   0.0353915   0.0004456   0.0009939   0.0205090   0.0005902  -0.0001474  -0.0050335   0.0001006   0.0001879   0.0076360  -0.0001707  -0.0003174   0.0027010   0.0002752  -0.0003928   0.0009843  -0.0041853  -0.0001161   0.0009490   0.0036624
Order 1, Length 27
  -0.0438544  -0.0004865  -0.0312851  -0.2528201  -0.0004405  -0.2883553   0.3084605   0.0004456   0.2872017  -0.0074720   0.0003773   0.0363099  -0.0057587   0.0001793   0.0018103   0.0047320  -0.0001501   0.0009284  -0.0002518   0.0001850  -0.0107872  -0.0014805   0.0002162   0.0017341  -0.0015571  -0.0003326   0.0024395
Order 1, Length 27
  -0.0012897  -0.0000078   0.0099424  -0.2583016   0.0034021   0.0923699  -0.1056306   0.0009939  -0.0074720   0.7934020  -0.0040953   0.0663569  -0.0761456   0.0007684   0.0149318  -0.3532529  -0.0012753  -0.1767354   0.0003502   0.0001428   0.0022724   0.0003305   0.0007006  -0.0006774   0.0005346  -0.0006301  -0.0009870
Order 1, Length 27
   0.0000050   0.0128747  -0.0004572   0.0029551  -0.0474142  -0.0031859   0.0008651   0.0205090   0.0003773  -0.0040953   0.0171286   0.0128939   0.0007693  -0.0054524  -0.0071348  -0.0010088   0.0033257  -0.0023046   0.0001007  -0.0003543   0.0002630   0.0004871  -0.0003656  -0.0017793  -0.0000778  -0.0002527   0.0013276
Order 1, Length 27
   0.0357180  -0.0009527  -0.0235063   0.0754852  -0.0031020  -0.1956984  -0.0203204   0.0005902   0.0363099   0.0663569   0.0128939   0.8317868   0.0161015  -0.0069413  -0.4533199  -0.1764886  -0.0024326  -0.1884650   0.0007215  -0.0000939   0.0012800   0.0012649  -0.0002723  -0.0036126   0.0011614   0.0003109  -0.0047721
Order 1, Length 27
  -0.0047712   0.0001598   0.0004326   0.0090386   0.0003906   0.0374333   0.0018277  -0.0001474  -0.0057587  -0.0761456   0.0007693   0.0161015   0.0617418  -0.0006873  -0.0220036   0.0079740  -0.0005071  -0.0278876   0.0004361   0.0000393  -0.0001477  -0.0000714   0.0000505   0.0007843  -0.0000301  -0.0000683   0.0010457
Order 1, Length 27
  -0.0002050   0.0074117  -0.0002087  -0.0001217  -0.0000518  -0.0004858  -0.0000847  -0.0050335   0.0001793   0.0007684  -0.0054524  -0.0069413  -0.0006873   0.0090251   0.0073985   0.0000168  -0.0052023   0.0001308   0.0000823  -0.0000526   0.0000673   0.0004729  -0.0003722  -0.0013136  -0.0002417  -0.0002706   0.0011735
Order 1, Length 27
   0.0024583  -0.0003151   0.0014185   0.0017843  -0.0001857  -0.0152973  -0.0033886   0.0001006   0.0018103   0.0149318  -0.0071348  -0.4533199  -0.0220036   0.0073985   0.4720595   0.0058830  -0.0000300  -0.0061161  -0.0002307   0.0000021   0.0005702   0.0002697  -0.0001069  -0.0004929   0.0002945   0.0002742  -0.0006298
Order 1, Length 27
   0.0005031  -0.0002026  -0.0003731  -0.0146418  -0.0003584  -0.0234998  -0.0052696   0.0001879   0.0047320  -0.3532529  -0.0010088  -0.1764886   0.0079740   0.0000168   0.0058830   0.3627996   0.0011845   0.1888424   0.0010636   0.0001006   0.0011917   0.0003610   0.0000613  -0.0000999   0.0004638   0.0000128  -0.0001942
Order 1, Length 27
   0.0003469  -0.0025283   0.0001943   0.0003842  -0.0092854   0.0004274   0.0002202   0.0076360  -0.0001501  -0.0012753   0.0033257  -0.0024326  -0.0005071  -0.0052023  -0.0000300   0.0011845   0.0050025   0.0020601  -0.0000765   0.0008039  -0.0001297  -0.0007047   0.0001220   0.0003627   0.0004280   0.0001270  -0.0003022
Order 1, Length 27
   0.0009657   0.0002268  -0.0005574   0.0081067   0.0003322   0.0155834   0.0066011  -0.0001707   0.0009284  -0.1767354  -0.0023046  -0.1884650  -0.0278876   0.0001308  -0.0061161   0.1888424   0.0020601   0.1801157   0.0007200  -0.0002168  -0.0012535  -0.0002334  -0.0000951  -0.0001365  -0.0003784   0.0000341  -0.0001025
Order 1, Length 27
  -0.2702163  -0.0189224  -0.0960239  -0.0011651   0.0007022   0.0029762   0.0027982  -0.0003174  -0.0002518   0.0003502   0.0001007   0.0007215   0.0004361   0.0000823  -0.0002307   0.0010636  -0.0000765   0.0007200   0.2931710   0.0212513   0.1035888  -0.0115058   0.0000384  -0.0048396  -0.0149327  -0.0028608  -0.0066645
Order 1, Length 27
  -0.0187171  -0.0487861  -0.0085576  -0.0001754  -0.0038341   0.0005819   0.0000856   0.0027010   0.0001850   0.0001428  -0.0003543  -0.0000939   0.0000393  -0.0000526   0.0000021   0.0001006   0.0008039  -0.0002168   0.0212513   0.0464290   0.0090526  -0.0246508  -0.0005592  -0.0121403   0.0219238   0.0036521   0.0111868
Order 1, Length 27
  -0.0915556  -0.0088061  -0.0903735  -0.0345041  -0.0026063  -0.0028680  -0.0009311   0.0002752  -0.0107872   0.0022724   0.0002630   0.0012800  -0.0001477   0.0000673   0.0005702   0.0011917  -0.0001297  -0.0012535   0.1035888   0.0090526   0.0949060   0.0103792  -0.0006526   0.0043938   0.0097058   0.0025352   0.0041312
Order 1, Length 27
  -0.0929634  -0.0988390   0.0342431  -0.0025990   0.0001928   0.0022939  -0.0002513  -0.0003928  -0.0014805   0.0003305   0.0004871   0.0012649  -0.0000714   0.0004729   0.0002697   0.0003610  -0.0007047  -0.0002334  -0.0115058  -0.0246508   0.0103792   0.0981209   0.1073360  -0.0398487   0.0085782   0.0160987  -0.0068895
Order 1, Length 27
  -0.0980707  -0.2356373   0.0732787   0.0003392   0.0014643  -0.0009612   0.0006740   0.0009843   0.0002162   0.0007006  -0.0003656  -0.0002723   0.0000505  -0.0003722  -0.0001069   0.0000613   0.0001220  -0.0000951   0.0000384  -0.0005592  -0.0006526   0.1073360   0.2554016  -0.0795810  -0.0111300  -0.0210360   0.0081722
Order 1, Length 27
   0.0346700   0.0753761  -0.0715882   0.0158346   0.0320776  -0.0117305  -0.0006422  -0.0041853   0.0017341  -0.0006774  -0.0017793  -0.0036126   0.0007843  -0.0013136  -0.0004929  -0.0000999   0.0003627  -0.0001365  -0.0048396  -0.0121403   0.0043938  -0.0398487  -0.0795810   0.0780950  -0.0051810  -0.0088170   0.0033386
Order 1, Length 27
  -0.1323134   0.1191241   0.0448709  -0.0027374  -0.0005059   0.0023129   0.0001350  -0.0001161  -0.0015571   0.0005346  -0.0000778   0.0011614  -0.0000301  -0.0002417   0.0002945   0.0004638   0.0004280  -0.0003784  -0.0149327   0.0219238   0.0097058   0.0085782  -0.0111300  -0.0051810   0.1403017  -0.1294058  -0.0512325
Order 1, Length 27
   0.1181903  -0.2018832  -0.0659162  -0.0002172   0.0007134   0.0019769  -0.0011194   0.0009490  -0.0003326  -0.0006301  -0.0002527   0.0003109  -0.0000683  -0.0002706   0.0002742   0.0000128   0.0001270   0.0000341  -0.0028608   0.0036521   0.0025352   0.0160987  -0.0210360  -0.0088170  -0.1294058   0.2180028   0.0699394
Order 1, Length 27
   0.0443102  -0.0662664  -0.0703006   0.0213310  -0.0288934  -0.0112681  -0.0007190   0.0036624   0.0024395  -0.0009870   0.0013276  -0.0047721   0.0010457   0.0011735  -0.0006298  -0.0001942  -0.0003022  -0.0001025  -0.0066645   0.0111868   0.0041312  -0.0068895   0.0081722   0.0033386  -0.0512325   0.0699394   0.0771659


 # Finishing finite difference calculation for IDERIV #
 ######################################################
 ######################################################
 Requested basis set is G3large
 There are 70 shells and 218 basis functions
 **********************************************************************
 **                                                                  **
 **                       VIBRATIONAL ANALYSIS                       **
 **                       --------------------                       **
 **                                                                  **
 **        VIBRATIONAL FREQUENCIES (CM**-1) AND NORMAL MODES         **
 **     FORCE CONSTANTS (mDYN/ANGSTROM) AND REDUCED MASSES (AMU)     **
 **                  INFRARED INTENSITIES (KM/MOL)                   **
 **                                                                  **
 **********************************************************************
 

 Mode:                 1                      2                      3
 Frequency:       -38.55                 186.79                 424.02
 Force Cnst:      0.0009                 0.0254                 0.2485
 Red. Mass:       1.0638                 1.2349                 2.3460
 IR Active:          YES                    YES                    YES
 IR Intens:        2.932                189.656                  4.465
 Raman Active:       YES                    YES                    YES
               X      Y      Z        X      Y      Z        X      Y      Z
 C          0.001  0.001 -0.001   -0.001  0.001  0.000    0.177 -0.003 -0.035
 C         -0.002  0.016  0.000    0.001  0.020  0.000   -0.129  0.001 -0.044
 O          0.000  0.043 -0.002    0.001  0.015  0.000   -0.078 -0.001 -0.132
 N         -0.001 -0.044  0.003   -0.001 -0.130  0.001   -0.030  0.002  0.178
 H          0.001 -0.108  0.004    0.000  0.496 -0.009    0.271 -0.003  0.194
 H         -0.002 -0.075  0.005    0.007  0.857 -0.018   -0.184  0.022  0.423
 H         -0.040  0.538 -0.011   -0.002 -0.004  0.004    0.342 -0.024 -0.408
 H          0.527 -0.270 -0.004    0.017 -0.014 -0.018    0.315 -0.001  0.149
 H         -0.461 -0.353  0.016   -0.016 -0.016  0.014    0.343  0.018  0.213
 TransDip   0.000 -0.055  0.003    0.001  0.441 -0.007    0.029  0.003  0.061

 Mode:                 4                      5                      6
 Frequency:       519.05                 545.18                 665.26
 Force Cnst:      0.2039                 0.5703                 0.4574
 Red. Mass:       1.2847                 3.2567                 1.7543
 IR Active:          YES                    YES                    YES
 IR Intens:        6.567                 12.670                  8.832
 Raman Active:       YES                    YES                    YES
               X      Y      Z        X      Y      Z        X      Y      Z
 C          0.002  0.017  0.012   -0.020  0.002 -0.219    0.004  0.029  0.001
 C         -0.004 -0.150  0.006    0.042 -0.017 -0.121    0.001  0.216  0.000
 O          0.008  0.035 -0.012   -0.170  0.006  0.223    0.002 -0.101 -0.002
 N         -0.007  0.013 -0.003    0.158 -0.002  0.050   -0.005 -0.073  0.003
 H         -0.018  0.772 -0.016    0.620  0.106  0.072   -0.007  0.615 -0.009
 H         -0.002 -0.374 -0.008   -0.065 -0.050  0.413   -0.005 -0.560  0.007
 H          0.002  0.227 -0.027   -0.107  0.029 -0.029    0.002 -0.137  0.036
 H          0.033  0.121  0.315   -0.098  0.016 -0.286    0.004 -0.105 -0.338
 H         -0.014  0.113 -0.244   -0.106 -0.002 -0.368   -0.011 -0.106  0.297
 TransDip  -0.004  0.082  0.007    0.065  0.007 -0.093    0.001  0.095  0.002

 Mode:                 7                      8                      9
 Frequency:       840.76                 982.85                1056.74
 Force Cnst:      1.3076                 0.8542                 1.1442
 Red. Mass:       3.1397                 1.5008                 1.7391
 IR Active:          YES                    YES                    YES
 IR Intens:        2.499                 12.434                  3.581
 Raman Active:       YES                    YES                    YES
               X      Y      Z        X      Y      Z        X      Y      Z
 C         -0.019  0.000  0.305    0.141  0.000  0.027   -0.002 -0.168 -0.002
 C         -0.034  0.007 -0.150    0.035 -0.004 -0.033    0.004  0.190 -0.002
 O         -0.122 -0.001 -0.056    0.026  0.001 -0.024    0.003 -0.034  0.003
 N          0.147 -0.005 -0.149   -0.130  0.002  0.008   -0.005 -0.024  0.000
 H          0.632 -0.012 -0.128    0.133 -0.009  0.024    0.006 -0.077  0.001
 H         -0.063  0.004  0.201   -0.314  0.015  0.294   -0.013 -0.010  0.012
 H         -0.037  0.004  0.368   -0.148  0.021  0.671   -0.017  0.361 -0.069
 H         -0.007  0.002  0.333   -0.192  0.050 -0.272   -0.109  0.149  0.629
 H         -0.005  0.003  0.335   -0.174 -0.068 -0.366    0.128  0.178 -0.561
 TransDip  -0.023  0.002 -0.045    0.112  0.000 -0.015    0.001  0.060 -0.008

 Mode:                10                     11                     12
 Frequency:      1117.01                1340.14                1399.81
 Force Cnst:      1.2814                 2.9381                 1.5161
 Red. Mass:       1.7431                 2.7766                 1.3132
 IR Active:          YES                    YES                    YES
 IR Intens:        0.259                146.005                 48.960
 Raman Active:       YES                    YES                    YES
               X      Y      Z        X      Y      Z        X      Y      Z
 C         -0.100  0.004 -0.015    0.065 -0.001 -0.006    0.032  0.002 -0.146
 C          0.041 -0.004  0.007   -0.212  0.006  0.291   -0.041  0.003  0.053
 O          0.128  0.000  0.062    0.020 -0.001 -0.043    0.012  0.000 -0.001
 N         -0.120  0.000 -0.093    0.079 -0.003 -0.118    0.014 -0.001 -0.022
 H          0.485 -0.001 -0.054    0.619 -0.007 -0.092    0.084 -0.002 -0.017
 H         -0.478  0.012  0.475    0.054  0.000 -0.047    0.002  0.000  0.004
 H          0.065 -0.024 -0.370    0.112  0.033 -0.201   -0.204 -0.030  0.411
 H          0.144 -0.057  0.133   -0.246  0.021 -0.360   -0.105  0.310  0.525
 H          0.122  0.064  0.222   -0.220 -0.055 -0.388   -0.065 -0.321  0.514
 TransDip  -0.016  0.000 -0.002   -0.299  0.005  0.246   -0.128 -0.003  0.184

 Mode:                13                     14                     15
 Frequency:      1475.87                1490.50                1619.80
 Force Cnst:      1.3412                 1.4514                 1.9155
 Red. Mass:       1.0451                 1.1088                 1.2391
 IR Active:          YES                    YES                    YES
 IR Intens:        7.081                  7.376                 94.453
 Raman Active:       YES                    YES                    YES
               X      Y      Z        X      Y      Z        X      Y      Z
 C          0.006 -0.051  0.000   -0.044 -0.007 -0.047   -0.002  0.000  0.005
 C          0.000 -0.026 -0.004   -0.030 -0.002  0.057    0.000 -0.001 -0.059
 O          0.002  0.005  0.002   -0.009  0.000 -0.015    0.026  0.000  0.020
 N          0.001  0.001  0.000    0.013  0.000 -0.013   -0.100  0.002  0.059
 H         -0.013  0.000  0.000    0.066  0.001 -0.012    0.655 -0.002  0.097
 H         -0.003  0.015  0.006    0.020 -0.002 -0.019    0.345 -0.013 -0.650
 H         -0.054  0.709 -0.015   -0.239  0.015  0.447   -0.010  0.006  0.020
 H         -0.383  0.037 -0.325    0.509 -0.286 -0.071    0.006  0.000  0.018
 H          0.331  0.064  0.350    0.487  0.378 -0.049    0.011  0.003  0.025
 TransDip  -0.016  0.083 -0.007    0.038  0.012  0.077    0.232 -0.003 -0.208

 Mode:                16                     17                     18
 Frequency:      1759.49                3051.26                3118.72
 Force Cnst:     16.2218                 5.6768                 6.3144
 Red. Mass:       8.8935                 1.0349                 1.1019
 IR Active:          YES                    YES                    YES
 IR Intens:      393.519                  7.961                 11.173
 Raman Active:       YES                    YES                    YES
               X      Y      Z        X      Y      Z        X      Y      Z
 C         -0.041  0.000 -0.034   -0.005  0.004 -0.049   -0.059 -0.071 -0.003
 C          0.584 -0.001  0.360   -0.001  0.000  0.002   -0.002 -0.001  0.001
 O         -0.346  0.000 -0.224    0.000  0.000  0.000    0.000  0.000  0.000
 N         -0.102  0.001 -0.019    0.000  0.000  0.000    0.001  0.000  0.000
 H          0.496 -0.003  0.022    0.002  0.000  0.002    0.001  0.000  0.000
 H         -0.064  0.001 -0.059   -0.004  0.000 -0.003   -0.003 -0.001 -0.004
 H          0.059  0.019 -0.234    0.591  0.052  0.245    0.508  0.031  0.219
 H         -0.042  0.053  0.083   -0.250 -0.490  0.176    0.337  0.677 -0.262
 H         -0.011 -0.062  0.136   -0.286  0.386  0.146   -0.136  0.147  0.067
 TransDip   0.596 -0.004  0.219   -0.052  0.001 -0.074   -0.085 -0.053 -0.038

 Mode:                19                     20                     21
 Frequency:      3127.84                3591.47                3724.76
 Force Cnst:      6.3528                 7.9450                 9.0305
 Red. Mass:       1.1021                 1.0454                 1.1048
 IR Active:          YES                    YES                    YES
 IR Intens:       10.285                 33.869                 39.188
 Raman Active:       YES                    YES                    YES
               X      Y      Z        X      Y      Z        X      Y      Z
 C          0.072 -0.058 -0.001    0.000  0.000  0.001    0.000  0.000  0.000
 C          0.002 -0.001 -0.001   -0.001  0.000  0.001    0.000  0.000 -0.002
 O         -0.001  0.000  0.000   -0.001  0.000  0.000    0.001  0.000  0.000
 N         -0.001  0.000  0.000    0.042 -0.001 -0.033   -0.046 -0.001 -0.073
 H         -0.001 -0.001 -0.001   -0.037  0.013  0.785   -0.037  0.010  0.608
 H          0.002  0.000  0.004   -0.519 -0.003 -0.330    0.669  0.004  0.417
 H         -0.473 -0.052 -0.205   -0.006  0.000 -0.001    0.004  0.000  0.002
 H          0.079  0.109 -0.047    0.001  0.000 -0.001    0.001  0.000 -0.001
 H         -0.470  0.642  0.264    0.000  0.000 -0.001    0.001  0.000 -0.001
 TransDip   0.091 -0.037  0.030   -0.150  0.003  0.111    0.101  0.002  0.173

 STANDARD THERMODYNAMIC QUANTITIES AT   298.18 K  AND     1.00 ATM

   This Molecule has  1 Imaginary Frequencies
   Zero point vibrational energy:       45.800 kcal/mol

   Atom    1 Element C  Has Mass   12.00000
   Atom    2 Element C  Has Mass   12.00000
   Atom    3 Element O  Has Mass   15.99491
   Atom    4 Element N  Has Mass   14.00307
   Atom    5 Element H  Has Mass    1.00783
   Atom    6 Element H  Has Mass    1.00783
   Atom    7 Element H  Has Mass    1.00783
   Atom    8 Element H  Has Mass    1.00783
   Atom    9 Element H  Has Mass    1.00783
   Molecular Mass:    59.037130 amu
   Principal axes and moments of inertia in atomic units:
                             1           2           3
    Eigenvalues --      165.63772   194.78179   349.31766
          X              -0.26579     0.96399     0.00947
          Y               0.01138    -0.00669     0.99991
          Z               0.96396     0.26587    -0.00919
   Rotational Symmetry Number is   1
   The Molecule is an Asymmetric Top
   Translational Enthalpy:        0.889 kcal/mol
   Rotational Enthalpy:           0.889 kcal/mol
   Vibrational Enthalpy:         46.798 kcal/mol
   gas constant (RT):             0.593 kcal/mol
   Translational Entropy:        38.147  cal/mol.K
   Rotational Entropy:           23.937  cal/mol.K
   Vibrational Entropy:           5.142  cal/mol.K

   Total Enthalpy:               49.168 kcal/mol
   Total Entropy:                67.226  cal/mol.K
 Total job time:  10421.01s(wall), 10383.91s(cpu) 
 Wed Jul 24 19:26:22 2013

        *************************************************************
        *                                                           *
        *  Thank you very much for using Q-Chem.  Have a nice day.  *
        *                                                           *
        *************************************************************


0 sent ACK to 0 
now end server 0 ... 
