Process 0 of 1 is on cl038.stfx.acenet.ca - thread support 1
initial socket setup ...start
initial socket setup ...done 
now start server 0 ... 

cmd = /usr/bin/ssh clhead /usr/local/qchem/bin/get_hostid 393392548 > /scratch/tmp/6067051.1.short.q/qchem28397/lic.dat
                  Welcome to Q-Chem
     A Quantum Leap Into The Future Of Chemistry

 Y. Shao, L. Fusti-Molnar, Y. Jung, J. Kussmann, C. Ochsenfeld,
 S. T. Brown, A. T. B. Gilbert, L. V. Slipchenko,S. V. Levchenko,
 D. P. O'Neill, R. A. DiStasio Jr., R. C. Lochan, T. Wang,
 G. J. O. Beran, N. A. Besley, J. M. Herbert, C. Y. Lin,
 T. Van Voorhis, S. H. Chien, A. Sodt, R. P. Steele, 
 V. A. Rassolov, P. E. Maslen, P. P. Korambath, R. D. Adamson,
 B. Austin, J. Baker, E. F. C. Byrd, H. Dachsel, R. J. Doerksen,
 A. Dreuw, B. D. Dunietz, A. D. Dutoi, T. R. Furlani,
 S. R. Gwaltney, A. Heyden, S. Hirata, C.-P. Hsu, G. Kedziora,
 R. Z. Khaliullin, P. Klunzinger, A. M. Lee, M. S. Lee, W. Liang,
 I. Lotan, N. Nair, B. Peters, E. I. Proynov, P. A. Pieniazek, 
 Y. M. Rhee, J. Ritchie, E. Rosta, C. D. Sherrill, 
 A. C. Simmonett, J. E. Subotnik, H. L. Woodcock III,
 W. Zhang, A. T. Bell, A. K. Chakraborty, D. M. Chipman,
 F. J. Keil, A. Warshel, W. J. Hehre, H. F. Schaefer III,
 J. Kong, A. I. Krylov, P. M. W. Gill, M. Head-Gordon,
 Q-Chem, Version 3.1, Q-Chem, Inc., Pittsburgh, PA (2007).

 Additional authors for Version 3.1: 
 Z. Gan, Y. Zhao, N. E. Schultz, D. Truhlar, E. Epifanovsky and M. Oana.

 Additional authors for Version 3.2: 
 R. Baer, B. R. Brooks, D. Casanova, J.-D. Chai, C.-L. Cheng, 
 C. Cramer, D. Crittenden, A. Ghysels, G. Hawkins, E. G. Hohenstein, 
 C. Kelley, W. Kurlancheek, D. Liotard, E. Livshits, P. Manohar, 
 A. Marenich, D. Neuhauser, R. Olson, M. A. Rohrdanz, K. S. Thanthiriwatte, 
 A. J. W. Thom, V. Vanovschi, C. F. Williams, Q. Wu and Z.-Q. You. 


 Intel X86 Linux Version

 Q-chem begins on Wed Jul 24 15:58:43 2013  

 Parallel job on  1  processors
Processing $rem in /usr/local/qchem/config/preferences.

theFileMan(): MAXOPENFILES=974 MAX_SUB_FILE_NUM=16
Maximum size of a physical file is 2.0 GB, maximum size of a tmp-file is 32.0 GB


--------------------------------------------------------------
User input:
--------------------------------------------------------------

$molecule
0,1
LI
F,1,LiF

LiF=1.55170308

$end


$comment
b3lyp opt
$end

$rem
   EXCHANGE B3LYP
   UNRESTRICTED TRUE
   SYMMETRY_DECOMPOSITION	0
   BASIS                   g3large
   JOBTYPE                 opt
   mem_static              760
   max_scf_cycles          200
   scf_final_print         1
   sym_ignore              true
$end


--------------------------------------------------------------
 Writing REM_CC_EA            2
 ----------------------------------------------------
       Standard Nuclear Orientation (Angstroms)
    I     Atom         X            Y            Z
 ----------------------------------------------------
    1      Li      0.000000     0.000000     0.000000
    2      F       0.000000     0.000000     1.551703
 ----------------------------------------------------
 Nuclear Repulsion Energy =     9.2078084240 hartrees
 There are        6 alpha and        6 beta electrons
 Requested basis set is G3large
 There are 20 shells and 84 basis functions

Total QAlloc Memory Limit   2000 MB
Mega-Array Size       743 MB
MEM_STATIC part       760 MB
 A cutoff of  1.0D-11 yielded    208 shell pairs
 There are   3686 function pairs (  4836 Cartesian)
Evaluating contribution to one-electron hamiltonian from nuclear
 Smallest overlap matrix eigenvalue = 2.12E-03
 Multipole matrices computed through 2nd order

  Scale SEOQF with 1.000000e-02/1.000000e-02/1.000000e-02

 Standard Electronic Orientation quadrupole field applied
 Nucleus-field energy     =    -0.0000000002 hartrees
 Guess from superposition of atomic densities
 Warning:  Energy on first SCF cycle will be non-variational
 An unrestricted hybrid HF-DFT SCF calculation will be
 performed using Pulay DIIS extrapolation
 Exchange:     0.2000 Hartree-Fock + 0.0800 Slater + 0.7200 Becke88
 Correlation:  0.8100 LYP + 0.1900 VWN1RPA
 Using SG-1 standard quadrature grid
 SCF converges when DIIS error is below 1.0E-08
 Warning!  Inaccurate integrated density:
   Number of electrons =    12
   Numerical integral  =    12.013127985291
   Relative error      =     0.1093998774 %
 ---------------------------------------
  Cycle       Energy         DIIS Error
 ---------------------------------------
    1    -107.1644842215      1.04E-02
    2    -107.3582777064      1.35E-02
    3    -107.4677762575      1.98E-03
    4    -107.4692089893      1.82E-03
    5    -107.4710641827      5.08E-05
    6    -107.4710673480      1.09E-05
    7    -107.4710674296      2.96E-06
    8    -107.4710674349      2.67E-07
    9    -107.4710674349      1.37E-08
   10    -107.4710674354      1.01E-09 Convergence criterion met
 ---------------------------------------
 One-Electron    Energy =  -169.3773208955
 Total Coulomb   Energy =    65.1437441101
 Alpha Exchange  Energy =    -1.1941920449
 Beta  Exchange  Energy =    -1.1941920449
 DFT   Exchange  Energy =    -9.5152955144
 DFT Correlation Energy =    -0.5416194696
 Nuclear Repu.   Energy =     9.2078084238
 Nuclear Attr.   Energy =  -276.5319190629
 Kinetic         Energy =   107.1545981674
 <S^2> = 0.0000
 SCF time:  CPU 7.84 s  wall 8.99 s
 Final Alpha MO Eigenvalues
            1           2           3           4           5           6
    1 -24.5162435  -1.9886175  -1.0031779  -0.2994235  -0.2858068  -0.2858068
            7           8           9          10          11
    1  -0.0506621   0.0048109   0.0048109   0.0055523   0.0181693
 Final Beta MO Eigenvalues
            1           2           3           4           5           6
    1 -24.5162435  -1.9886175  -1.0031779  -0.2994235  -0.2858068  -0.2858068
            7           8           9          10          11
    1  -0.0506621   0.0048109   0.0048109   0.0055523   0.0181693
 Analysis of SCF Wavefunction
 
 --------------------------------------------------------------
                    Orbital Energies (a.u.)
 --------------------------------------------------------------
 
 Alpha MOs
 -- Occupied --
-24.516  -1.989  -1.003  -0.299  -0.286  -0.286
 -- Virtual --
 -0.051   0.005   0.005   0.006   0.018   0.031   0.031   0.053
  0.092   0.115   0.115   0.160   0.226   0.226   0.267   0.267
  0.277   0.333   0.359   0.359   0.443   0.443   0.466   0.534
  0.534   0.544   0.544   0.610   0.695   0.695   0.755   1.156
  1.156   1.162   1.163   1.301   1.490   1.490   1.526   2.105
  2.207   2.207   2.279   2.451   2.451   4.034   6.316   6.316
  6.342   6.762   6.762   6.764   6.772   6.772   6.775   6.816
  6.908   6.908   7.251   9.224   9.224   9.362   9.362   9.436
 19.994  20.036  21.225  21.243  21.243  50.268  50.309  50.349
 50.365  50.365  55.908  55.908  55.957  66.976
 
 Beta MOs
 -- Occupied --
-24.516  -1.989  -1.003  -0.299  -0.286  -0.286
 -- Virtual --
 -0.051   0.005   0.005   0.006   0.018   0.031   0.031   0.053
  0.092   0.115   0.115   0.160   0.226   0.226   0.267   0.267
  0.277   0.333   0.359   0.359   0.443   0.443   0.466   0.534
  0.534   0.544   0.544   0.610   0.695   0.695   0.755   1.156
  1.156   1.162   1.163   1.301   1.490   1.490   1.526   2.105
  2.207   2.207   2.279   2.451   2.451   4.034   6.316   6.316
  6.342   6.762   6.762   6.764   6.772   6.772   6.775   6.816
  6.908   6.908   7.251   9.224   9.224   9.362   9.362   9.436
 19.994  20.036  21.225  21.243  21.243  50.268  50.309  50.349
 50.365  50.365  55.908  55.908  55.957  66.976
 --------------------------------------------------------------
 
          Ground-State Mulliken Net Atomic Charges

     Atom                 Charge (a.u.)    Spin (a.u.)
  --------------------------------------------------------
      1 Li                    0.581881       0.000000
      2 F                    -0.581881       0.000000
  --------------------------------------------------------
  Sum of atomic charges =     0.000000
  Sum of spin   charges =     0.000000

 -----------------------------------------------------------------
                    Cartesian Multipole Moments
 -----------------------------------------------------------------
    Charge (ESU x 10^10)
                 0.0000
    Dipole Moment (Debye)
         X       0.0000      Y       0.0000      Z      -6.1710
       Tot       6.1710
    Quadrupole Moments (Debye-Ang)
        XX      -7.4603     XY       0.0000     YY      -7.4603
        XZ       0.0000     YZ       0.0000     ZZ     -15.5723
    Octapole Moments (Debye-Ang^2)
       XXX       0.0000    XXY       0.0000    XYY       0.0000
       YYY       0.0000    XXZ     -10.1878    XYZ       0.0000
       YYZ     -10.1878    XZZ       0.0000    YZZ       0.0000
       ZZZ     -41.6725
    Hexadecapole Moments (Debye-Ang^3)
      XXXX      -7.7419   XXXY       0.0000   XXYY      -2.5806
      XYYY       0.0000   YYYY      -7.7419   XXXZ       0.0000
      XXYZ       0.0000   XYYZ       0.0000   YYYZ       0.0000
      XXZZ     -17.4837   XYZZ       0.0000   YYZZ     -17.4837
      XZZZ       0.0000   YZZZ       0.0000   ZZZZ    -113.5032
 -----------------------------------------------------------------
 Calculating analytic gradient of the SCF energy
 Gradient of XC Energy
            1           2
    1   0.0000000  -0.0000000
    2   0.0000000  -0.0000000
    3  -0.0789378   0.0789378
 Gradient of SCF Energy
            1           2
    1  -0.0000000   0.0000000
    2  -0.0000000   0.0000000
    3   0.0051569  -0.0051569
 Max gradient component =       5.157E-03
 RMS gradient           =       2.977E-03
 Gradient time:  CPU 3.09 s  wall 3.72 s
 Geometry Optimization Parameters
   NAtoms,    NIC,     NZ,  NCons,   NDum,   NFix, NCnnct, MaxDiis
        2       5       2       0       0       0       0       0


** GEOMETRY OPTIMIZATION IN DELOCALIZED INTERNAL COORDINATES **
   Searching for a Minimum

   Optimization Cycle:   1

                       Coordinates (Angstroms)
     ATOM              X           Y           Z
    1  Li          0.000000    0.000000    0.000000
    2  F           0.000000    0.000000    1.551703
   Point Group: c1    Number of degrees of freedom:   0


   Energy is   -107.471067435


 Attempting to Generate Delocalized Internal Coordinates

  ***ERROR*** Wrong Number of Internal Coordinates
              Should be:   0  Found:   1
**WARNING** Problems with Internal Coordinates
  Switching to Cartesian Coordinates

 Translations and Rotations Projected Out of Hessian

  1 Hessian modes will be used to form the next step
  Hessian Eigenvalues:
     1.000000

 Minimum Search - Taking Simple RFO Step
 Searching for Lamda that Minimizes Along All modes
 Value Taken    Lamda =  -0.00005319
 Step Taken.  Stepsize is  0.007293

                             Maximum     Tolerance    Cnvgd?
         Gradient           0.005157      0.000300      NO
         Displacement       0.005157      0.001200      NO
         Energy change     *********      0.000001      NO

 Writing REM_CC_EA            2
 ----------------------------------------------------
       Standard Nuclear Orientation (Angstroms)
    I     Atom         X            Y            Z
 ----------------------------------------------------
    1      Li      0.000000     0.000000    -0.002729
    2      F       0.000000     0.000000     1.554432
 ----------------------------------------------------
 Nuclear Repulsion Energy =     9.1755371060 hartrees
 There are        6 alpha and        6 beta electrons
 Nucleus-field energy     =    -0.0000000002 hartrees
 Requested basis set is G3large
 There are 20 shells and 84 basis functions
 A cutoff of  1.0D-11 yielded    208 shell pairs
 There are   3686 function pairs (  4836 Cartesian)
Evaluating contribution to one-electron hamiltonian from nuclear
 Smallest overlap matrix eigenvalue = 2.11E-03
 Multipole matrices computed through 2nd order
 Guess MOs from SCF MO coefficient file
Reading MOs from coefficient file
Reading MOs from coefficient file
 An unrestricted hybrid HF-DFT SCF calculation will be
 performed using Pulay DIIS extrapolation
 Exchange:     0.2000 Hartree-Fock + 0.0800 Slater + 0.7200 Becke88
 Correlation:  0.8100 LYP + 0.1900 VWN1RPA
 Using SG-1 standard quadrature grid
 SCF converges when DIIS error is below 1.0E-08
 ---------------------------------------
  Cycle       Energy         DIIS Error
 ---------------------------------------
    1    -107.4698106228      1.11E-04
    2    -107.4711115798      6.99E-06
    3    -107.4711116128      2.26E-06
    4    -107.4711116126      2.35E-06
    5    -107.4711116152      5.63E-07
    6    -107.4711116154      5.31E-08
    7    -107.4711116154      2.83E-09 Convergence criterion met
 ---------------------------------------
 One-Electron    Energy =  -169.3165738189
 Total Coulomb   Energy =    65.1141405773
 Alpha Exchange  Energy =    -1.1940810644
 Beta  Exchange  Energy =    -1.1940810644
 DFT   Exchange  Energy =    -9.5145241373
 DFT Correlation Energy =    -0.5415292134
 Nuclear Repu.   Energy =     9.1755371058
 Nuclear Attr.   Energy =  -276.4662917289
 Kinetic         Energy =   107.1497179100
 <S^2> = 0.0000
 SCF time:  CPU 5.26 s  wall 6.02 s
 Final Alpha MO Eigenvalues
            1           2           3           4           5           6
    1 -24.5160048  -1.9893715  -1.0026407  -0.2990210  -0.2852408  -0.2852408
            7           8           9          10          11
    1  -0.0508314   0.0047418   0.0047418   0.0055074   0.0181933
 Final Beta MO Eigenvalues
            1           2           3           4           5           6
    1 -24.5160048  -1.9893715  -1.0026407  -0.2990210  -0.2852408  -0.2852408
            7           8           9          10          11
    1  -0.0508314   0.0047418   0.0047418   0.0055074   0.0181933
 Analysis of SCF Wavefunction
 
 --------------------------------------------------------------
                    Orbital Energies (a.u.)
 --------------------------------------------------------------
 
 Alpha MOs
 -- Occupied --
-24.516  -1.989  -1.003  -0.299  -0.285  -0.285
 -- Virtual --
 -0.051   0.005   0.005   0.006   0.018   0.031   0.031   0.053
  0.092   0.115   0.115   0.160   0.226   0.226   0.267   0.267
  0.277   0.333   0.359   0.359   0.442   0.442   0.465   0.534
  0.534   0.544   0.544   0.611   0.695   0.695   0.755   1.155
  1.155   1.162   1.163   1.303   1.490   1.490   1.522   2.105
  2.206   2.206   2.286   2.448   2.448   4.021   6.316   6.316
  6.343   6.762   6.762   6.765   6.772   6.772   6.776   6.814
  6.906   6.906   7.250   9.224   9.224   9.361   9.361   9.437
 19.993  20.036  21.224  21.242  21.242  50.268  50.309  50.349
 50.364  50.364  55.908  55.908  55.957  66.976
 
 Beta MOs
 -- Occupied --
-24.516  -1.989  -1.003  -0.299  -0.285  -0.285
 -- Virtual --
 -0.051   0.005   0.005   0.006   0.018   0.031   0.031   0.053
  0.092   0.115   0.115   0.160   0.226   0.226   0.267   0.267
  0.277   0.333   0.359   0.359   0.442   0.442   0.465   0.534
  0.534   0.544   0.544   0.611   0.695   0.695   0.755   1.155
  1.155   1.162   1.163   1.303   1.490   1.490   1.522   2.105
  2.206   2.206   2.286   2.448   2.448   4.021   6.316   6.316
  6.343   6.762   6.762   6.765   6.772   6.772   6.776   6.814
  6.906   6.906   7.250   9.224   9.224   9.361   9.361   9.437
 19.993  20.036  21.224  21.242  21.242  50.268  50.309  50.349
 50.364  50.364  55.908  55.908  55.957  66.976
 --------------------------------------------------------------
 
          Ground-State Mulliken Net Atomic Charges

     Atom                 Charge (a.u.)    Spin (a.u.)
  --------------------------------------------------------
      1 Li                    0.583086       0.000000
      2 F                    -0.583086       0.000000
  --------------------------------------------------------
  Sum of atomic charges =     0.000000
  Sum of spin   charges =     0.000000

 -----------------------------------------------------------------
                    Cartesian Multipole Moments
 -----------------------------------------------------------------
    Charge (ESU x 10^10)
                 0.0000
    Dipole Moment (Debye)
         X       0.0000      Y       0.0000      Z      -6.1944
       Tot       6.1944
    Quadrupole Moments (Debye-Ang)
        XX      -7.4646     XY       0.0000     YY      -7.4646
        XZ       0.0000     YZ       0.0000     ZZ     -15.6039
    Octapole Moments (Debye-Ang^2)
       XXX       0.0000    XXY       0.0000    XYY       0.0000
       YYY       0.0000    XXZ     -10.2087    XYZ       0.0000
       YYZ     -10.2087    XZZ       0.0000    YZZ       0.0000
       ZZZ     -41.7921
    Hexadecapole Moments (Debye-Ang^3)
      XXXX      -7.7561   XXXY       0.0000   XXYY      -2.5853
      XYYY       0.0000   YYYY      -7.7561   XXXZ       0.0000
      XXYZ       0.0000   XYYZ       0.0000   YYYZ       0.0000
      XXZZ     -17.5458   XYZZ       0.0000   YYZZ     -17.5458
      XZZZ       0.0000   YZZZ       0.0000   ZZZZ    -113.9641
 -----------------------------------------------------------------
 Calculating analytic gradient of the SCF energy
 Gradient of XC Energy
            1           2
    1   0.0000000  -0.0000000
    2   0.0000000  -0.0000000
    3  -0.0791977   0.0791977
 Gradient of SCF Energy
            1           2
    1   0.0000000  -0.0000000
    2   0.0000000  -0.0000000
    3   0.0034195  -0.0034195
 Max gradient component =       3.420E-03
 RMS gradient           =       1.974E-03
 Gradient time:  CPU 3.13 s  wall 3.18 s
 Geometry Optimization Parameters
   NAtoms,    NIC,     NZ,  NCons,   NDum,   NFix, NCnnct, MaxDiis
        2       5       2       0       0       0       0       0

 Cartesian Hessian Update
 Hessian Updated using BFGS Update


** GEOMETRY OPTIMIZATION IN CARTESIAN COORDINATES **
   Searching for a Minimum

   Optimization Cycle:   2

                       Coordinates (Angstroms)
     ATOM              X           Y           Z
    1  Li          0.000000    0.000000   -0.002729
    2  F           0.000000    0.000000    1.554432
   Point Group: c1    Number of degrees of freedom:   0


   Energy is   -107.471111615


 Translations and Rotations Projected Out of Hessian

  1 Hessian modes will be used to form the next step
  Hessian Eigenvalues:
     0.336916

 Minimum Search - Taking Simple RFO Step
 Searching for Lamda that Minimizes Along All modes
 Value Taken    Lamda =  -0.00006941
 Step Taken.  Stepsize is  0.014351

                             Maximum     Tolerance    Cnvgd?
         Gradient           0.003420      0.000300      NO
         Displacement       0.010147      0.001200      NO
         Energy change     -0.000044      0.000001      NO

 Writing REM_CC_EA            2
 ----------------------------------------------------
       Standard Nuclear Orientation (Angstroms)
    I     Atom         X            Y            Z
 ----------------------------------------------------
    1      Li      0.000000     0.000000    -0.008099
    2      F       0.000000     0.000000     1.559802
 ----------------------------------------------------
 Nuclear Repulsion Energy =     9.1126879275 hartrees
 There are        6 alpha and        6 beta electrons
 Nucleus-field energy     =    -0.0000000002 hartrees
 Requested basis set is G3large
 There are 20 shells and 84 basis functions
 A cutoff of  1.0D-11 yielded    208 shell pairs
 There are   3686 function pairs (  4836 Cartesian)
Evaluating contribution to one-electron hamiltonian from nuclear
 Smallest overlap matrix eigenvalue = 2.11E-03
 Multipole matrices computed through 2nd order
 Guess MOs from SCF MO coefficient file
Reading MOs from coefficient file
Reading MOs from coefficient file
 An unrestricted hybrid HF-DFT SCF calculation will be
 performed using Pulay DIIS extrapolation
 Exchange:     0.2000 Hartree-Fock + 0.0800 Slater + 0.7200 Becke88
 Correlation:  0.8100 LYP + 0.1900 VWN1RPA
 Using SG-1 standard quadrature grid
 SCF converges when DIIS error is below 1.0E-08
 ---------------------------------------
  Cycle       Energy         DIIS Error
 ---------------------------------------
    1    -107.4686108313      2.17E-04
    2    -107.4711474013      1.37E-05
    3    -107.4711475145      8.04E-06
    4    -107.4711475180      7.85E-06
    5    -107.4711475490      7.52E-07
    6    -107.4711475494      1.05E-07
    7    -107.4711475496      5.38E-09 Convergence criterion met
 ---------------------------------------
 One-Electron    Energy =  -169.1982023526
 Total Coulomb   Energy =    65.0564884211
 Alpha Exchange  Energy =    -1.1938662146
 Beta  Exchange  Energy =    -1.1938662146
 DFT   Exchange  Energy =    -9.5130353685
 DFT Correlation Energy =    -0.5413537478
 Nuclear Repu.   Energy =     9.1126879273
 Nuclear Attr.   Energy =  -276.3385865552
 Kinetic         Energy =   107.1403842027
 <S^2> = 0.0000
 SCF time:  CPU 5.34 s  wall 5.45 s
 Final Alpha MO Eigenvalues
            1           2           3           4           5           6
    1 -24.5155286  -1.9908616  -1.0015839  -0.2982214  -0.2841353  -0.2841353
            7           8           9          10          11
    1  -0.0511650   0.0046040   0.0046040   0.0054172   0.0182462
 Final Beta MO Eigenvalues
            1           2           3           4           5           6
    1 -24.5155286  -1.9908616  -1.0015839  -0.2982214  -0.2841353  -0.2841353
            7           8           9          10          11
    1  -0.0511650   0.0046040   0.0046040   0.0054172   0.0182462
 Analysis of SCF Wavefunction
 
 --------------------------------------------------------------
                    Orbital Energies (a.u.)
 --------------------------------------------------------------
 
 Alpha MOs
 -- Occupied --
-24.516  -1.991  -1.002  -0.298  -0.284  -0.284
 -- Virtual --
 -0.051   0.005   0.005   0.005   0.018   0.030   0.030   0.052
  0.092   0.115   0.115   0.160   0.225   0.225   0.266   0.266
  0.277   0.333   0.359   0.359   0.442   0.442   0.463   0.534
  0.534   0.544   0.544   0.613   0.694   0.694   0.754   1.154
  1.154   1.162   1.162   1.308   1.490   1.490   1.515   2.106
  2.205   2.205   2.299   2.442   2.442   3.995   6.316   6.316
  6.346   6.762   6.762   6.766   6.773   6.773   6.777   6.810
  6.904   6.904   7.249   9.224   9.224   9.357   9.357   9.438
 19.991  20.034  21.222  21.240  21.240  50.268  50.309  50.350
 50.363  50.363  55.909  55.909  55.956  66.976
 
 Beta MOs
 -- Occupied --
-24.516  -1.991  -1.002  -0.298  -0.284  -0.284
 -- Virtual --
 -0.051   0.005   0.005   0.005   0.018   0.030   0.030   0.052
  0.092   0.115   0.115   0.160   0.225   0.225   0.266   0.266
  0.277   0.333   0.359   0.359   0.442   0.442   0.463   0.534
  0.534   0.544   0.544   0.613   0.694   0.694   0.754   1.154
  1.154   1.162   1.162   1.308   1.490   1.490   1.515   2.106
  2.205   2.205   2.299   2.442   2.442   3.995   6.316   6.316
  6.346   6.762   6.762   6.766   6.773   6.773   6.777   6.810
  6.904   6.904   7.249   9.224   9.224   9.357   9.357   9.438
 19.991  20.034  21.222  21.240  21.240  50.268  50.309  50.350
 50.363  50.363  55.909  55.909  55.956  66.976
 --------------------------------------------------------------
 
          Ground-State Mulliken Net Atomic Charges

     Atom                 Charge (a.u.)    Spin (a.u.)
  --------------------------------------------------------
      1 Li                    0.585375       0.000000
      2 F                    -0.585375       0.000000
  --------------------------------------------------------
  Sum of atomic charges =     0.000000
  Sum of spin   charges =     0.000000

 -----------------------------------------------------------------
                    Cartesian Multipole Moments
 -----------------------------------------------------------------
    Charge (ESU x 10^10)
                 0.0000
    Dipole Moment (Debye)
         X       0.0000      Y       0.0000      Z      -6.2406
       Tot       6.2406
    Quadrupole Moments (Debye-Ang)
        XX      -7.4730     XY       0.0000     YY      -7.4730
        XZ       0.0000     YZ       0.0000     ZZ     -15.6659
    Octapole Moments (Debye-Ang^2)
       XXX       0.0000    XXY       0.0000    XYY       0.0000
       YYY       0.0000    XXZ     -10.2499    XYZ       0.0000
       YYZ     -10.2499    XZZ       0.0000    YZZ       0.0000
       ZZZ     -42.0284
    Hexadecapole Moments (Debye-Ang^3)
      XXXX      -7.7839   XXXY       0.0000   XXYY      -2.5946
      XYYY       0.0000   YYYY      -7.7839   XXXZ       0.0000
      XXYZ       0.0000   XYYZ       0.0000   YYYZ       0.0000
      XXZZ     -17.6683   XYZZ       0.0000   YYZZ     -17.6683
      XZZZ       0.0000   YZZZ       0.0000   ZZZZ    -114.8759
 -----------------------------------------------------------------
 Calculating analytic gradient of the SCF energy
 Gradient of XC Energy
            1           2
    1  -0.0000000   0.0000000
    2  -0.0000000   0.0000000
    3  -0.0796226   0.0796226
 Gradient of SCF Energy
            1           2
    1   0.0000000  -0.0000000
    2   0.0000000  -0.0000000
    3   0.0001548  -0.0001548
 Max gradient component =       1.548E-04
 RMS gradient           =       8.939E-05
 Gradient time:  CPU 3.08 s  wall 3.10 s
 Geometry Optimization Parameters
   NAtoms,    NIC,     NZ,  NCons,   NDum,   NFix, NCnnct, MaxDiis
        2       5       2       0       0       0       0       0

 Cartesian Hessian Update
 Hessian Updated using BFGS Update


** GEOMETRY OPTIMIZATION IN CARTESIAN COORDINATES **
   Searching for a Minimum

   Optimization Cycle:   3

                       Coordinates (Angstroms)
     ATOM              X           Y           Z
    1  Li          0.000000    0.000000   -0.008099
    2  F           0.000000    0.000000    1.559802
   Point Group: c1    Number of degrees of freedom:   0


   Energy is   -107.471147550


 Translations and Rotations Projected Out of Hessian

  1 Hessian modes will be used to form the next step
  Hessian Eigenvalues:
     0.321727

 Minimum Search - Taking Simple RFO Step
 Searching for Lamda that Minimizes Along All modes
 Value Taken    Lamda =   0.00000000
 Step Taken.  Stepsize is  0.000681

                             Maximum     Tolerance    Cnvgd?
         Gradient           0.000155      0.000300     YES
         Displacement       0.000481      0.001200     YES
         Energy change     -0.000036      0.000001      NO


                       Distance Matrix (Angstroms)
             Li(  1)
   F (  2)  1.567900
 


 ******************************
 **  OPTIMIZATION CONVERGED  **
 ******************************
 Analysis of SCF Wavefunction
 
 --------------------------------------------------------------
                    Orbital Energies (a.u.)
 --------------------------------------------------------------
 
 Alpha MOs
 -- Occupied --
-24.516  -1.991  -1.002  -0.298  -0.284  -0.284
 -- Virtual --
 -0.051   0.005   0.005   0.005   0.018   0.030   0.030   0.052
  0.092   0.115   0.115   0.160   0.225   0.225   0.266   0.266
  0.277   0.333   0.359   0.359   0.442   0.442   0.463   0.534
  0.534   0.544   0.544   0.613   0.694   0.694   0.754   1.154
  1.154   1.162   1.162   1.308   1.490   1.490   1.515   2.106
  2.205   2.205   2.299   2.442   2.442   3.995   6.316   6.316
  6.346   6.762   6.762   6.766   6.773   6.773   6.777   6.810
  6.904   6.904   7.249   9.224   9.224   9.357   9.357   9.438
 19.991  20.034  21.222  21.240  21.240  50.268  50.309  50.350
 50.363  50.363  55.909  55.909  55.956  66.976
 
 Beta MOs
 -- Occupied --
-24.516  -1.991  -1.002  -0.298  -0.284  -0.284
 -- Virtual --
 -0.051   0.005   0.005   0.005   0.018   0.030   0.030   0.052
  0.092   0.115   0.115   0.160   0.225   0.225   0.266   0.266
  0.277   0.333   0.359   0.359   0.442   0.442   0.463   0.534
  0.534   0.544   0.544   0.613   0.694   0.694   0.754   1.154
  1.154   1.162   1.162   1.308   1.490   1.490   1.515   2.106
  2.205   2.205   2.299   2.442   2.442   3.995   6.316   6.316
  6.346   6.762   6.762   6.766   6.773   6.773   6.777   6.810
  6.904   6.904   7.249   9.224   9.224   9.357   9.357   9.438
 19.991  20.034  21.222  21.240  21.240  50.268  50.309  50.350
 50.363  50.363  55.909  55.909  55.956  66.976
 --------------------------------------------------------------
 
          Ground-State Mulliken Net Atomic Charges

     Atom                 Charge (a.u.)    Spin (a.u.)
  --------------------------------------------------------
      1 Li                    0.585375       0.000000
      2 F                    -0.585375       0.000000
  --------------------------------------------------------
  Sum of atomic charges =     0.000000
  Sum of spin   charges =     0.000000

 -----------------------------------------------------------------
                    Cartesian Multipole Moments
 -----------------------------------------------------------------
    Charge (ESU x 10^10)
                 0.0000
    Dipole Moment (Debye)
         X       0.0000      Y       0.0000      Z      -6.2406
       Tot       6.2406
    Quadrupole Moments (Debye-Ang)
        XX      -7.4730     XY       0.0000     YY      -7.4730
        XZ       0.0000     YZ       0.0000     ZZ     -15.6659
    Octapole Moments (Debye-Ang^2)
       XXX       0.0000    XXY       0.0000    XYY       0.0000
       YYY       0.0000    XXZ     -10.2499    XYZ       0.0000
       YYZ     -10.2499    XZZ       0.0000    YZZ       0.0000
       ZZZ     -42.0284
    Hexadecapole Moments (Debye-Ang^3)
      XXXX      -7.7839   XXXY       0.0000   XXYY      -2.5946
      XYYY       0.0000   YYYY      -7.7839   XXXZ       0.0000
      XXYZ       0.0000   XYYZ       0.0000   YYYZ       0.0000
      XXZZ     -17.6683   XYZZ       0.0000   YYZZ     -17.6683
      XZZZ       0.0000   YZZZ       0.0000   ZZZZ    -114.8759
 -----------------------------------------------------------------
 Total job time:  31.20s(wall), 27.98s(cpu) 
 Wed Jul 24 15:59:14 2013

        *************************************************************
        *                                                           *
        *  Thank you very much for using Q-Chem.  Have a nice day.  *
        *                                                           *
        *************************************************************


0 sent ACK to 0 
now end server 0 ... 
 
**********************************************************************
Job 2 of 2 
**********************************************************************
 
Process 0 of 1 is on cl038.stfx.acenet.ca - thread support 1
initial socket setup ...start
initial socket setup ...done 
now start server 0 ... 

cmd = /usr/bin/ssh clhead /usr/local/qchem/bin/get_hostid 790622891 > /scratch/tmp/6067051.1.short.q/qchem28397/lic.dat
                  Welcome to Q-Chem
     A Quantum Leap Into The Future Of Chemistry

 Y. Shao, L. Fusti-Molnar, Y. Jung, J. Kussmann, C. Ochsenfeld,
 S. T. Brown, A. T. B. Gilbert, L. V. Slipchenko,S. V. Levchenko,
 D. P. O'Neill, R. A. DiStasio Jr., R. C. Lochan, T. Wang,
 G. J. O. Beran, N. A. Besley, J. M. Herbert, C. Y. Lin,
 T. Van Voorhis, S. H. Chien, A. Sodt, R. P. Steele, 
 V. A. Rassolov, P. E. Maslen, P. P. Korambath, R. D. Adamson,
 B. Austin, J. Baker, E. F. C. Byrd, H. Dachsel, R. J. Doerksen,
 A. Dreuw, B. D. Dunietz, A. D. Dutoi, T. R. Furlani,
 S. R. Gwaltney, A. Heyden, S. Hirata, C.-P. Hsu, G. Kedziora,
 R. Z. Khaliullin, P. Klunzinger, A. M. Lee, M. S. Lee, W. Liang,
 I. Lotan, N. Nair, B. Peters, E. I. Proynov, P. A. Pieniazek, 
 Y. M. Rhee, J. Ritchie, E. Rosta, C. D. Sherrill, 
 A. C. Simmonett, J. E. Subotnik, H. L. Woodcock III,
 W. Zhang, A. T. Bell, A. K. Chakraborty, D. M. Chipman,
 F. J. Keil, A. Warshel, W. J. Hehre, H. F. Schaefer III,
 J. Kong, A. I. Krylov, P. M. W. Gill, M. Head-Gordon,
 Q-Chem, Version 3.1, Q-Chem, Inc., Pittsburgh, PA (2007).

 Additional authors for Version 3.1: 
 Z. Gan, Y. Zhao, N. E. Schultz, D. Truhlar, E. Epifanovsky and M. Oana.

 Additional authors for Version 3.2: 
 R. Baer, B. R. Brooks, D. Casanova, J.-D. Chai, C.-L. Cheng, 
 C. Cramer, D. Crittenden, A. Ghysels, G. Hawkins, E. G. Hohenstein, 
 C. Kelley, W. Kurlancheek, D. Liotard, E. Livshits, P. Manohar, 
 A. Marenich, D. Neuhauser, R. Olson, M. A. Rohrdanz, K. S. Thanthiriwatte, 
 A. J. W. Thom, V. Vanovschi, C. F. Williams, Q. Wu and Z.-Q. You. 


 Intel X86 Linux Version

 Q-chem begins on Wed Jul 24 15:59:17 2013  

 Parallel job on  1  processors
Processing $rem in /usr/local/qchem/config/preferences.

theFileMan(): MAXOPENFILES=974 MAX_SUB_FILE_NUM=16
Maximum size of a physical file is 2.0 GB, maximum size of a tmp-file is 32.0 GB


--------------------------------------------------------------
User input:
--------------------------------------------------------------

$molecule 
READ 
$end 

$rem
   EXCHANGE B3LYP
   UNRESTRICTED TRUE
   SYMMETRY_DECOMPOSITION       0
   BASIS                   g3large
   JOBTYPE                 freq
   mem_static              760
   max_scf_cycles          200
   scf_final_print         1
   sym_ignore              true
   JOBTYPE                 freq
   IDERIV 1
   SCF_GUESS READ
$end
--------------------------------------------------------------
 Writing REM_CC_EA            2
 ----------------------------------------------------
       Standard Nuclear Orientation (Angstroms)
    I     Atom         X            Y            Z
 ----------------------------------------------------
    1      Li      0.000000     0.000000    -0.008099
    2      F       0.000000     0.000000     1.559802
 ----------------------------------------------------
 Nuclear Repulsion Energy =     9.1126879275 hartrees
 There are        6 alpha and        6 beta electrons
 Requested basis set is G3large
 There are 20 shells and 84 basis functions

Total QAlloc Memory Limit   2000 MB
Mega-Array Size       759 MB
MEM_STATIC part       760 MB

                       Distance Matrix (Angstroms)
             Li(  1)
   F (  2)  1.567900
 
 A cutoff of  1.0D-11 yielded    208 shell pairs
 There are   3686 function pairs (  4836 Cartesian)
Evaluating contribution to one-electron hamiltonian from nuclear
 Smallest overlap matrix eigenvalue = 2.11E-03
 Multipole matrices computed through 2nd order
 Guess MOs from SCF MO coefficient file
Reading MOs from coefficient file
Reading MOs from coefficient file
 An unrestricted hybrid HF-DFT SCF calculation will be
 performed using Pulay DIIS extrapolation
 Exchange:     0.2000 Hartree-Fock + 0.0800 Slater + 0.7200 Becke88
 Correlation:  0.8100 LYP + 0.1900 VWN1RPA
 Using SG-1 standard quadrature grid
 SCF converges when DIIS error is below 1.0E-08
 ---------------------------------------
  Cycle       Energy         DIIS Error
 ---------------------------------------
    1    -107.4711475494      2.84E-10
    2    -107.4711475498      2.51E-10 Convergence criterion met
 ---------------------------------------
 One-Electron    Energy =  -169.1982030503
 Total Coulomb   Energy =    65.0564892108
 Alpha Exchange  Energy =    -1.1938662242
 Beta  Exchange  Energy =    -1.1938662242
 DFT   Exchange  Energy =    -9.5130354396
 DFT Correlation Energy =    -0.5413537500
 Nuclear Repu.   Energy =     9.1126879275
 Nuclear Attr.   Energy =  -276.3385878568
 Kinetic         Energy =   107.1403848065
 <S^2> = 0.0000
 SCF time:  CPU 1.49 s  wall 1.51 s
 Final Alpha MO Eigenvalues
            1           2           3           4           5           6
    1 -24.5155286  -1.9908616  -1.0015839  -0.2982214  -0.2841353  -0.2841353
            7           8           9          10          11
    1  -0.0511650   0.0046040   0.0046040   0.0054172   0.0182462
 Final Beta MO Eigenvalues
            1           2           3           4           5           6
    1 -24.5155286  -1.9908616  -1.0015839  -0.2982214  -0.2841353  -0.2841353
            7           8           9          10          11
    1  -0.0511650   0.0046040   0.0046040   0.0054172   0.0182462
 Analysis of SCF Wavefunction
 
 --------------------------------------------------------------
                    Orbital Energies (a.u.)
 --------------------------------------------------------------
 
 Alpha MOs
 -- Occupied --
-24.516  -1.991  -1.002  -0.298  -0.284  -0.284
 -- Virtual --
 -0.051   0.005   0.005   0.005   0.018   0.030   0.030   0.052
  0.092   0.115   0.115   0.160   0.225   0.225   0.266   0.266
  0.277   0.333   0.359   0.359   0.442   0.442   0.463   0.534
  0.534   0.544   0.544   0.613   0.694   0.694   0.754   1.154
  1.154   1.162   1.162   1.308   1.490   1.490   1.515   2.106
  2.205   2.205   2.299   2.442   2.442   3.995   6.316   6.316
  6.346   6.762   6.762   6.766   6.773   6.773   6.777   6.810
  6.904   6.904   7.249   9.224   9.224   9.357   9.357   9.438
 19.991  20.034  21.222  21.240  21.240  50.268  50.309  50.350
 50.363  50.363  55.909  55.909  55.956  66.976
 
 Beta MOs
 -- Occupied --
-24.516  -1.991  -1.002  -0.298  -0.284  -0.284
 -- Virtual --
 -0.051   0.005   0.005   0.005   0.018   0.030   0.030   0.052
  0.092   0.115   0.115   0.160   0.225   0.225   0.266   0.266
  0.277   0.333   0.359   0.359   0.442   0.442   0.463   0.534
  0.534   0.544   0.544   0.613   0.694   0.694   0.754   1.154
  1.154   1.162   1.162   1.308   1.490   1.490   1.515   2.106
  2.205   2.205   2.299   2.442   2.442   3.995   6.316   6.316
  6.346   6.762   6.762   6.766   6.773   6.773   6.777   6.810
  6.904   6.904   7.249   9.224   9.224   9.357   9.357   9.438
 19.991  20.034  21.222  21.240  21.240  50.268  50.309  50.350
 50.363  50.363  55.909  55.909  55.956  66.976
 --------------------------------------------------------------
 
          Ground-State Mulliken Net Atomic Charges

     Atom                 Charge (a.u.)    Spin (a.u.)
  --------------------------------------------------------
      1 Li                    0.585375       0.000000
      2 F                    -0.585375       0.000000
  --------------------------------------------------------
  Sum of atomic charges =     0.000000
  Sum of spin   charges =     0.000000

 -----------------------------------------------------------------
                    Cartesian Multipole Moments
 -----------------------------------------------------------------
    Charge (ESU x 10^10)
                 0.0000
    Dipole Moment (Debye)
         X       0.0000      Y       0.0000      Z      -6.2406
       Tot       6.2406
    Quadrupole Moments (Debye-Ang)
        XX      -7.4730     XY       0.0000     YY      -7.4730
        XZ       0.0000     YZ       0.0000     ZZ     -15.6659
    Octapole Moments (Debye-Ang^2)
       XXX       0.0000    XXY       0.0000    XYY       0.0000
       YYY       0.0000    XXZ     -10.2499    XYZ       0.0000
       YYZ     -10.2499    XZZ       0.0000    YZZ       0.0000
       ZZZ     -42.0284
    Hexadecapole Moments (Debye-Ang^3)
      XXXX      -7.7839   XXXY       0.0000   XXYY      -2.5946
      XYYY       0.0000   YYYY      -7.7839   XXXZ       0.0000
      XXYZ       0.0000   XYYZ       0.0000   YYYZ       0.0000
      XXZZ     -17.6683   XYZZ       0.0000   YYZZ     -17.6683
      XZZZ       0.0000   YZZZ       0.0000   ZZZZ    -114.8759
 -----------------------------------------------------------------
 Calculating analytic gradient of the SCF energy
 Gradient of XC Energy
            1           2
    1  -0.0000000   0.0000000
    2  -0.0000000   0.0000000
    3  -0.0796226   0.0796226
 Gradient of SCF Energy
            1           2
    1  -0.0000000   0.0000000
    2  -0.0000000   0.0000000
    3   0.0001548  -0.0001548
 Max gradient component =       1.548E-04
 RMS gradient           =       8.939E-05
 Gradient time:  CPU 2.99 s  wall 3.02 s
 ######################################################
 ######################################################
 # Starting finite difference calculation for IDERIV  #
 Finite diff step size: 1.89e-03 a.u.
 Writing REM_CC_EA            2
 ----------------------------------------------------
       Standard Nuclear Orientation (Angstroms)
    I     Atom         X            Y            Z
 ----------------------------------------------------
    1      Li      0.001000     0.000000    -0.008099
    2      F       0.000000     0.000000     1.559802
 ----------------------------------------------------
 Nuclear Repulsion Energy =     9.1126860741 hartrees
 There are        6 alpha and        6 beta electrons

                       Distance Matrix (Angstroms)
             Li(  1)
   F (  2)  1.567900
 
 Requested basis set is G3large
 There are 20 shells and 84 basis functions
 A cutoff of  1.0D-11 yielded    208 shell pairs
 There are   3686 function pairs (  4836 Cartesian)
Evaluating contribution to one-electron hamiltonian from nuclear
 Smallest overlap matrix eigenvalue = 2.11E-03
 Multipole matrices computed through 2nd order
 Guess MOs from SCF MO coefficient file
Reading MOs from coefficient file
Reading MOs from coefficient file
 An unrestricted hybrid HF-DFT SCF calculation will be
 performed using Pulay DIIS extrapolation
 Exchange:     0.2000 Hartree-Fock + 0.0800 Slater + 0.7200 Becke88
 Correlation:  0.8100 LYP + 0.1900 VWN1RPA
 Using SG-1 standard quadrature grid
 SCF converges when DIIS error is below 1.0E-08
 ---------------------------------------
  Cycle       Energy         DIIS Error
 ---------------------------------------
    1    -107.4711473231      8.64E-06
    2    -107.4711475502      1.08E-06
    3    -107.4711475514      4.35E-07
    4    -107.4711475511      3.11E-08
    5    -107.4711475512      3.57E-08
    6    -107.4711475512      4.53E-09 Convergence criterion met
 ---------------------------------------
 One-Electron    Energy =  -169.1982005010
 Total Coulomb   Energy =    65.0564885876
 Alpha Exchange  Energy =    -1.1938662317
 Beta  Exchange  Energy =    -1.1938662317
 DFT   Exchange  Energy =    -9.5130355006
 DFT Correlation Energy =    -0.5413537480
 Nuclear Repu.   Energy =     9.1126860741
 Nuclear Attr.   Energy =  -276.3385859836
 Kinetic         Energy =   107.1403854826
 <S^2> = 0.0000
 SCF time:  CPU 4.48 s  wall 4.55 s
 Final Alpha MO Eigenvalues
            1           2           3           4           5           6
    1 -24.5155286  -1.9908616  -1.0015839  -0.2982214  -0.2841353  -0.2841353
            7           8           9          10          11
    1  -0.0511650   0.0046040   0.0046040   0.0054171   0.0182462
 Final Beta MO Eigenvalues
            1           2           3           4           5           6
    1 -24.5155286  -1.9908616  -1.0015839  -0.2982214  -0.2841353  -0.2841353
            7           8           9          10          11
    1  -0.0511650   0.0046040   0.0046040   0.0054171   0.0182462
 Analysis of SCF Wavefunction
 
 --------------------------------------------------------------
                    Orbital Energies (a.u.)
 --------------------------------------------------------------
 
 Alpha MOs
 -- Occupied --
-24.516  -1.991  -1.002  -0.298  -0.284  -0.284
 -- Virtual --
 -0.051   0.005   0.005   0.005   0.018   0.030   0.030   0.052
  0.092   0.115   0.115   0.160   0.225   0.225   0.266   0.266
  0.277   0.333   0.359   0.359   0.442   0.442   0.463   0.534
  0.534   0.544   0.544   0.613   0.694   0.694   0.754   1.154
  1.154   1.162   1.162   1.308   1.490   1.490   1.515   2.106
  2.205   2.205   2.299   2.442   2.442   3.995   6.316   6.316
  6.346   6.762   6.762   6.766   6.773   6.773   6.777   6.810
  6.904   6.904   7.249   9.224   9.224   9.357   9.357   9.438
 19.991  20.034  21.222  21.240  21.240  50.268  50.309  50.350
 50.363  50.363  55.909  55.909  55.956  66.976
 
 Beta MOs
 -- Occupied --
-24.516  -1.991  -1.002  -0.298  -0.284  -0.284
 -- Virtual --
 -0.051   0.005   0.005   0.005   0.018   0.030   0.030   0.052
  0.092   0.115   0.115   0.160   0.225   0.225   0.266   0.266
  0.277   0.333   0.359   0.359   0.442   0.442   0.463   0.534
  0.534   0.544   0.544   0.613   0.694   0.694   0.754   1.154
  1.154   1.162   1.162   1.308   1.490   1.490   1.515   2.106
  2.205   2.205   2.299   2.442   2.442   3.995   6.316   6.316
  6.346   6.762   6.762   6.766   6.773   6.773   6.777   6.810
  6.904   6.904   7.249   9.224   9.224   9.357   9.357   9.438
 19.991  20.034  21.222  21.240  21.240  50.268  50.309  50.350
 50.363  50.363  55.909  55.909  55.956  66.976
 --------------------------------------------------------------
 
          Ground-State Mulliken Net Atomic Charges

     Atom                 Charge (a.u.)    Spin (a.u.)
  --------------------------------------------------------
      1 Li                    0.585375       0.000000
      2 F                    -0.585375       0.000000
  --------------------------------------------------------
  Sum of atomic charges =     0.000000
  Sum of spin   charges =     0.000000

 -----------------------------------------------------------------
                    Cartesian Multipole Moments
 -----------------------------------------------------------------
    Charge (ESU x 10^10)
                 0.0000
    Dipole Moment (Debye)
         X       0.0040      Y       0.0000      Z      -6.2406
       Tot       6.2406
    Quadrupole Moments (Debye-Ang)
        XX      -7.4730     XY       0.0000     YY      -7.4730
        XZ      -0.0010     YZ       0.0000     ZZ     -15.6659
    Octapole Moments (Debye-Ang^2)
       XXX      -0.0027    XXY       0.0000    XYY      -0.0009
       YYY       0.0000    XXZ     -10.2499    XYZ       0.0000
       YYZ     -10.2499    XZZ      -0.0019    YZZ       0.0000
       ZZZ     -42.0284
    Hexadecapole Moments (Debye-Ang^3)
      XXXX      -7.7839   XXXY       0.0000   XXYY      -2.5946
      XYYY       0.0000   YYYY      -7.7839   XXXZ      -0.0018
      XXYZ       0.0000   XYYZ      -0.0006   YYYZ       0.0000
      XXZZ     -17.6683   XYZZ       0.0000   YYZZ     -17.6683
      XZZZ      -0.0024   YZZZ       0.0000   ZZZZ    -114.8759
 -----------------------------------------------------------------
 Calculating analytic gradient of the SCF energy
 Gradient of XC Energy
            1           2
    1   0.0000497  -0.0000497
    2  -0.0000000   0.0000000
    3  -0.0796225   0.0796225
 Gradient of SCF Energy
            1           2
    1  -0.0000017   0.0000017
    2  -0.0000000   0.0000000
    3   0.0001548  -0.0001548
 Max gradient component =       1.548E-04
 RMS gradient           =       8.936E-05
 Gradient time:  CPU 3.00 s  wall 3.03 s
 Writing REM_CC_EA            2
 ----------------------------------------------------
       Standard Nuclear Orientation (Angstroms)
    I     Atom         X            Y            Z
 ----------------------------------------------------
    1      Li     -0.001000     0.000000    -0.008099
    2      F       0.000000     0.000000     1.559802
 ----------------------------------------------------
 Nuclear Repulsion Energy =     9.1126860741 hartrees
 There are        6 alpha and        6 beta electrons

                       Distance Matrix (Angstroms)
             Li(  1)
   F (  2)  1.567900
 
 Requested basis set is G3large
 There are 20 shells and 84 basis functions
 A cutoff of  1.0D-11 yielded    208 shell pairs
 There are   3686 function pairs (  4836 Cartesian)
Evaluating contribution to one-electron hamiltonian from nuclear
 Smallest overlap matrix eigenvalue = 2.11E-03
 Multipole matrices computed through 2nd order
 Guess MOs from SCF MO coefficient file
Reading MOs from coefficient file
Reading MOs from coefficient file
 An unrestricted hybrid HF-DFT SCF calculation will be
 performed using Pulay DIIS extrapolation
 Exchange:     0.2000 Hartree-Fock + 0.0800 Slater + 0.7200 Becke88
 Correlation:  0.8100 LYP + 0.1900 VWN1RPA
 Using SG-1 standard quadrature grid
 SCF converges when DIIS error is below 1.0E-08
 ---------------------------------------
  Cycle       Energy         DIIS Error
 ---------------------------------------
    1    -107.4711469411      1.73E-05
    2    -107.4711475472      2.17E-06
    3    -107.4711475506      8.73E-07
    4    -107.4711475510      8.48E-08
    5    -107.4711475512      1.29E-07
    6    -107.4711475511      5.32E-09 Convergence criterion met
 ---------------------------------------
 One-Electron    Energy =  -169.1982005746
 Total Coulomb   Energy =    65.0564886717
 Alpha Exchange  Energy =    -1.1938662327
 Beta  Exchange  Energy =    -1.1938662327
 DFT   Exchange  Energy =    -9.5130355086
 DFT Correlation Energy =    -0.5413537482
 Nuclear Repu.   Energy =     9.1126860741
 Nuclear Attr.   Energy =  -276.3385861297
 Kinetic         Energy =   107.1403855551
 <S^2> = 0.0000
 SCF time:  CPU 4.48 s  wall 5.01 s
 Final Alpha MO Eigenvalues
            1           2           3           4           5           6
    1 -24.5155286  -1.9908616  -1.0015839  -0.2982214  -0.2841353  -0.2841353
            7           8           9          10          11
    1  -0.0511650   0.0046040   0.0046040   0.0054171   0.0182462
 Final Beta MO Eigenvalues
            1           2           3           4           5           6
    1 -24.5155286  -1.9908616  -1.0015839  -0.2982214  -0.2841353  -0.2841353
            7           8           9          10          11
    1  -0.0511650   0.0046040   0.0046040   0.0054171   0.0182462
 Analysis of SCF Wavefunction
 
 --------------------------------------------------------------
                    Orbital Energies (a.u.)
 --------------------------------------------------------------
 
 Alpha MOs
 -- Occupied --
-24.516  -1.991  -1.002  -0.298  -0.284  -0.284
 -- Virtual --
 -0.051   0.005   0.005   0.005   0.018   0.030   0.030   0.052
  0.092   0.115   0.115   0.160   0.225   0.225   0.266   0.266
  0.277   0.333   0.359   0.359   0.442   0.442   0.463   0.534
  0.534   0.544   0.544   0.613   0.694   0.694   0.754   1.154
  1.154   1.162   1.162   1.308   1.490   1.490   1.515   2.106
  2.205   2.205   2.299   2.442   2.442   3.995   6.316   6.316
  6.346   6.762   6.762   6.766   6.773   6.773   6.777   6.810
  6.904   6.904   7.249   9.224   9.224   9.357   9.357   9.438
 19.991  20.034  21.222  21.240  21.240  50.268  50.309  50.350
 50.363  50.363  55.909  55.909  55.956  66.976
 
 Beta MOs
 -- Occupied --
-24.516  -1.991  -1.002  -0.298  -0.284  -0.284
 -- Virtual --
 -0.051   0.005   0.005   0.005   0.018   0.030   0.030   0.052
  0.092   0.115   0.115   0.160   0.225   0.225   0.266   0.266
  0.277   0.333   0.359   0.359   0.442   0.442   0.463   0.534
  0.534   0.544   0.544   0.613   0.694   0.694   0.754   1.154
  1.154   1.162   1.162   1.308   1.490   1.490   1.515   2.106
  2.205   2.205   2.299   2.442   2.442   3.995   6.316   6.316
  6.346   6.762   6.762   6.766   6.773   6.773   6.777   6.810
  6.904   6.904   7.249   9.224   9.224   9.357   9.357   9.438
 19.991  20.034  21.222  21.240  21.240  50.268  50.309  50.350
 50.363  50.363  55.909  55.909  55.956  66.976
 --------------------------------------------------------------
 
          Ground-State Mulliken Net Atomic Charges

     Atom                 Charge (a.u.)    Spin (a.u.)
  --------------------------------------------------------
      1 Li                    0.585375       0.000000
      2 F                    -0.585375       0.000000
  --------------------------------------------------------
  Sum of atomic charges =     0.000000
  Sum of spin   charges =     0.000000

 -----------------------------------------------------------------
                    Cartesian Multipole Moments
 -----------------------------------------------------------------
    Charge (ESU x 10^10)
                 0.0000
    Dipole Moment (Debye)
         X      -0.0040      Y       0.0000      Z      -6.2406
       Tot       6.2406
    Quadrupole Moments (Debye-Ang)
        XX      -7.4730     XY       0.0000     YY      -7.4730
        XZ       0.0010     YZ       0.0000     ZZ     -15.6659
    Octapole Moments (Debye-Ang^2)
       XXX       0.0027    XXY       0.0000    XYY       0.0009
       YYY       0.0000    XXZ     -10.2499    XYZ       0.0000
       YYZ     -10.2499    XZZ       0.0019    YZZ       0.0000
       ZZZ     -42.0284
    Hexadecapole Moments (Debye-Ang^3)
      XXXX      -7.7839   XXXY       0.0000   XXYY      -2.5946
      XYYY       0.0000   YYYY      -7.7839   XXXZ       0.0018
      XXYZ       0.0000   XYYZ       0.0006   YYYZ       0.0000
      XXZZ     -17.6683   XYZZ       0.0000   YYZZ     -17.6683
      XZZZ       0.0024   YZZZ       0.0000   ZZZZ    -114.8759
 -----------------------------------------------------------------
 Calculating analytic gradient of the SCF energy
 Gradient of XC Energy
            1           2
    1  -0.0000497   0.0000497
    2   0.0000000  -0.0000000
    3  -0.0796225   0.0796225
 Gradient of SCF Energy
            1           2
    1   0.0000017  -0.0000017
    2   0.0000000  -0.0000000
    3   0.0001548  -0.0001548
 Max gradient component =       1.548E-04
 RMS gradient           =       8.936E-05
 Gradient time:  CPU 3.01 s  wall 3.05 s
 Writing REM_CC_EA            2
 ----------------------------------------------------
       Standard Nuclear Orientation (Angstroms)
    I     Atom         X            Y            Z
 ----------------------------------------------------
    1      Li      0.000000     0.001000    -0.008099
    2      F       0.000000     0.000000     1.559802
 ----------------------------------------------------
 Nuclear Repulsion Energy =     9.1126860741 hartrees
 There are        6 alpha and        6 beta electrons

                       Distance Matrix (Angstroms)
             Li(  1)
   F (  2)  1.567900
 
 Requested basis set is G3large
 There are 20 shells and 84 basis functions
 A cutoff of  1.0D-11 yielded    208 shell pairs
 There are   3686 function pairs (  4836 Cartesian)
Evaluating contribution to one-electron hamiltonian from nuclear
 Smallest overlap matrix eigenvalue = 2.11E-03
 Multipole matrices computed through 2nd order
 Guess MOs from SCF MO coefficient file
Reading MOs from coefficient file
Reading MOs from coefficient file
 An unrestricted hybrid HF-DFT SCF calculation will be
 performed using Pulay DIIS extrapolation
 Exchange:     0.2000 Hartree-Fock + 0.0800 Slater + 0.7200 Becke88
 Correlation:  0.8100 LYP + 0.1900 VWN1RPA
 Using SG-1 standard quadrature grid
 SCF converges when DIIS error is below 1.0E-08
 ---------------------------------------
  Cycle       Energy         DIIS Error
 ---------------------------------------
    1    -107.4711472461      1.22E-05
    2    -107.4711475486      1.53E-06
    3    -107.4711475508      6.16E-07
    4    -107.4711475511      5.02E-08
    5    -107.4711475510      6.97E-08
    6    -107.4711475510      4.82E-09 Convergence criterion met
 ---------------------------------------
 One-Electron    Energy =  -169.1982005320
 Total Coulomb   Energy =    65.0564886230
 Alpha Exchange  Energy =    -1.1938662321
 Beta  Exchange  Energy =    -1.1938662321
 DFT   Exchange  Energy =    -9.5130355038
 DFT Correlation Energy =    -0.5413537481
 Nuclear Repu.   Energy =     9.1126860741
 Nuclear Attr.   Energy =  -276.3385860441
 Kinetic         Energy =   107.1403855121
 <S^2> = 0.0000
 SCF time:  CPU 4.54 s  wall 4.60 s
 Final Alpha MO Eigenvalues
            1           2           3           4           5           6
    1 -24.5155286  -1.9908616  -1.0015839  -0.2982214  -0.2841353  -0.2841353
            7           8           9          10          11
    1  -0.0511650   0.0046040   0.0046040   0.0054171   0.0182462
 Final Beta MO Eigenvalues
            1           2           3           4           5           6
    1 -24.5155286  -1.9908616  -1.0015839  -0.2982214  -0.2841353  -0.2841353
            7           8           9          10          11
    1  -0.0511650   0.0046040   0.0046040   0.0054171   0.0182462
 Analysis of SCF Wavefunction
 
 --------------------------------------------------------------
                    Orbital Energies (a.u.)
 --------------------------------------------------------------
 
 Alpha MOs
 -- Occupied --
-24.516  -1.991  -1.002  -0.298  -0.284  -0.284
 -- Virtual --
 -0.051   0.005   0.005   0.005   0.018   0.030   0.030   0.052
  0.092   0.115   0.115   0.160   0.225   0.225   0.266   0.266
  0.277   0.333   0.359   0.359   0.442   0.442   0.463   0.534
  0.534   0.544   0.544   0.613   0.694   0.694   0.754   1.154
  1.154   1.162   1.162   1.308   1.490   1.490   1.515   2.106
  2.205   2.205   2.299   2.442   2.442   3.995   6.316   6.316
  6.346   6.762   6.762   6.766   6.773   6.773   6.777   6.810
  6.904   6.904   7.249   9.224   9.224   9.357   9.357   9.438
 19.991  20.034  21.222  21.240  21.240  50.268  50.309  50.350
 50.363  50.363  55.909  55.909  55.956  66.976
 
 Beta MOs
 -- Occupied --
-24.516  -1.991  -1.002  -0.298  -0.284  -0.284
 -- Virtual --
 -0.051   0.005   0.005   0.005   0.018   0.030   0.030   0.052
  0.092   0.115   0.115   0.160   0.225   0.225   0.266   0.266
  0.277   0.333   0.359   0.359   0.442   0.442   0.463   0.534
  0.534   0.544   0.544   0.613   0.694   0.694   0.754   1.154
  1.154   1.162   1.162   1.308   1.490   1.490   1.515   2.106
  2.205   2.205   2.299   2.442   2.442   3.995   6.316   6.316
  6.346   6.762   6.762   6.766   6.773   6.773   6.777   6.810
  6.904   6.904   7.249   9.224   9.224   9.357   9.357   9.438
 19.991  20.034  21.222  21.240  21.240  50.268  50.309  50.350
 50.363  50.363  55.909  55.909  55.956  66.976
 --------------------------------------------------------------
 
          Ground-State Mulliken Net Atomic Charges

     Atom                 Charge (a.u.)    Spin (a.u.)
  --------------------------------------------------------
      1 Li                    0.585375       0.000000
      2 F                    -0.585375       0.000000
  --------------------------------------------------------
  Sum of atomic charges =     0.000000
  Sum of spin   charges =     0.000000

 -----------------------------------------------------------------
                    Cartesian Multipole Moments
 -----------------------------------------------------------------
    Charge (ESU x 10^10)
                 0.0000
    Dipole Moment (Debye)
         X       0.0000      Y       0.0040      Z      -6.2406
       Tot       6.2406
    Quadrupole Moments (Debye-Ang)
        XX      -7.4730     XY       0.0000     YY      -7.4730
        XZ       0.0000     YZ      -0.0010     ZZ     -15.6659
    Octapole Moments (Debye-Ang^2)
       XXX       0.0000    XXY      -0.0009    XYY       0.0000
       YYY      -0.0027    XXZ     -10.2499    XYZ       0.0000
       YYZ     -10.2499    XZZ       0.0000    YZZ      -0.0019
       ZZZ     -42.0284
    Hexadecapole Moments (Debye-Ang^3)
      XXXX      -7.7839   XXXY       0.0000   XXYY      -2.5946
      XYYY       0.0000   YYYY      -7.7839   XXXZ       0.0000
      XXYZ      -0.0006   XYYZ       0.0000   YYYZ      -0.0018
      XXZZ     -17.6683   XYZZ       0.0000   YYZZ     -17.6683
      XZZZ       0.0000   YZZZ      -0.0024   ZZZZ    -114.8759
 -----------------------------------------------------------------
 Calculating analytic gradient of the SCF energy
 Gradient of XC Energy
            1           2
    1   0.0000000  -0.0000000
    2   0.0000497  -0.0000497
    3  -0.0796225   0.0796225
 Gradient of SCF Energy
            1           2
    1   0.0000000  -0.0000000
    2  -0.0000017   0.0000017
    3   0.0001548  -0.0001548
 Max gradient component =       1.548E-04
 RMS gradient           =       8.936E-05
 Gradient time:  CPU 3.01 s  wall 3.03 s
 Writing REM_CC_EA            2
 ----------------------------------------------------
       Standard Nuclear Orientation (Angstroms)
    I     Atom         X            Y            Z
 ----------------------------------------------------
    1      Li      0.000000    -0.001000    -0.008099
    2      F       0.000000     0.000000     1.559802
 ----------------------------------------------------
 Nuclear Repulsion Energy =     9.1126860741 hartrees
 There are        6 alpha and        6 beta electrons

                       Distance Matrix (Angstroms)
             Li(  1)
   F (  2)  1.567900
 
 Requested basis set is G3large
 There are 20 shells and 84 basis functions
 A cutoff of  1.0D-11 yielded    208 shell pairs
 There are   3686 function pairs (  4836 Cartesian)
Evaluating contribution to one-electron hamiltonian from nuclear
 Smallest overlap matrix eigenvalue = 2.11E-03
 Multipole matrices computed through 2nd order
 Guess MOs from SCF MO coefficient file
Reading MOs from coefficient file
Reading MOs from coefficient file
 An unrestricted hybrid HF-DFT SCF calculation will be
 performed using Pulay DIIS extrapolation
 Exchange:     0.2000 Hartree-Fock + 0.0800 Slater + 0.7200 Becke88
 Correlation:  0.8100 LYP + 0.1900 VWN1RPA
 Using SG-1 standard quadrature grid
 SCF converges when DIIS error is below 1.0E-08
 ---------------------------------------
  Cycle       Energy         DIIS Error
 ---------------------------------------
    1    -107.4711469411      1.73E-05
    2    -107.4711475473      2.17E-06
    3    -107.4711475506      8.73E-07
    4    -107.4711475510      8.48E-08
    5    -107.4711475512      1.29E-07
    6    -107.4711475511      5.26E-09 Convergence criterion met
 ---------------------------------------
 One-Electron    Energy =  -169.1982005685
 Total Coulomb   Energy =    65.0564886645
 Alpha Exchange  Energy =    -1.1938662326
 Beta  Exchange  Energy =    -1.1938662326
 DFT   Exchange  Energy =    -9.5130355077
 DFT Correlation Energy =    -0.5413537482
 Nuclear Repu.   Energy =     9.1126860741
 Nuclear Attr.   Energy =  -276.3385861143
 Kinetic         Energy =   107.1403855458
 <S^2> = 0.0000
 SCF time:  CPU 4.53 s  wall 4.66 s
 Final Alpha MO Eigenvalues
            1           2           3           4           5           6
    1 -24.5155286  -1.9908616  -1.0015839  -0.2982214  -0.2841353  -0.2841353
            7           8           9          10          11
    1  -0.0511650   0.0046040   0.0046040   0.0054171   0.0182462
 Final Beta MO Eigenvalues
            1           2           3           4           5           6
    1 -24.5155286  -1.9908616  -1.0015839  -0.2982214  -0.2841353  -0.2841353
            7           8           9          10          11
    1  -0.0511650   0.0046040   0.0046040   0.0054171   0.0182462
 Analysis of SCF Wavefunction
 
 --------------------------------------------------------------
                    Orbital Energies (a.u.)
 --------------------------------------------------------------
 
 Alpha MOs
 -- Occupied --
-24.516  -1.991  -1.002  -0.298  -0.284  -0.284
 -- Virtual --
 -0.051   0.005   0.005   0.005   0.018   0.030   0.030   0.052
  0.092   0.115   0.115   0.160   0.225   0.225   0.266   0.266
  0.277   0.333   0.359   0.359   0.442   0.442   0.463   0.534
  0.534   0.544   0.544   0.613   0.694   0.694   0.754   1.154
  1.154   1.162   1.162   1.308   1.490   1.490   1.515   2.106
  2.205   2.205   2.299   2.442   2.442   3.995   6.316   6.316
  6.346   6.762   6.762   6.766   6.773   6.773   6.777   6.810
  6.904   6.904   7.249   9.224   9.224   9.357   9.357   9.438
 19.991  20.034  21.222  21.240  21.240  50.268  50.309  50.350
 50.363  50.363  55.909  55.909  55.956  66.976
 
 Beta MOs
 -- Occupied --
-24.516  -1.991  -1.002  -0.298  -0.284  -0.284
 -- Virtual --
 -0.051   0.005   0.005   0.005   0.018   0.030   0.030   0.052
  0.092   0.115   0.115   0.160   0.225   0.225   0.266   0.266
  0.277   0.333   0.359   0.359   0.442   0.442   0.463   0.534
  0.534   0.544   0.544   0.613   0.694   0.694   0.754   1.154
  1.154   1.162   1.162   1.308   1.490   1.490   1.515   2.106
  2.205   2.205   2.299   2.442   2.442   3.995   6.316   6.316
  6.346   6.762   6.762   6.766   6.773   6.773   6.777   6.810
  6.904   6.904   7.249   9.224   9.224   9.357   9.357   9.438
 19.991  20.034  21.222  21.240  21.240  50.268  50.309  50.350
 50.363  50.363  55.909  55.909  55.956  66.976
 --------------------------------------------------------------
 
          Ground-State Mulliken Net Atomic Charges

     Atom                 Charge (a.u.)    Spin (a.u.)
  --------------------------------------------------------
      1 Li                    0.585375       0.000000
      2 F                    -0.585375       0.000000
  --------------------------------------------------------
  Sum of atomic charges =     0.000000
  Sum of spin   charges =     0.000000

 -----------------------------------------------------------------
                    Cartesian Multipole Moments
 -----------------------------------------------------------------
    Charge (ESU x 10^10)
                 0.0000
    Dipole Moment (Debye)
         X       0.0000      Y      -0.0040      Z      -6.2406
       Tot       6.2406
    Quadrupole Moments (Debye-Ang)
        XX      -7.4730     XY       0.0000     YY      -7.4730
        XZ       0.0000     YZ       0.0010     ZZ     -15.6659
    Octapole Moments (Debye-Ang^2)
       XXX       0.0000    XXY       0.0009    XYY       0.0000
       YYY       0.0027    XXZ     -10.2499    XYZ       0.0000
       YYZ     -10.2499    XZZ       0.0000    YZZ       0.0019
       ZZZ     -42.0284
    Hexadecapole Moments (Debye-Ang^3)
      XXXX      -7.7839   XXXY       0.0000   XXYY      -2.5946
      XYYY       0.0000   YYYY      -7.7839   XXXZ       0.0000
      XXYZ       0.0006   XYYZ       0.0000   YYYZ       0.0018
      XXZZ     -17.6683   XYZZ       0.0000   YYZZ     -17.6683
      XZZZ       0.0000   YZZZ       0.0024   ZZZZ    -114.8759
 -----------------------------------------------------------------
 Calculating analytic gradient of the SCF energy
 Gradient of XC Energy
            1           2
    1   0.0000000  -0.0000000
    2  -0.0000497   0.0000497
    3  -0.0796225   0.0796225
 Gradient of SCF Energy
            1           2
    1   0.0000000  -0.0000000
    2   0.0000017  -0.0000017
    3   0.0001548  -0.0001548
 Max gradient component =       1.548E-04
 RMS gradient           =       8.936E-05
 Gradient time:  CPU 3.18 s  wall 3.23 s
 Writing REM_CC_EA            2
 ----------------------------------------------------
       Standard Nuclear Orientation (Angstroms)
    I     Atom         X            Y            Z
 ----------------------------------------------------
    1      Li      0.000000     0.000000    -0.007099
    2      F       0.000000     0.000000     1.559802
 ----------------------------------------------------
 Nuclear Repulsion Energy =     9.1185036702 hartrees
 There are        6 alpha and        6 beta electrons

                       Distance Matrix (Angstroms)
             Li(  1)
   F (  2)  1.566900
 
 Requested basis set is G3large
 There are 20 shells and 84 basis functions
 A cutoff of  1.0D-11 yielded    208 shell pairs
 There are   3686 function pairs (  4836 Cartesian)
Evaluating contribution to one-electron hamiltonian from nuclear
 Smallest overlap matrix eigenvalue = 2.11E-03
 Multipole matrices computed through 2nd order
 Guess MOs from SCF MO coefficient file
Reading MOs from coefficient file
Reading MOs from coefficient file
 An unrestricted hybrid HF-DFT SCF calculation will be
 performed using Pulay DIIS extrapolation
 Exchange:     0.2000 Hartree-Fock + 0.0800 Slater + 0.7200 Becke88
 Correlation:  0.8100 LYP + 0.1900 VWN1RPA
 Using SG-1 standard quadrature grid
 SCF converges when DIIS error is below 1.0E-08
 ---------------------------------------
  Cycle       Energy         DIIS Error
 ---------------------------------------
    1    -107.4713816898      2.17E-05
    2    -107.4711469753      1.67E-06
    3    -107.4711469772      9.57E-07
    4    -107.4711469772      8.07E-07
    5    -107.4711469775      1.20E-07
    6    -107.4711469776      1.30E-08
    7    -107.4711469777      6.85E-10 Convergence criterion met
 ---------------------------------------
 One-Electron    Energy =  -169.2091602093
 Total Coulomb   Energy =    65.0618240610
 Alpha Exchange  Energy =    -1.1938860357
 Beta  Exchange  Energy =    -1.1938860357
 DFT   Exchange  Energy =    -9.5131724596
 DFT Correlation Energy =    -0.5413699686
 Nuclear Repu.   Energy =     9.1185036702
 Nuclear Attr.   Energy =  -276.3503993836
 Kinetic         Energy =   107.1412391743
 <S^2> = 0.0000
 SCF time:  CPU 5.19 s  wall 5.31 s
 Final Alpha MO Eigenvalues
            1           2           3           4           5           6
    1 -24.5155733  -1.9907225  -1.0016823  -0.2982963  -0.2842378  -0.2842378
            7           8           9          10          11
    1  -0.0511340   0.0046169   0.0046169   0.0054257   0.0182411
 Final Beta MO Eigenvalues
            1           2           3           4           5           6
    1 -24.5155733  -1.9907225  -1.0016823  -0.2982963  -0.2842378  -0.2842378
            7           8           9          10          11
    1  -0.0511340   0.0046169   0.0046169   0.0054257   0.0182411
 Analysis of SCF Wavefunction
 
 --------------------------------------------------------------
                    Orbital Energies (a.u.)
 --------------------------------------------------------------
 
 Alpha MOs
 -- Occupied --
-24.516  -1.991  -1.002  -0.298  -0.284  -0.284
 -- Virtual --
 -0.051   0.005   0.005   0.005   0.018   0.030   0.030   0.052
  0.092   0.115   0.115   0.160   0.226   0.226   0.266   0.266
  0.277   0.333   0.359   0.359   0.442   0.442   0.463   0.534
  0.534   0.544   0.544   0.612   0.694   0.694   0.754   1.154
  1.154   1.162   1.163   1.308   1.490   1.490   1.516   2.106
  2.206   2.206   2.298   2.443   2.443   3.997   6.316   6.316
  6.346   6.762   6.762   6.766   6.773   6.773   6.776   6.810
  6.904   6.904   7.249   9.224   9.224   9.357   9.357   9.438
 19.992  20.034  21.223  21.240  21.240  50.268  50.309  50.350
 50.363  50.363  55.909  55.909  55.956  66.976
 
 Beta MOs
 -- Occupied --
-24.516  -1.991  -1.002  -0.298  -0.284  -0.284
 -- Virtual --
 -0.051   0.005   0.005   0.005   0.018   0.030   0.030   0.052
  0.092   0.115   0.115   0.160   0.226   0.226   0.266   0.266
  0.277   0.333   0.359   0.359   0.442   0.442   0.463   0.534
  0.534   0.544   0.544   0.612   0.694   0.694   0.754   1.154
  1.154   1.162   1.163   1.308   1.490   1.490   1.516   2.106
  2.206   2.206   2.298   2.443   2.443   3.997   6.316   6.316
  6.346   6.762   6.762   6.766   6.773   6.773   6.776   6.810
  6.904   6.904   7.249   9.224   9.224   9.357   9.357   9.438
 19.992  20.034  21.223  21.240  21.240  50.268  50.309  50.350
 50.363  50.363  55.909  55.909  55.956  66.976
 --------------------------------------------------------------
 
          Ground-State Mulliken Net Atomic Charges

     Atom                 Charge (a.u.)    Spin (a.u.)
  --------------------------------------------------------
      1 Li                    0.585167       0.000000
      2 F                    -0.585167       0.000000
  --------------------------------------------------------
  Sum of atomic charges =     0.000000
  Sum of spin   charges =     0.000000

 -----------------------------------------------------------------
                    Cartesian Multipole Moments
 -----------------------------------------------------------------
    Charge (ESU x 10^10)
                 0.0000
    Dipole Moment (Debye)
         X       0.0000      Y       0.0000      Z      -6.2363
       Tot       6.2363
    Quadrupole Moments (Debye-Ang)
        XX      -7.4722     XY       0.0000     YY      -7.4722
        XZ       0.0000     YZ       0.0000     ZZ     -15.6664
    Octapole Moments (Debye-Ang^2)
       XXX       0.0000    XXY       0.0000    XYY       0.0000
       YYY       0.0000    XXZ     -10.2498    XYZ       0.0000
       YYZ     -10.2498    XZZ       0.0000    YZZ       0.0000
       ZZZ     -42.0298
    Hexadecapole Moments (Debye-Ang^3)
      XXXX      -7.7813   XXXY       0.0000   XXYY      -2.5937
      XYYY       0.0000   YYYY      -7.7813   XXXZ       0.0000
      XXYZ       0.0000   XYYZ       0.0000   YYYZ       0.0000
      XXZZ     -17.6671   XYZZ       0.0000   YYZZ     -17.6671
      XZZZ       0.0000   YZZZ       0.0000   ZZZZ    -114.8748
 -----------------------------------------------------------------
 Calculating analytic gradient of the SCF energy
 Gradient of XC Energy
            1           2
    1   0.0000000  -0.0000000
    2   0.0000000  -0.0000000
    3  -0.0795876   0.0795876
 Gradient of SCF Energy
            1           2
    1  -0.0000000   0.0000000
    2  -0.0000000   0.0000000
    3   0.0004505  -0.0004505
 Max gradient component =       4.505E-04
 RMS gradient           =       2.601E-04
 Gradient time:  CPU 3.18 s  wall 3.55 s
 Writing REM_CC_EA            2
 ----------------------------------------------------
       Standard Nuclear Orientation (Angstroms)
    I     Atom         X            Y            Z
 ----------------------------------------------------
    1      Li      0.000000     0.000000    -0.009099
    2      F       0.000000     0.000000     1.559802
 ----------------------------------------------------
 Nuclear Repulsion Energy =     9.1068795987 hartrees
 There are        6 alpha and        6 beta electrons

                       Distance Matrix (Angstroms)
             Li(  1)
   F (  2)  1.568900
 
 Requested basis set is G3large
 There are 20 shells and 84 basis functions
 A cutoff of  1.0D-11 yielded    208 shell pairs
 There are   3686 function pairs (  4836 Cartesian)
Evaluating contribution to one-electron hamiltonian from nuclear
 Smallest overlap matrix eigenvalue = 2.11E-03
 Multipole matrices computed through 2nd order
 Guess MOs from SCF MO coefficient file
Reading MOs from coefficient file
Reading MOs from coefficient file
 An unrestricted hybrid HF-DFT SCF calculation will be
 performed using Pulay DIIS extrapolation
 Exchange:     0.2000 Hartree-Fock + 0.0800 Slater + 0.7200 Becke88
 Correlation:  0.8100 LYP + 0.1900 VWN1RPA
 Using SG-1 standard quadrature grid
 SCF converges when DIIS error is below 1.0E-08
 ---------------------------------------
  Cycle       Energy         DIIS Error
 ---------------------------------------
    1    -107.4706782196      3.99E-05
    2    -107.4711475586      2.56E-06
    3    -107.4711475621      1.81E-06
    4    -107.4711475628      1.48E-06
    5    -107.4711475639      1.30E-07
    6    -107.4711475640      1.97E-08
    7    -107.4711475640      1.02E-09 Convergence criterion met
 ---------------------------------------
 One-Electron    Energy =  -169.1872592218
 Total Coulomb   Energy =    65.0511612782
 Alpha Exchange  Energy =    -1.1938464535
 Beta  Exchange  Energy =    -1.1938464535
 DFT   Exchange  Energy =    -9.5128987558
 DFT Correlation Energy =    -0.5413375563
 Nuclear Repu.   Energy =     9.1068795987
 Nuclear Attr.   Energy =  -276.3267927292
 Kinetic         Energy =   107.1395335074
 <S^2> = 0.0000
 SCF time:  CPU 5.10 s  wall 5.23 s
 Final Alpha MO Eigenvalues
            1           2           3           4           5           6
    1 -24.5154838  -1.9910008  -1.0014855  -0.2981465  -0.2840329  -0.2840329
            7           8           9          10          11
    1  -0.0511959   0.0045910   0.0045910   0.0054086   0.0182514
 Final Beta MO Eigenvalues
            1           2           3           4           5           6
    1 -24.5154838  -1.9910008  -1.0014855  -0.2981465  -0.2840329  -0.2840329
            7           8           9          10          11
    1  -0.0511959   0.0045910   0.0045910   0.0054086   0.0182514
 Analysis of SCF Wavefunction
 
 --------------------------------------------------------------
                    Orbital Energies (a.u.)
 --------------------------------------------------------------
 
 Alpha MOs
 -- Occupied --
-24.515  -1.991  -1.001  -0.298  -0.284  -0.284
 -- Virtual --
 -0.051   0.005   0.005   0.005   0.018   0.030   0.030   0.052
  0.092   0.115   0.115   0.160   0.225   0.225   0.266   0.266
  0.277   0.333   0.359   0.359   0.442   0.442   0.463   0.534
  0.534   0.544   0.544   0.613   0.694   0.694   0.754   1.153
  1.153   1.161   1.162   1.308   1.490   1.490   1.515   2.106
  2.205   2.205   2.300   2.441   2.441   3.992   6.316   6.316
  6.346   6.761   6.761   6.766   6.773   6.773   6.777   6.810
  6.903   6.903   7.249   9.224   9.224   9.357   9.357   9.439
 19.991  20.034  21.222  21.240  21.240  50.268  50.309  50.350
 50.363  50.363  55.909  55.909  55.956  66.976
 
 Beta MOs
 -- Occupied --
-24.515  -1.991  -1.001  -0.298  -0.284  -0.284
 -- Virtual --
 -0.051   0.005   0.005   0.005   0.018   0.030   0.030   0.052
  0.092   0.115   0.115   0.160   0.225   0.225   0.266   0.266
  0.277   0.333   0.359   0.359   0.442   0.442   0.463   0.534
  0.534   0.544   0.544   0.613   0.694   0.694   0.754   1.153
  1.153   1.161   1.162   1.308   1.490   1.490   1.515   2.106
  2.205   2.205   2.300   2.441   2.441   3.992   6.316   6.316
  6.346   6.761   6.761   6.766   6.773   6.773   6.777   6.810
  6.903   6.903   7.249   9.224   9.224   9.357   9.357   9.439
 19.991  20.034  21.222  21.240  21.240  50.268  50.309  50.350
 50.363  50.363  55.909  55.909  55.956  66.976
 --------------------------------------------------------------
 
          Ground-State Mulliken Net Atomic Charges

     Atom                 Charge (a.u.)    Spin (a.u.)
  --------------------------------------------------------
      1 Li                    0.585583       0.000000
      2 F                    -0.585583       0.000000
  --------------------------------------------------------
  Sum of atomic charges =     0.000000
  Sum of spin   charges =     0.000000

 -----------------------------------------------------------------
                    Cartesian Multipole Moments
 -----------------------------------------------------------------
    Charge (ESU x 10^10)
                 0.0000
    Dipole Moment (Debye)
         X       0.0000      Y       0.0000      Z      -6.2449
       Tot       6.2449
    Quadrupole Moments (Debye-Ang)
        XX      -7.4738     XY       0.0000     YY      -7.4738
        XZ       0.0000     YZ       0.0000     ZZ     -15.6654
    Octapole Moments (Debye-Ang^2)
       XXX       0.0000    XXY       0.0000    XYY       0.0000
       YYY       0.0000    XXZ     -10.2500    XYZ       0.0000
       YYZ     -10.2500    XZZ       0.0000    YZZ       0.0000
       ZZZ     -42.0269
    Hexadecapole Moments (Debye-Ang^3)
      XXXX      -7.7865   XXXY       0.0000   XXYY      -2.5955
      XYYY       0.0000   YYYY      -7.7865   XXXZ       0.0000
      XXYZ       0.0000   XYYZ       0.0000   YYYZ       0.0000
      XXZZ     -17.6695   XYZZ       0.0000   YYZZ     -17.6695
      XZZZ       0.0000   YZZZ       0.0000   ZZZZ    -114.8771
 -----------------------------------------------------------------
 Calculating analytic gradient of the SCF energy
 Gradient of XC Energy
            1           2
    1  -0.0000000   0.0000000
    2  -0.0000000   0.0000000
    3  -0.0796566   0.0796566
 Gradient of SCF Energy
            1           2
    1   0.0000000  -0.0000000
    2   0.0000000  -0.0000000
    3  -0.0001392   0.0001392
 Max gradient component =       1.392E-04
 RMS gradient           =       8.036E-05
 Gradient time:  CPU 3.19 s  wall 3.24 s
 Writing REM_CC_EA            2
 ----------------------------------------------------
       Standard Nuclear Orientation (Angstroms)
    I     Atom         X            Y            Z
 ----------------------------------------------------
    1      Li      0.000000     0.000000    -0.008099
[...]
                 0.0000
    Dipole Moment (Debye)
         X       0.0000      Y       0.0040      Z      -6.2406
       Tot       6.2406
    Quadrupole Moments (Debye-Ang)
        XX      -7.4730     XY       0.0000     YY      -7.4730
        XZ       0.0000     YZ       0.0052     ZZ     -15.6659
    Octapole Moments (Debye-Ang^2)
       XXX       0.0000    XXY       0.0066    XYY       0.0000
       YYY       0.0197    XXZ     -10.2499    XYZ       0.0000
       YYZ     -10.2499    XZZ       0.0000    YZZ       0.0138
       ZZZ     -42.0284
    Hexadecapole Moments (Debye-Ang^3)
      XXXX      -7.7839   XXXY       0.0000   XXYY      -2.5946
      XYYY       0.0000   YYYY      -7.7839   XXXZ       0.0000
      XXYZ       0.0097   XYYZ       0.0000   YYYZ       0.0290
      XXZZ     -17.6683   XYZZ       0.0000   YYZZ     -17.6683
      XZZZ       0.0000   YZZZ       0.0396   ZZZZ    -114.8759
 -----------------------------------------------------------------
 Calculating analytic gradient of the SCF energy
 Gradient of XC Energy
            1           2
    1   0.0000000  -0.0000000
    2   0.0000497  -0.0000497
    3  -0.0796225   0.0796225
 Gradient of SCF Energy
            1           2
    1   0.0000000  -0.0000000
    2  -0.0000017   0.0000017
    3   0.0001548  -0.0001548
 Max gradient component =       1.548E-04
 RMS gradient           =       8.936E-05
 Gradient time:  CPU 3.04 s  wall 3.04 s
 Writing REM_CC_EA            2
 ----------------------------------------------------
       Standard Nuclear Orientation (Angstroms)
    I     Atom         X            Y            Z
 ----------------------------------------------------
    1      Li      0.000000     0.000000    -0.008099
    2      F       0.000000     0.000000     1.560802
 ----------------------------------------------------
 Nuclear Repulsion Energy =     9.1068795987 hartrees
 There are        6 alpha and        6 beta electrons

                       Distance Matrix (Angstroms)
             Li(  1)
   F (  2)  1.568900
 
 Requested basis set is G3large
 There are 20 shells and 84 basis functions
 A cutoff of  1.0D-11 yielded    208 shell pairs
 There are   3686 function pairs (  4836 Cartesian)
Evaluating contribution to one-electron hamiltonian from nuclear
 Smallest overlap matrix eigenvalue = 2.11E-03
 Multipole matrices computed through 2nd order
 Guess MOs from SCF MO coefficient file
Reading MOs from coefficient file
Reading MOs from coefficient file
 An unrestricted hybrid HF-DFT SCF calculation will be
 performed using Pulay DIIS extrapolation
 Exchange:     0.2000 Hartree-Fock + 0.0800 Slater + 0.7200 Becke88
 Correlation:  0.8100 LYP + 0.1900 VWN1RPA
 Using SG-1 standard quadrature grid
 SCF converges when DIIS error is below 1.0E-08
 ---------------------------------------
  Cycle       Energy         DIIS Error
 ---------------------------------------
    1    -107.4709129680      2.17E-05
    2    -107.4711475616      1.68E-06
    3    -107.4711475634      1.03E-06
    4    -107.4711475638      8.41E-07
    5    -107.4711475638      1.16E-07
    6    -107.4711475641      1.30E-08
    7    -107.4711475640      6.90E-10 Convergence criterion met
 ---------------------------------------
 One-Electron    Energy =  -169.1872592380
 Total Coulomb   Energy =    65.0511612964
 Alpha Exchange  Energy =    -1.1938464537
 Beta  Exchange  Energy =    -1.1938464537
 DFT   Exchange  Energy =    -9.5128987574
 DFT Correlation Energy =    -0.5413375563
 Nuclear Repu.   Energy =     9.1068795987
 Nuclear Attr.   Energy =  -276.3267927630
 Kinetic         Energy =   107.1395335250
 <S^2> = 0.0000
 SCF time:  CPU 5.24 s  wall 5.36 s
 Final Alpha MO Eigenvalues
            1           2           3           4           5           6
    1 -24.5154838  -1.9910008  -1.0014855  -0.2981465  -0.2840329  -0.2840329
            7           8           9          10          11
    1  -0.0511959   0.0045910   0.0045910   0.0054086   0.0182514
 Final Beta MO Eigenvalues
            1           2           3           4           5           6
    1 -24.5154838  -1.9910008  -1.0014855  -0.2981465  -0.2840329  -0.2840329
            7           8           9          10          11
    1  -0.0511959   0.0045910   0.0045910   0.0054086   0.0182514
 Analysis of SCF Wavefunction
 
 --------------------------------------------------------------
                    Orbital Energies (a.u.)
 --------------------------------------------------------------
 
 Alpha MOs
 -- Occupied --
-24.515  -1.991  -1.001  -0.298  -0.284  -0.284
 -- Virtual --
 -0.051   0.005   0.005   0.005   0.018   0.030   0.030   0.052
  0.092   0.115   0.115   0.160   0.225   0.225   0.266   0.266
  0.277   0.333   0.359   0.359   0.442   0.442   0.463   0.534
  0.534   0.544   0.544   0.613   0.694   0.694   0.754   1.153
  1.153   1.161   1.162   1.308   1.490   1.490   1.515   2.106
  2.205   2.205   2.300   2.441   2.441   3.992   6.316   6.316
  6.346   6.761   6.761   6.766   6.773   6.773   6.777   6.810
  6.903   6.903   7.249   9.224   9.224   9.357   9.357   9.439
 19.991  20.034  21.222  21.240  21.240  50.268  50.309  50.350
 50.363  50.363  55.909  55.909  55.956  66.976
 
 Beta MOs
 -- Occupied --
-24.515  -1.991  -1.001  -0.298  -0.284  -0.284
 -- Virtual --
 -0.051   0.005   0.005   0.005   0.018   0.030   0.030   0.052
  0.092   0.115   0.115   0.160   0.225   0.225   0.266   0.266
  0.277   0.333   0.359   0.359   0.442   0.442   0.463   0.534
  0.534   0.544   0.544   0.613   0.694   0.694   0.754   1.153
  1.153   1.161   1.162   1.308   1.490   1.490   1.515   2.106
  2.205   2.205   2.300   2.441   2.441   3.992   6.316   6.316
  6.346   6.761   6.761   6.766   6.773   6.773   6.777   6.810
  6.903   6.903   7.249   9.224   9.224   9.357   9.357   9.439
 19.991  20.034  21.222  21.240  21.240  50.268  50.309  50.350
 50.363  50.363  55.909  55.909  55.956  66.976
 --------------------------------------------------------------
 
          Ground-State Mulliken Net Atomic Charges

     Atom                 Charge (a.u.)    Spin (a.u.)
  --------------------------------------------------------
      1 Li                    0.585583       0.000000
      2 F                    -0.585583       0.000000
  --------------------------------------------------------
  Sum of atomic charges =     0.000000
  Sum of spin   charges =     0.000000

 -----------------------------------------------------------------
                    Cartesian Multipole Moments
 -----------------------------------------------------------------
    Charge (ESU x 10^10)
                 0.0000
    Dipole Moment (Debye)
         X       0.0000      Y       0.0000      Z      -6.2449
       Tot       6.2449
    Quadrupole Moments (Debye-Ang)
        XX      -7.4738     XY       0.0000     YY      -7.4738
        XZ       0.0000     YZ       0.0000     ZZ     -15.6779
    Octapole Moments (Debye-Ang^2)
       XXX       0.0000    XXY       0.0000    XYY       0.0000
       YYY       0.0000    XXZ     -10.2574    XYZ       0.0000
       YYZ     -10.2574    XZZ       0.0000    YZZ       0.0000
       ZZZ     -42.0739
    Hexadecapole Moments (Debye-Ang^3)
      XXXX      -7.7865   XXXY       0.0000   XXYY      -2.5955
      XYYY       0.0000   YYYY      -7.7865   XXXZ       0.0000
      XXYZ       0.0000   XYYZ       0.0000   YYYZ       0.0000
      XXZZ     -17.6900   XYZZ       0.0000   YYZZ     -17.6900
      XZZZ       0.0000   YZZZ       0.0000   ZZZZ    -115.0453
 -----------------------------------------------------------------
 Calculating analytic gradient of the SCF energy
 Gradient of XC Energy
            1           2
    1  -0.0000000   0.0000000
    2  -0.0000000   0.0000000
    3  -0.0796566   0.0796566
 Gradient of SCF Energy
            1           2
    1  -0.0000000   0.0000000
    2   0.0000000  -0.0000000
    3  -0.0001392   0.0001392
 Max gradient component =       1.392E-04
 RMS gradient           =       8.036E-05
 Gradient time:  CPU 3.19 s  wall 3.23 s
 Writing REM_CC_EA            2
 ----------------------------------------------------
       Standard Nuclear Orientation (Angstroms)
    I     Atom         X            Y            Z
 ----------------------------------------------------
    1      Li      0.000000     0.000000    -0.008099
    2      F       0.000000     0.000000     1.558802
 ----------------------------------------------------
 Nuclear Repulsion Energy =     9.1185036702 hartrees
 There are        6 alpha and        6 beta electrons

                       Distance Matrix (Angstroms)
             Li(  1)
   F (  2)  1.566900
 
 Requested basis set is G3large
 There are 20 shells and 84 basis functions
 A cutoff of  1.0D-11 yielded    208 shell pairs
 There are   3686 function pairs (  4836 Cartesian)
Evaluating contribution to one-electron hamiltonian from nuclear
 Smallest overlap matrix eigenvalue = 2.11E-03
 Multipole matrices computed through 2nd order
 Guess MOs from SCF MO coefficient file
Reading MOs from coefficient file
Reading MOs from coefficient file
 An unrestricted hybrid HF-DFT SCF calculation will be
 performed using Pulay DIIS extrapolation
 Exchange:     0.2000 Hartree-Fock + 0.0800 Slater + 0.7200 Becke88
 Correlation:  0.8100 LYP + 0.1900 VWN1RPA
 Using SG-1 standard quadrature grid
 SCF converges when DIIS error is below 1.0E-08
 ---------------------------------------
  Cycle       Energy         DIIS Error
 ---------------------------------------
    1    -107.4716162461      3.98E-05
 Info = 169

 Q-Chem warning in module diagon.C, line 98:

 Call to dsyevd failed in Diagonalize

    2    -107.4711469724      2.55E-06
    3    -107.4711469760      1.75E-06
    4    -107.4711469762      1.48E-06
    5    -107.4711469776      1.31E-07
    6    -107.4711469776      1.97E-08
    7    -107.4711469775      9.67E-10 Convergence criterion met
 ---------------------------------------
 One-Electron    Energy =  -169.2091602073
 Total Coulomb   Energy =    65.0618240585
 Alpha Exchange  Energy =    -1.1938860356
 Beta  Exchange  Energy =    -1.1938860356
 DFT   Exchange  Energy =    -9.5131724591
 DFT Correlation Energy =    -0.5413699685
 Nuclear Repu.   Energy =     9.1185036702
 Nuclear Attr.   Energy =  -276.3503993827
 Kinetic         Energy =   107.1412391753
 <S^2> = 0.0000
 SCF time:  CPU 5.22 s  wall 5.29 s
 Final Alpha MO Eigenvalues
            1           2           3           4           5           6
    1 -24.5155733  -1.9907225  -1.0016823  -0.2982963  -0.2842378  -0.2842378
            7           8           9          10          11
    1  -0.0511340   0.0046169   0.0046169   0.0054257   0.0182410
 Final Beta MO Eigenvalues
            1           2           3           4           5           6
    1 -24.5155733  -1.9907225  -1.0016823  -0.2982963  -0.2842378  -0.2842378
            7           8           9          10          11
    1  -0.0511340   0.0046169   0.0046169   0.0054257   0.0182410
 Analysis of SCF Wavefunction
 
 --------------------------------------------------------------
                    Orbital Energies (a.u.)
 --------------------------------------------------------------
 
 Alpha MOs
 -- Occupied --
-24.516  -1.991  -1.002  -0.298  -0.284  -0.284
 -- Virtual --
 -0.051   0.005   0.005   0.005   0.018   0.030   0.030   0.052
  0.092   0.115   0.115   0.160   0.226   0.226   0.266   0.266
  0.277   0.333   0.359   0.359   0.442   0.442   0.463   0.534
  0.534   0.544   0.544   0.612   0.694   0.694   0.754   1.154
  1.154   1.162   1.163   1.308   1.490   1.490   1.516   2.106
  2.206   2.206   2.298   2.443   2.443   3.997   6.316   6.316
  6.346   6.762   6.762   6.766   6.773   6.773   6.776   6.810
  6.904   6.904   7.249   9.224   9.224   9.357   9.357   9.438
 19.992  20.034  21.223  21.240  21.240  50.268  50.309  50.350
 50.363  50.363  55.909  55.909  55.956  66.976
 
 Beta MOs
 -- Occupied --
-24.516  -1.991  -1.002  -0.298  -0.284  -0.284
 -- Virtual --
 -0.051   0.005   0.005   0.005   0.018   0.030   0.030   0.052
  0.092   0.115   0.115   0.160   0.226   0.226   0.266   0.266
  0.277   0.333   0.359   0.359   0.442   0.442   0.463   0.534
  0.534   0.544   0.544   0.612   0.694   0.694   0.754   1.154
  1.154   1.162   1.163   1.308   1.490   1.490   1.516   2.106
  2.206   2.206   2.298   2.443   2.443   3.997   6.316   6.316
  6.346   6.762   6.762   6.766   6.773   6.773   6.776   6.810
  6.904   6.904   7.249   9.224   9.224   9.357   9.357   9.438
 19.992  20.034  21.223  21.240  21.240  50.268  50.309  50.350
 50.363  50.363  55.909  55.909  55.956  66.976
 --------------------------------------------------------------
 
          Ground-State Mulliken Net Atomic Charges

     Atom                 Charge (a.u.)    Spin (a.u.)
  --------------------------------------------------------
      1 Li                    0.585167       0.000000
      2 F                    -0.585167       0.000000
  --------------------------------------------------------
  Sum of atomic charges =     0.000000
  Sum of spin   charges =     0.000000

 -----------------------------------------------------------------
                    Cartesian Multipole Moments
 -----------------------------------------------------------------
    Charge (ESU x 10^10)
                 0.0000
    Dipole Moment (Debye)
         X       0.0000      Y       0.0000      Z      -6.2363
       Tot       6.2363
    Quadrupole Moments (Debye-Ang)
        XX      -7.4722     XY       0.0000     YY      -7.4722
        XZ       0.0000     YZ       0.0000     ZZ     -15.6539
    Octapole Moments (Debye-Ang^2)
       XXX       0.0000    XXY       0.0000    XYY       0.0000
       YYY       0.0000    XXZ     -10.2423    XYZ       0.0000
       YYZ     -10.2423    XZZ       0.0000    YZZ       0.0000
       ZZZ     -41.9828
    Hexadecapole Moments (Debye-Ang^3)
      XXXX      -7.7813   XXXY       0.0000   XXYY      -2.5937
      XYYY       0.0000   YYYY      -7.7813   XXXZ       0.0000
      XXYZ       0.0000   XYYZ       0.0000   YYYZ       0.0000
      XXZZ     -17.6466   XYZZ       0.0000   YYZZ     -17.6466
      XZZZ       0.0000   YZZZ       0.0000   ZZZZ    -114.7068
 -----------------------------------------------------------------
 Calculating analytic gradient of the SCF energy
 Gradient of XC Energy
            1           2
    1   0.0000000  -0.0000000
    2   0.0000000  -0.0000000
    3  -0.0795876   0.0795876
 Gradient of SCF Energy
            1           2
    1  -0.0000000   0.0000000
    2  -0.0000000   0.0000000
    3   0.0004505  -0.0004505
 Max gradient component =       4.505E-04
 RMS gradient           =       2.601E-04
 Gradient time:  CPU 2.99 s  wall 3.03 s
Dipole drv :
gprntSymmMtrx error report: 
 Final Hessian.
            1           2           3           4           5           6
    1  -0.0009095   0.0000000   0.0000000   0.0009095  -0.0000000   0.0000000
    2   0.0000000  -0.0009095  -0.0000000   0.0000000   0.0009095   0.0000000
    3   0.0000000  -0.0000000   0.1560249   0.0000000   0.0000000  -0.1560249
    4   0.0009095   0.0000000   0.0000000  -0.0009096   0.0000000   0.0000000
    5  -0.0000000   0.0009095   0.0000000   0.0000000  -0.0009095  -0.0000000
    6   0.0000000   0.0000000  -0.1560249   0.0000000  -0.0000000   0.1560250
 Writing REM_CC_EA            2
 ----------------------------------------------------
       Standard Nuclear Orientation (Angstroms)
    I     Atom         X            Y            Z
 ----------------------------------------------------
    1      Li      0.000000     0.000000    -0.008099
    2      F       0.000000     0.000000     1.559802
 ----------------------------------------------------
 Nuclear Repulsion Energy =     9.1126879275 hartrees
 There are        6 alpha and        6 beta electrons
 old dipole drv.
            1           2           3           4           5           6
    1   0.8277239  -0.0000020  -0.0000006  -0.8277263   0.0000021   0.0000007
    2  -0.0000001   0.8277240  -0.0000009  -0.0000003  -0.8277244   0.0000009
    3  -0.0000001  -0.0000000   0.8938087  -0.0000010  -0.0000000  -0.8938087
 New transposed dipole drv.
            1           2           3
    1   0.8277239  -0.0000001  -0.0000001
    2  -0.0000020   0.8277240  -0.0000000
    3  -0.0000006  -0.0000009   0.8938087
    4  -0.8277263  -0.0000003  -0.0000010
    5   0.0000021  -0.8277244  -0.0000000
    6   0.0000007   0.0000009  -0.8938087
FINAL TENSOR RESULT:
Order 2, Length 6
Order 1, Length 6
  -0.0009095   0.0000000   0.0000000   0.0009095  -0.0000000   0.0000000
Order 1, Length 6
   0.0000000  -0.0009095  -0.0000000   0.0000000   0.0009095   0.0000000
Order 1, Length 6
   0.0000000  -0.0000000   0.1560249   0.0000000   0.0000000  -0.1560249
Order 1, Length 6
   0.0009095   0.0000000   0.0000000  -0.0009096   0.0000000   0.0000000
Order 1, Length 6
  -0.0000000   0.0009095   0.0000000   0.0000000  -0.0009095  -0.0000000
Order 1, Length 6
   0.0000000   0.0000000  -0.1560249   0.0000000  -0.0000000   0.1560250


 # Finishing finite difference calculation for IDERIV #
 ######################################################
 ######################################################
 Requested basis set is G3large
 There are 20 shells and 84 basis functions
 **********************************************************************
 **                                                                  **
 **                       VIBRATIONAL ANALYSIS                       **
 **                       --------------------                       **
 **                                                                  **
 **        VIBRATIONAL FREQUENCIES (CM**-1) AND NORMAL MODES         **
 **     FORCE CONSTANTS (mDYN/ANGSTROM) AND REDUCED MASSES (AMU)     **
 **                  INFRARED INTENSITIES (KM/MOL)                   **
 **                                                                  **
 **********************************************************************
 

 Mode:                 1
 Frequency:       897.03
 Force Cnst:      4.0080
 Red. Mass:       8.4540
 IR Active:          YES
 IR Intens:      152.039
 Raman Active:       YES
               X      Y      Z
 Li         0.000  0.000  0.938
 F          0.000  0.000 -0.346
 TransDip   0.000  0.000  0.395

 STANDARD THERMODYNAMIC QUANTITIES AT   298.18 K  AND     1.00 ATM

   This Molecule has  0 Imaginary Frequencies
   Zero point vibrational energy:        1.282 kcal/mol

   Atom    1 Element Li Has Mass    7.01600
   Atom    2 Element F  Has Mass   18.99840
   Molecular Mass:    26.014400 amu
   Principal axes and moments of inertia in atomic units:
                             1           2           3
    Eigenvalues --        0.00000    44.98082    44.98082
          X               0.00000     0.00000     1.00000
          Y               0.00000     1.00000     0.00000
          Z               1.00000     0.00000     0.00000
   Rotational Symmetry Number is   1
   The Molecule is a Symmetric Top
   Translational Enthalpy:        0.889 kcal/mol
   Rotational Enthalpy:           0.889 kcal/mol
   Vibrational Enthalpy:          1.317 kcal/mol
   gas constant (RT):             0.593 kcal/mol
   Translational Entropy:        35.705  cal/mol.K
   Rotational Entropy:          -42.776  cal/mol.K
   Vibrational Entropy:           0.141  cal/mol.K

   Total Enthalpy:                3.687 kcal/mol
   Total Entropy:                -6.930  cal/mol.K
 Total job time:  102.72s(wall), 99.87s(cpu) 
 Wed Jul 24 16:01:00 2013

        *************************************************************
        *                                                           *
        *  Thank you very much for using Q-Chem.  Have a nice day.  *
        *                                                           *
        *************************************************************


0 sent ACK to 0 
now end server 0 ... 
