Process 0 of 1 is on cl117.stfx.acenet.ca - thread support 1
initial socket setup ...start
initial socket setup ...done 
now start server 0 ... 

cmd = /usr/bin/ssh clhead /usr/local/qchem/bin/get_hostid 1950952149 > /scratch/tmp/6067102.1.short.q/qchem28235/lic.dat
                  Welcome to Q-Chem
     A Quantum Leap Into The Future Of Chemistry

 Y. Shao, L. Fusti-Molnar, Y. Jung, J. Kussmann, C. Ochsenfeld,
 S. T. Brown, A. T. B. Gilbert, L. V. Slipchenko,S. V. Levchenko,
 D. P. O'Neill, R. A. DiStasio Jr., R. C. Lochan, T. Wang,
 G. J. O. Beran, N. A. Besley, J. M. Herbert, C. Y. Lin,
 T. Van Voorhis, S. H. Chien, A. Sodt, R. P. Steele, 
 V. A. Rassolov, P. E. Maslen, P. P. Korambath, R. D. Adamson,
 B. Austin, J. Baker, E. F. C. Byrd, H. Dachsel, R. J. Doerksen,
 A. Dreuw, B. D. Dunietz, A. D. Dutoi, T. R. Furlani,
 S. R. Gwaltney, A. Heyden, S. Hirata, C.-P. Hsu, G. Kedziora,
 R. Z. Khaliullin, P. Klunzinger, A. M. Lee, M. S. Lee, W. Liang,
 I. Lotan, N. Nair, B. Peters, E. I. Proynov, P. A. Pieniazek, 
 Y. M. Rhee, J. Ritchie, E. Rosta, C. D. Sherrill, 
 A. C. Simmonett, J. E. Subotnik, H. L. Woodcock III,
 W. Zhang, A. T. Bell, A. K. Chakraborty, D. M. Chipman,
 F. J. Keil, A. Warshel, W. J. Hehre, H. F. Schaefer III,
 J. Kong, A. I. Krylov, P. M. W. Gill, M. Head-Gordon,
 Q-Chem, Version 3.1, Q-Chem, Inc., Pittsburgh, PA (2007).

 Additional authors for Version 3.1: 
 Z. Gan, Y. Zhao, N. E. Schultz, D. Truhlar, E. Epifanovsky and M. Oana.

 Additional authors for Version 3.2: 
 R. Baer, B. R. Brooks, D. Casanova, J.-D. Chai, C.-L. Cheng, 
 C. Cramer, D. Crittenden, A. Ghysels, G. Hawkins, E. G. Hohenstein, 
 C. Kelley, W. Kurlancheek, D. Liotard, E. Livshits, P. Manohar, 
 A. Marenich, D. Neuhauser, R. Olson, M. A. Rohrdanz, K. S. Thanthiriwatte, 
 A. J. W. Thom, V. Vanovschi, C. F. Williams, Q. Wu and Z.-Q. You. 


 Intel X86 Linux Version

 Q-chem begins on Wed Jul 24 15:58:53 2013  

 Parallel job on  1  processors
Processing $rem in /usr/local/qchem/config/preferences.

theFileMan(): MAXOPENFILES=974 MAX_SUB_FILE_NUM=16
Maximum size of a physical file is 2.0 GB, maximum size of a tmp-file is 32.0 GB


--------------------------------------------------------------
User input:
--------------------------------------------------------------

$molecule
0,1
C
C,1,r1
F,1,R,2,A
F,1,R,2,A,3,120.,0
F,1,R,2,A,3,-120.,0
X,2,1.,1,90.,3,0.,0
N,2,r2,6,90.,1,180.,0

 r1=1.48324112
 r2=1.15763812
 R=1.338444
 A=110.04808494

$end


$comment
b3lyp opt
$end

$rem
   EXCHANGE B3LYP
   UNRESTRICTED TRUE
   SYMMETRY_DECOMPOSITION	0
   BASIS                   g3large
   JOBTYPE                 opt
   mem_static              760
   max_scf_cycles          200
   scf_final_print         1
   sym_ignore              true
$end


--------------------------------------------------------------
 Writing REM_CC_EA            6
 ----------------------------------------------------
       Standard Nuclear Orientation (Angstroms)
    I     Atom         X            Y            Z
 ----------------------------------------------------
    1      C       0.000000     0.000000     0.000000
    2      C       0.000000     0.000000     1.483241
    3      F       1.257341     0.000000    -0.458830
    4      F      -0.628671    -1.088890    -0.458830
    5      F      -0.628671     1.088890    -0.458830
    6      N       0.000000     0.000000     2.640879
 ----------------------------------------------------
 Nuclear Repulsion Energy =   230.5082396261 hartrees
 There are       23 alpha and       23 beta electrons
 Requested basis set is G3large
 There are 60 shells and 252 basis functions

Total QAlloc Memory Limit   2000 MB
Mega-Array Size       743 MB
MEM_STATIC part       760 MB
 A cutoff of  1.0D-11 yielded   1552 shell pairs
 There are  28343 function pairs ( 37115 Cartesian)
Evaluating contribution to one-electron hamiltonian from nuclear
 Smallest overlap matrix eigenvalue = 4.64E-05
 Multipole matrices computed through 2nd order

  Scale SEOQF with 1.000000e-01/1.000000e-01/1.000000e-01

 Standard Electronic Orientation quadrupole field applied
 Nucleus-field energy     =    -0.0000000050 hartrees
 Guess from superposition of atomic densities
 Warning:  Energy on first SCF cycle will be non-variational
 An unrestricted hybrid HF-DFT SCF calculation will be
 performed using Pulay DIIS extrapolation
 Exchange:     0.2000 Hartree-Fock + 0.0800 Slater + 0.7200 Becke88
 Correlation:  0.8100 LYP + 0.1900 VWN1RPA
 Using SG-1 standard quadrature grid
 SCF converges when DIIS error is below 1.0E-08
 ---------------------------------------
  Cycle       Energy         DIIS Error
 ---------------------------------------
    1    -431.5568960705      2.92E-02
    2    -430.4557740687      5.30E-03
    3    -429.9978401749      1.01E-02
    4    -430.5839864623      2.08E-03
    5    -430.6101803515      6.67E-04
    6    -430.6126989312      1.53E-04
    7    -430.6128293404      3.38E-05
    8    -430.6128347222      1.34E-05
    9    -430.6128355738      3.83E-06
   10    -430.6128354840      7.52E-07
   11    -430.6128355537      1.08E-07
   12    -430.6128355208      2.63E-08
   13    -430.6128355275      1.63E-08
   14    -430.6128355280      5.01E-09 Convergence criterion met
 ---------------------------------------
 One-Electron    Energy = -1051.0539493725
 Total Coulomb   Energy =   439.0217749395
 Alpha Exchange  Energy =    -4.7046601020
 Beta  Exchange  Energy =    -4.7046601020
 DFT   Exchange  Energy =   -37.5198169661
 DFT Correlation Energy =    -2.1597635462
 Nuclear Repu.   Energy =   230.5082396211
 Nuclear Attr.   Energy = -1480.3860232197
 Kinetic         Energy =   429.3320738472
 <S^2> = 0.0000
 SCF time:  CPU 272.17 s  wall 273.24 s
 Final Alpha MO Eigenvalues
            1           2           3           4           5           6
    1 -24.7629827 -24.7629815 -24.7629524 -14.3794630 -10.5034339 -10.2672634
            7           8           9          10          11          12
    1  -1.3731168  -1.2844604  -1.2844444  -0.9652795  -0.8064351  -0.6889700
           13          14          15          16          17          18
    1  -0.6530115  -0.6530088  -0.5245628  -0.5245576  -0.4916614  -0.4916564
           19          20          21          22          23          24
    1  -0.4863042  -0.4664482  -0.4199312  -0.4000778  -0.4000771  -0.0499684
           25          26          27          28
    1  -0.0499637  -0.0049340   0.0299280   0.0504570
 Final Beta MO Eigenvalues
            1           2           3           4           5           6
    1 -24.7629827 -24.7629815 -24.7629524 -14.3794630 -10.5034339 -10.2672634
            7           8           9          10          11          12
    1  -1.3731168  -1.2844604  -1.2844444  -0.9652795  -0.8064351  -0.6889700
           13          14          15          16          17          18
    1  -0.6530115  -0.6530088  -0.5245628  -0.5245576  -0.4916614  -0.4916564
           19          20          21          22          23          24
    1  -0.4863042  -0.4664482  -0.4199312  -0.4000778  -0.4000771  -0.0499684
           25          26          27          28
    1  -0.0499637  -0.0049340   0.0299280   0.0504570
 Analysis of SCF Wavefunction
 
 --------------------------------------------------------------
                    Orbital Energies (a.u.)
 --------------------------------------------------------------
 
 Alpha MOs
 -- Occupied --
-24.763 -24.763 -24.763 -14.379 -10.503 -10.267  -1.373  -1.284
 -1.284  -0.965  -0.806  -0.689  -0.653  -0.653  -0.525  -0.525
 -0.492  -0.492  -0.486  -0.466  -0.420  -0.400  -0.400
 -- Virtual --
 -0.050  -0.050  -0.005   0.030   0.050   0.051   0.081   0.086
  0.086   0.103   0.153   0.153   0.155   0.167   0.200   0.200
  0.223   0.223   0.235   0.243   0.257   0.293   0.293   0.298
  0.330   0.330   0.338   0.358   0.377   0.377   0.517   0.517
  0.518   0.599   0.599   0.600   0.671   0.702   0.702   0.790
  0.792   0.792   0.823   0.823   0.866   0.916   1.058   1.058
  1.187   1.187   1.202   1.232   1.232   1.280   1.280   1.314
  1.341   1.347   1.347   1.348   1.430   1.430   1.443   1.663
  1.663   1.804   1.853   1.889   1.889   1.928   1.928   2.010
  2.032   2.044   2.044   2.062   2.229   2.262   2.262   2.449
  2.505   2.505   2.583   2.583   2.671   2.682   2.682   2.708
  2.724   2.804   2.962   2.962   3.129   3.129   3.161   3.180
  3.180   3.243   3.243   3.373   3.381   3.381   3.527   3.562
  3.562   3.590   3.612   3.651   3.666   3.694   3.694   3.881
  3.881   4.034   4.129   4.129   4.183   4.183   4.403   4.403
  4.454   4.763   4.763   4.904   5.154   5.154   5.881   5.955
  5.956   6.112   6.112   6.185   6.217   6.217   6.220   6.427
  6.534   6.538   6.538   6.548   6.554   6.554   6.584   6.602
  6.602   6.638   6.638   6.673   6.737   6.737   6.760   6.915
  6.915   7.085   7.236   7.236   7.359   7.376   7.613   7.613
  8.996   8.996   8.998   9.114   9.114   9.177   9.335   9.425
  9.425   9.501   9.688   9.826   9.826  10.038  10.038  24.359
 24.637  27.367  27.367  27.708  27.805  27.805  29.007  36.139
 37.598  37.598  38.321  40.416  40.516  40.560  40.644  40.645
 40.726  40.820  40.879  40.890  40.981  41.053  41.063  41.251
 41.251  41.588  50.035  50.044  50.061  50.095  50.100  50.102
 50.156  50.210  50.214  50.256  50.342  50.366  50.378  50.418
 50.435  55.670  55.670  55.741  55.741  55.743  55.744  56.055
 56.214  56.214  66.783  66.783  66.825
 
 Beta MOs
 -- Occupied --
-24.763 -24.763 -24.763 -14.379 -10.503 -10.267  -1.373  -1.284
 -1.284  -0.965  -0.806  -0.689  -0.653  -0.653  -0.525  -0.525
 -0.492  -0.492  -0.486  -0.466  -0.420  -0.400  -0.400
 -- Virtual --
 -0.050  -0.050  -0.005   0.030   0.050   0.051   0.081   0.086
  0.086   0.103   0.153   0.153   0.155   0.167   0.200   0.200
  0.223   0.223   0.235   0.243   0.257   0.293   0.293   0.298
  0.330   0.330   0.338   0.358   0.377   0.377   0.517   0.517
  0.518   0.599   0.599   0.600   0.671   0.702   0.702   0.790
  0.792   0.792   0.823   0.823   0.866   0.916   1.058   1.058
  1.187   1.187   1.202   1.232   1.232   1.280   1.280   1.314
  1.341   1.347   1.347   1.348   1.430   1.430   1.443   1.663
  1.663   1.804   1.853   1.889   1.889   1.928   1.928   2.010
  2.032   2.044   2.044   2.062   2.229   2.262   2.262   2.449
  2.505   2.505   2.583   2.583   2.671   2.682   2.682   2.708
  2.724   2.804   2.962   2.962   3.129   3.129   3.161   3.180
  3.180   3.243   3.243   3.373   3.381   3.381   3.527   3.562
  3.562   3.590   3.612   3.651   3.666   3.694   3.694   3.881
  3.881   4.034   4.129   4.129   4.183   4.183   4.403   4.403
  4.454   4.763   4.763   4.904   5.154   5.154   5.881   5.955
  5.956   6.112   6.112   6.185   6.217   6.217   6.220   6.427
  6.534   6.538   6.538   6.548   6.554   6.554   6.584   6.602
  6.602   6.638   6.638   6.673   6.737   6.737   6.760   6.915
  6.915   7.085   7.236   7.236   7.359   7.376   7.613   7.613
  8.996   8.996   8.998   9.114   9.114   9.177   9.335   9.425
  9.425   9.501   9.688   9.826   9.826  10.038  10.038  24.359
 24.637  27.367  27.367  27.708  27.805  27.805  29.007  36.139
 37.598  37.598  38.321  40.416  40.516  40.560  40.644  40.645
 40.726  40.820  40.879  40.890  40.981  41.053  41.063  41.251
 41.251  41.588  50.035  50.044  50.061  50.095  50.100  50.102
 50.156  50.210  50.214  50.256  50.342  50.366  50.378  50.418
 50.435  55.670  55.670  55.741  55.741  55.743  55.744  56.055
 56.214  56.214  66.783  66.783  66.825
 --------------------------------------------------------------
 
          Ground-State Mulliken Net Atomic Charges

     Atom                 Charge (a.u.)    Spin (a.u.)
  --------------------------------------------------------
      1 C                     0.427452       0.000000
      2 C                     0.267330       0.000000
      3 F                    -0.156090       0.000000
      4 F                    -0.155814       0.000000
      5 F                    -0.155814       0.000000
      6 N                    -0.227064       0.000000
  --------------------------------------------------------
  Sum of atomic charges =     0.000000
  Sum of spin   charges =     0.000000

 -----------------------------------------------------------------
                    Cartesian Multipole Moments
 -----------------------------------------------------------------
    Charge (ESU x 10^10)
                 0.0000
    Dipole Moment (Debye)
         X       0.0000      Y       0.0000      Z      -1.2970
       Tot       1.2970
    Quadrupole Moments (Debye-Ang)
        XX     -31.6542     XY       0.0000     YY     -31.6530
        XZ       0.0002     YZ       0.0000     ZZ     -38.6224
    Octapole Moments (Debye-Ang^2)
       XXX      -0.8513    XXY       0.0000    XYY       0.8526
       YYY       0.0000    XXZ     -15.3719    XYZ       0.0000
       YYZ     -15.3721    XZZ       0.0001    YZZ       0.0000
       ZZZ     -74.5950
    Hexadecapole Moments (Debye-Ang^3)
      XXXX     -94.3305   XXXY       0.0000   XXYY     -31.4416
      XYYY       0.0000   YYYY     -94.3261   XXXZ      -0.1039
      XXYZ       0.0000   XYYZ       0.1050   YYYZ       0.0000
      XXZZ     -74.7137   XYZZ       0.0000   YYZZ     -74.7134
      XZZZ      -0.0008   YZZZ       0.0000   ZZZZ    -436.4815
 -----------------------------------------------------------------
 Calculating analytic gradient of the SCF energy
 Gradient of XC Energy
            1           2           3           4           5           6
    1   0.0008165   0.0000738   0.2616510  -0.1311898  -0.1311898  -0.0001618
    2   0.0000000   0.0000000  -0.0000000  -0.2266393   0.2266393  -0.0000000
    3  -0.0132831  -0.2537569  -0.0846386  -0.0845382  -0.0845382   0.5207551
 Gradient of SCF Energy
            1           2           3           4           5           6
    1   0.0002290   0.0000016   0.0045876  -0.0024113  -0.0024113   0.0000045
    2   0.0000000  -0.0000000  -0.0000000  -0.0039973   0.0039973   0.0000000
    3  -0.0016501  -0.0251246   0.0000506   0.0001452   0.0001452   0.0264338
 Max gradient component =       2.643E-02
 RMS gradient           =       8.811E-03
 Gradient time:  CPU 98.92 s  wall 99.33 s
 Geometry Optimization Parameters
   NAtoms,    NIC,     NZ,  NCons,   NDum,   NFix, NCnnct, MaxDiis
        6      27       7       0       0       0       0       0


** GEOMETRY OPTIMIZATION IN DELOCALIZED INTERNAL COORDINATES **
   Searching for a Minimum

   Optimization Cycle:   1

                       Coordinates (Angstroms)
     ATOM              X           Y           Z
    1  C           0.000000    0.000000    0.000000
    2  C           0.000000    0.000000    1.483241
    3  F           1.257341    0.000000   -0.458830
    4  F          -0.628671   -1.088890   -0.458830
    5  F          -0.628671    1.088890   -0.458830
    6  N           0.000000    0.000000    2.640879
   Point Group: c1    Number of degrees of freedom:  12


   Energy is   -430.612835528


 Attempting to Generate Delocalized Internal Coordinates

 12 Hessian modes will be used to form the next step
  Hessian Eigenvalues:
     0.200000    0.200000    0.250000    0.250000    0.250000    0.250000
     0.250000    0.342011    0.575551    0.575551    0.575551    1.293519

 Minimum Search - Taking Simple RFO Step
 Searching for Lamda that Minimizes Along All modes
 Value Taken    Lamda =  -0.00075116
 Step Taken.  Stepsize is  0.032131

                             Maximum     Tolerance    Cnvgd?
         Gradient           0.017824      0.000300      NO
         Displacement       0.025912      0.001200      NO
         Energy change     *********      0.000001      NO


 New Cartesian Coordinates Obtained by Inverse Iteration

 Displacement from previous Coordinates is:  0.032443
 Writing REM_CC_EA            6
 ----------------------------------------------------
       Standard Nuclear Orientation (Angstroms)
    I     Atom         X            Y            Z
 ----------------------------------------------------
    1      C      -0.000458     0.000000     0.007019
    2      C      -0.000051     0.000000     1.488239
    3      F       1.249526     0.000000    -0.460328
    4      F      -0.624732    -1.082530    -0.461185
    5      F      -0.624732     1.082530    -0.461185
    6      N       0.000447     0.000000     2.635069
 ----------------------------------------------------
 Nuclear Repulsion Energy =   231.3240300146 hartrees
 There are       23 alpha and       23 beta electrons
 Applying Cartesian multipole field
    Component          Value
    ---------          -----
     (2,0,0)        1.00000E-11
     (0,2,0)        2.00000E-11
     (0,0,2)       -3.00000E-11
 Nucleus-field energy     =    -0.0000000050 hartrees
 Requested basis set is G3large
 There are 60 shells and 252 basis functions
 A cutoff of  1.0D-11 yielded   1553 shell pairs
 There are  28368 function pairs ( 37151 Cartesian)
Evaluating contribution to one-electron hamiltonian from nuclear
 Smallest overlap matrix eigenvalue = 4.59E-05
 Multipole matrices computed through 2nd order
 Guess MOs from SCF MO coefficient file
Reading MOs from coefficient file
Reading MOs from coefficient file
 An unrestricted hybrid HF-DFT SCF calculation will be
 performed using Pulay DIIS extrapolation
 Exchange:     0.2000 Hartree-Fock + 0.0800 Slater + 0.7200 Becke88
 Correlation:  0.8100 LYP + 0.1900 VWN1RPA
 Using SG-1 standard quadrature grid
 SCF converges when DIIS error is below 1.0E-08
 ---------------------------------------
  Cycle       Energy         DIIS Error
 ---------------------------------------
    1    -430.6195279495      4.35E-04
    2    -430.6131133380      1.11E-04
    3    -430.6129393856      2.02E-04
    4    -430.6131810188      4.45E-05
    5    -430.6131934254      1.16E-05
    6    -430.6131938600      2.83E-06
    7    -430.6131938775      2.66E-07
    8    -430.6131938638      1.29E-07
    9    -430.6131938785      3.15E-08
   10    -430.6131938738      1.41E-08
   11    -430.6131938741      1.64E-09 Convergence criterion met
 ---------------------------------------
 One-Electron    Energy = -1052.6704344785
 Total Coulomb   Energy =   439.8434417538
 Alpha Exchange  Energy =    -4.7070538305
 Beta  Exchange  Energy =    -4.7070538305
 DFT   Exchange  Energy =   -37.5353091638
 DFT Correlation Energy =    -2.1608143343
 Nuclear Repu.   Energy =   231.3240300096
 Nuclear Attr.   Energy = -1482.0921024344
 Kinetic         Energy =   429.4216679559
 <S^2> = 0.0000
 SCF time:  CPU 208.35 s  wall 208.55 s
 Final Alpha MO Eigenvalues
            1           2           3           4           5           6
    1 -24.7618942 -24.7618928 -24.7617523 -14.3770987 -10.5019976 -10.2648983
            7           8           9          10          11          12
    1  -1.3755012  -1.2845294  -1.2844023  -0.9697825  -0.8065108  -0.6901450
           13          14          15          16          17          18
    1  -0.6533595  -0.6532964  -0.5247735  -0.5247481  -0.4904365  -0.4903715
           19          20          21          22          23          24
    1  -0.4868389  -0.4650770  -0.4198380  -0.4031068  -0.4030930  -0.0476190
           25          26          27          28
    1  -0.0476062  -0.0043725   0.0305127   0.0505446
 Final Beta MO Eigenvalues
            1           2           3           4           5           6
    1 -24.7618942 -24.7618928 -24.7617523 -14.3770987 -10.5019976 -10.2648983
            7           8           9          10          11          12
    1  -1.3755012  -1.2845294  -1.2844023  -0.9697825  -0.8065108  -0.6901450
           13          14          15          16          17          18
    1  -0.6533595  -0.6532964  -0.5247735  -0.5247481  -0.4904365  -0.4903715
           19          20          21          22          23          24
    1  -0.4868389  -0.4650770  -0.4198380  -0.4031068  -0.4030930  -0.0476190
           25          26          27          28
    1  -0.0476062  -0.0043725   0.0305127   0.0505446
 Analysis of SCF Wavefunction
 
 --------------------------------------------------------------
                    Orbital Energies (a.u.)
 --------------------------------------------------------------
 
 Alpha MOs
 -- Occupied --
-24.762 -24.762 -24.762 -14.377 -10.502 -10.265  -1.376  -1.285
 -1.284  -0.970  -0.807  -0.690  -0.653  -0.653  -0.525  -0.525
 -0.490  -0.490  -0.487  -0.465  -0.420  -0.403  -0.403
 -- Virtual --
 -0.048  -0.048  -0.004   0.031   0.051   0.051   0.081   0.086
  0.086   0.105   0.155   0.155   0.159   0.173   0.200   0.201
  0.224   0.225   0.236   0.243   0.258   0.293   0.293   0.298
  0.330   0.330   0.338   0.359   0.378   0.378   0.516   0.516
  0.523   0.600   0.600   0.601   0.671   0.701   0.701   0.792
  0.794   0.794   0.824   0.824   0.866   0.926   1.060   1.060
  1.186   1.186   1.203   1.238   1.239   1.279   1.279   1.319
  1.342   1.348   1.348   1.348   1.431   1.432   1.444   1.665
  1.665   1.809   1.854   1.895   1.895   1.930   1.931   2.016
  2.034   2.052   2.052   2.074   2.231   2.264   2.264   2.460
  2.506   2.506   2.584   2.584   2.673   2.682   2.683   2.705
  2.728   2.801   2.963   2.964   3.130   3.131   3.166   3.179
  3.179   3.258   3.258   3.378   3.380   3.380   3.526   3.569
  3.570   3.591   3.613   3.654   3.669   3.703   3.704   3.890
  3.890   4.046   4.132   4.132   4.193   4.193   4.423   4.423
  4.470   4.766   4.766   4.906   5.159   5.159   5.916   5.994
  5.994   6.116   6.116   6.183   6.219   6.219   6.225   6.435
  6.537   6.538   6.538   6.548   6.554   6.554   6.586   6.604
  6.604   6.638   6.638   6.690   6.743   6.743   6.770   6.933
  6.933   7.096   7.251   7.252   7.370   7.373   7.636   7.637
  8.998   8.998   9.003   9.120   9.120   9.178   9.338   9.427
  9.428   9.514   9.696   9.838   9.839  10.041  10.042  24.376
 24.670  27.372  27.373  27.720  27.806  27.806  29.036  36.170
 37.614  37.614  38.343  40.419  40.519  40.566  40.650  40.651
 40.729  40.823  40.883  40.893  40.990  41.059  41.068  41.267
 41.267  41.623  50.037  50.046  50.064  50.097  50.102  50.104
 50.159  50.212  50.215  50.262  50.346  50.371  50.382  50.421
 50.437  55.672  55.672  55.744  55.744  55.745  55.747  56.062
 56.226  56.226  66.786  66.786  66.827
 
 Beta MOs
 -- Occupied --
-24.762 -24.762 -24.762 -14.377 -10.502 -10.265  -1.376  -1.285
 -1.284  -0.970  -0.807  -0.690  -0.653  -0.653  -0.525  -0.525
 -0.490  -0.490  -0.487  -0.465  -0.420  -0.403  -0.403
 -- Virtual --
 -0.048  -0.048  -0.004   0.031   0.051   0.051   0.081   0.086
  0.086   0.105   0.155   0.155   0.159   0.173   0.200   0.201
  0.224   0.225   0.236   0.243   0.258   0.293   0.293   0.298
  0.330   0.330   0.338   0.359   0.378   0.378   0.516   0.516
  0.523   0.600   0.600   0.601   0.671   0.701   0.701   0.792
  0.794   0.794   0.824   0.824   0.866   0.926   1.060   1.060
  1.186   1.186   1.203   1.238   1.239   1.279   1.279   1.319
  1.342   1.348   1.348   1.348   1.431   1.432   1.444   1.665
  1.665   1.809   1.854   1.895   1.895   1.930   1.931   2.016
  2.034   2.052   2.052   2.074   2.231   2.264   2.264   2.460
  2.506   2.506   2.584   2.584   2.673   2.682   2.683   2.705
  2.728   2.801   2.963   2.964   3.130   3.131   3.166   3.179
  3.179   3.258   3.258   3.378   3.380   3.380   3.526   3.569
  3.570   3.591   3.613   3.654   3.669   3.703   3.704   3.890
  3.890   4.046   4.132   4.132   4.193   4.193   4.423   4.423
  4.470   4.766   4.766   4.906   5.159   5.159   5.916   5.994
  5.994   6.116   6.116   6.183   6.219   6.219   6.225   6.435
  6.537   6.538   6.538   6.548   6.554   6.554   6.586   6.604
  6.604   6.638   6.638   6.690   6.743   6.743   6.770   6.933
  6.933   7.096   7.251   7.252   7.370   7.373   7.636   7.637
  8.998   8.998   9.003   9.120   9.120   9.178   9.338   9.427
  9.428   9.514   9.696   9.838   9.839  10.041  10.042  24.376
 24.670  27.372  27.373  27.720  27.806  27.806  29.036  36.170
 37.614  37.614  38.343  40.419  40.519  40.566  40.650  40.651
 40.729  40.823  40.883  40.893  40.990  41.059  41.068  41.267
 41.267  41.623  50.037  50.046  50.064  50.097  50.102  50.104
 50.159  50.212  50.215  50.262  50.346  50.371  50.382  50.421
 50.437  55.672  55.672  55.744  55.744  55.745  55.747  56.062
 56.226  56.226  66.786  66.786  66.827
 --------------------------------------------------------------
 
          Ground-State Mulliken Net Atomic Charges

     Atom                 Charge (a.u.)    Spin (a.u.)
  --------------------------------------------------------
      1 C                     0.424340       0.000000
      2 C                     0.277994       0.000000
      3 F                    -0.157814       0.000000
      4 F                    -0.157523       0.000000
      5 F                    -0.157523       0.000000
      6 N                    -0.229473       0.000000
  --------------------------------------------------------
  Sum of atomic charges =     0.000000
  Sum of spin   charges =     0.000000

 -----------------------------------------------------------------
                    Cartesian Multipole Moments
 -----------------------------------------------------------------
    Charge (ESU x 10^10)
                 0.0000
    Dipole Moment (Debye)
         X      -0.0027      Y       0.0000      Z      -1.2538
       Tot       1.2538
    Quadrupole Moments (Debye-Ang)
        XX     -31.6012     XY       0.0000     YY     -31.5996
        XZ      -0.0020     YZ       0.0000     ZZ     -38.5859
    Octapole Moments (Debye-Ang^2)
       XXX      -0.8641    XXY       0.0000    XYY       0.8627
       YYY       0.0000    XXZ     -15.2879    XYZ       0.0000
       YYZ     -15.2881    XZZ      -0.0058    YZZ       0.0000
       ZZZ     -74.5254
    Hexadecapole Moments (Debye-Ang^3)
      XXXX     -93.4273   XXXY       0.0000   XXYY     -31.1502
      XYYY       0.0000   YYYY     -93.4704   XXXZ      -0.1448
      XXYZ       0.0000   XYYZ       0.0999   YYYZ       0.0000
      XXZZ     -74.2847   XYZZ       0.0000   YYZZ     -74.2913
      XZZZ      -0.0521   YZZZ       0.0000   ZZZZ    -435.8534
 -----------------------------------------------------------------
 Calculating analytic gradient of the SCF energy
 Gradient of XC Energy
            1           2           3           4           5           6
    1   0.0004358  -0.0000382   0.2603934  -0.1304362  -0.1304362   0.0000815
    2   0.0000000   0.0000000   0.0000000  -0.2257067   0.2257067   0.0000000
    3  -0.0041838  -0.2506742  -0.0882904  -0.0884265  -0.0884265   0.5200015
 Gradient of SCF Energy
            1           2           3           4           5           6
    1   0.0000656   0.0001100  -0.0007662   0.0002946   0.0002945   0.0000016
    2  -0.0000000   0.0000000  -0.0000000   0.0004494  -0.0004494  -0.0000000
    3   0.0019594  -0.0006937  -0.0008909  -0.0008768  -0.0008768   0.0013790
 Max gradient component =       1.959E-03
 RMS gradient           =       7.354E-04
 Gradient time:  CPU 120.47 s  wall 120.53 s
 Geometry Optimization Parameters
   NAtoms,    NIC,     NZ,  NCons,   NDum,   NFix, NCnnct, MaxDiis
        6      27       7       0       0       0       0       0

 Cartesian Hessian Update
 Hessian Updated using BFGS Update


** GEOMETRY OPTIMIZATION IN DELOCALIZED INTERNAL COORDINATES **
   Searching for a Minimum

   Optimization Cycle:   2

                       Coordinates (Angstroms)
     ATOM              X           Y           Z
    1  C          -0.000458    0.000000    0.007019
    2  C          -0.000051    0.000000    1.488239
    3  F           1.249526    0.000000   -0.460328
    4  F          -0.624732   -1.082530   -0.461185
    5  F          -0.624732    1.082530   -0.461185
    6  N           0.000447    0.000000    2.635069
   Point Group: c1    Number of degrees of freedom:  12


   Energy is   -430.613193874

 Hessian Updated using BFGS Update

  7 Hessian modes will be used to form the next step
  Hessian Eigenvalues:
     0.199989    0.249969    0.290857    0.339199    0.575195    0.584994
     1.164831

 Minimum Search - Taking Simple RFO Step
 Searching for Lamda that Minimizes Along All modes
 Value Taken    Lamda =  -0.00003888
 Step Taken.  Stepsize is  0.011334

                             Maximum     Tolerance    Cnvgd?
         Gradient           0.003152      0.000300      NO
         Displacement       0.009705      0.001200      NO
         Energy change     -0.000358      0.000001      NO


 New Cartesian Coordinates Obtained by Inverse Iteration

 Displacement from previous Coordinates is:  0.016930
 Writing REM_CC_EA            6
 ----------------------------------------------------
       Standard Nuclear Orientation (Angstroms)
    I     Atom         X            Y            Z
 ----------------------------------------------------
    1      C      -0.000441     0.000000     0.004826
    2      C      -0.000103     0.000000     1.484940
    3      F       1.251787     0.000000    -0.456910
    4      F      -0.625900    -1.084146    -0.457965
    5      F      -0.625900     1.084146    -0.457965
    6      N       0.000556     0.000000     2.630703
 ----------------------------------------------------
 Nuclear Repulsion Energy =   231.3859755387 hartrees
 There are       23 alpha and       23 beta electrons
 Applying Cartesian multipole field
    Component          Value
    ---------          -----
     (2,0,0)        1.00000E-11
     (0,2,0)        2.00000E-11
     (0,0,2)       -3.00000E-11
 Nucleus-field energy     =    -0.0000000049 hartrees
 Requested basis set is G3large
 There are 60 shells and 252 basis functions
 A cutoff of  1.0D-11 yielded   1553 shell pairs
 There are  28368 function pairs ( 37151 Cartesian)
Evaluating contribution to one-electron hamiltonian from nuclear
 Smallest overlap matrix eigenvalue = 4.56E-05
 Multipole matrices computed through 2nd order
 Guess MOs from SCF MO coefficient file
Reading MOs from coefficient file
Reading MOs from coefficient file
 An unrestricted hybrid HF-DFT SCF calculation will be
 performed using Pulay DIIS extrapolation
 Exchange:     0.2000 Hartree-Fock + 0.0800 Slater + 0.7200 Becke88
 Correlation:  0.8100 LYP + 0.1900 VWN1RPA
 Using SG-1 standard quadrature grid
 SCF converges when DIIS error is below 1.0E-08
 ---------------------------------------
  Cycle       Energy         DIIS Error
 ---------------------------------------
    1    -430.6125582816      1.04E-04
    2    -430.6132043018      1.38E-05
    3    -430.6132039247      1.62E-05
    4    -430.6132053790      5.42E-06
    5    -430.6132052958      3.91E-06
    6    -430.6132055137      5.77E-07
    7    -430.6132054434      1.42E-07
    8    -430.6132054632      1.84E-08
    9    -430.6132054603      6.44E-09 Convergence criterion met
 ---------------------------------------
 One-Electron    Energy = -1052.7889489367
 Total Coulomb   Energy =   439.9015214583
 Alpha Exchange  Energy =    -4.7072181974
 Beta  Exchange  Energy =    -4.7072181974
 DFT   Exchange  Energy =   -37.5364299549
 DFT Correlation Energy =    -2.1608871660
 Nuclear Repu.   Energy =   231.3859755338
 Nuclear Attr.   Energy = -1482.2171101151
 Kinetic         Energy =   429.4281611784
 <S^2> = 0.0000
 SCF time:  CPU 181.18 s  wall 181.61 s
 Final Alpha MO Eigenvalues
            1           2           3           4           5           6
    1 -24.7623479 -24.7623465 -24.7621939 -14.3761965 -10.5020167 -10.2638807
            7           8           9          10          11          12
    1  -1.3754556  -1.2851049  -1.2849738  -0.9696611  -0.8066641  -0.6901115
           13          14          15          16          17          18
    1  -0.6537560  -0.6537056  -0.5249900  -0.5249799  -0.4912507  -0.4912041
           19          20          21          22          23          24
    1  -0.4861783  -0.4657358  -0.4192579  -0.4028211  -0.4028039  -0.0465662
           25          26          27          28
    1  -0.0465635  -0.0044075   0.0305059   0.0505355
 Final Beta MO Eigenvalues
            1           2           3           4           5           6
    1 -24.7623479 -24.7623465 -24.7621939 -14.3761965 -10.5020167 -10.2638807
            7           8           9          10          11          12
    1  -1.3754556  -1.2851049  -1.2849738  -0.9696611  -0.8066641  -0.6901115
           13          14          15          16          17          18
    1  -0.6537560  -0.6537056  -0.5249900  -0.5249799  -0.4912507  -0.4912041
           19          20          21          22          23          24
    1  -0.4861783  -0.4657358  -0.4192579  -0.4028211  -0.4028039  -0.0465662
           25          26          27          28
    1  -0.0465635  -0.0044075   0.0305059   0.0505355
 Analysis of SCF Wavefunction
 
 --------------------------------------------------------------
                    Orbital Energies (a.u.)
 --------------------------------------------------------------
 
 Alpha MOs
 -- Occupied --
-24.762 -24.762 -24.762 -14.376 -10.502 -10.264  -1.375  -1.285
 -1.285  -0.970  -0.807  -0.690  -0.654  -0.654  -0.525  -0.525
 -0.491  -0.491  -0.486  -0.466  -0.419  -0.403  -0.403
 -- Virtual --
 -0.047  -0.047  -0.004   0.031   0.051   0.051   0.081   0.086
  0.086   0.105   0.155   0.155   0.158   0.172   0.200   0.201
  0.225   0.225   0.236   0.244   0.258   0.293   0.293   0.298
  0.330   0.330   0.338   0.359   0.378   0.378   0.517   0.517
  0.521   0.600   0.600   0.600   0.672   0.703   0.703   0.793
  0.794   0.794   0.824   0.824   0.866   0.927   1.060   1.060
  1.187   1.187   1.205   1.238   1.239   1.279   1.279   1.318
  1.342   1.348   1.349   1.350   1.431   1.431   1.444   1.665
  1.665   1.810   1.854   1.894   1.894   1.930   1.930   2.016
  2.035   2.051   2.051   2.070   2.233   2.266   2.266   2.457
  2.508   2.508   2.585   2.585   2.673   2.683   2.683   2.706
  2.726   2.801   2.966   2.966   3.132   3.132   3.169   3.180
  3.180   3.255   3.255   3.377   3.379   3.380   3.528   3.571
  3.571   3.593   3.614   3.655   3.671   3.703   3.703   3.891
  3.891   4.049   4.132   4.133   4.194   4.194   4.425   4.425
  4.472   4.767   4.767   4.907   5.160   5.160   5.921   6.000
  6.000   6.116   6.116   6.184   6.219   6.219   6.224   6.436
  6.535   6.538   6.538   6.548   6.554   6.554   6.585   6.604
  6.604   6.641   6.641   6.690   6.743   6.743   6.767   6.928
  6.928   7.099   7.250   7.251   7.374   7.381   7.633   7.634
  8.998   8.998   9.001   9.119   9.119   9.179   9.339   9.429
  9.429   9.510   9.695   9.836   9.836  10.042  10.042  24.379
 24.673  27.374  27.374  27.720  27.809  27.809  29.039  36.175
 37.616  37.616  38.346  40.420  40.520  40.567  40.651  40.652
 40.730  40.824  40.885  40.893  40.988  41.059  41.069  41.269
 41.269  41.627  50.037  50.045  50.063  50.096  50.102  50.104
 50.158  50.212  50.216  50.260  50.345  50.371  50.382  50.420
 50.437  55.672  55.672  55.744  55.744  55.745  55.746  56.062
 56.225  56.226  66.786  66.786  66.827
 
 Beta MOs
 -- Occupied --
-24.762 -24.762 -24.762 -14.376 -10.502 -10.264  -1.375  -1.285
 -1.285  -0.970  -0.807  -0.690  -0.654  -0.654  -0.525  -0.525
 -0.491  -0.491  -0.486  -0.466  -0.419  -0.403  -0.403
 -- Virtual --
 -0.047  -0.047  -0.004   0.031   0.051   0.051   0.081   0.086
  0.086   0.105   0.155   0.155   0.158   0.172   0.200   0.201
  0.225   0.225   0.236   0.244   0.258   0.293   0.293   0.298
  0.330   0.330   0.338   0.359   0.378   0.378   0.517   0.517
  0.521   0.600   0.600   0.600   0.672   0.703   0.703   0.793
  0.794   0.794   0.824   0.824   0.866   0.927   1.060   1.060
  1.187   1.187   1.205   1.238   1.239   1.279   1.279   1.318
  1.342   1.348   1.349   1.350   1.431   1.431   1.444   1.665
  1.665   1.810   1.854   1.894   1.894   1.930   1.930   2.016
  2.035   2.051   2.051   2.070   2.233   2.266   2.266   2.457
  2.508   2.508   2.585   2.585   2.673   2.683   2.683   2.706
  2.726   2.801   2.966   2.966   3.132   3.132   3.169   3.180
  3.180   3.255   3.255   3.377   3.379   3.380   3.528   3.571
  3.571   3.593   3.614   3.655   3.671   3.703   3.703   3.891
  3.891   4.049   4.132   4.133   4.194   4.194   4.425   4.425
  4.472   4.767   4.767   4.907   5.160   5.160   5.921   6.000
  6.000   6.116   6.116   6.184   6.219   6.219   6.224   6.436
  6.535   6.538   6.538   6.548   6.554   6.554   6.585   6.604
  6.604   6.641   6.641   6.690   6.743   6.743   6.767   6.928
  6.928   7.099   7.250   7.251   7.374   7.381   7.633   7.634
  8.998   8.998   9.001   9.119   9.119   9.179   9.339   9.429
  9.429   9.510   9.695   9.836   9.836  10.042  10.042  24.379
 24.673  27.374  27.374  27.720  27.809  27.809  29.039  36.175
 37.616  37.616  38.346  40.420  40.520  40.567  40.651  40.652
 40.730  40.824  40.885  40.893  40.988  41.059  41.069  41.269
 41.269  41.627  50.037  50.045  50.063  50.096  50.102  50.104
 50.158  50.212  50.216  50.260  50.345  50.371  50.382  50.420
 50.437  55.672  55.672  55.744  55.744  55.745  55.746  56.062
 56.225  56.226  66.786  66.786  66.827
 --------------------------------------------------------------
 
          Ground-State Mulliken Net Atomic Charges

     Atom                 Charge (a.u.)    Spin (a.u.)
  --------------------------------------------------------
      1 C                     0.425908       0.000000
      2 C                     0.275907       0.000000
      3 F                    -0.157221       0.000000
      4 F                    -0.156860       0.000000
      5 F                    -0.156860       0.000000
      6 N                    -0.230873       0.000000
  --------------------------------------------------------
  Sum of atomic charges =     0.000000
  Sum of spin   charges =     0.000000

 -----------------------------------------------------------------
                    Cartesian Multipole Moments
 -----------------------------------------------------------------
    Charge (ESU x 10^10)
                 0.0000
    Dipole Moment (Debye)
         X      -0.0031      Y       0.0000      Z      -1.2841
       Tot       1.2841
    Quadrupole Moments (Debye-Ang)
        XX     -31.5948     XY       0.0000     YY     -31.5920
        XZ      -0.0024     YZ       0.0000     ZZ     -38.6055
    Octapole Moments (Debye-Ang^2)
       XXX      -0.8611    XXY       0.0000    XYY       0.8574
       YYY       0.0000    XXZ     -15.2843    XYZ       0.0000
       YYZ     -15.2845    XZZ      -0.0073    YZZ       0.0000
       ZZZ     -74.5481
    Hexadecapole Moments (Debye-Ang^3)
      XXXX     -93.6294   XXXY       0.0000   XXYY     -31.2095
      XYYY       0.0000   YYYY     -93.6266   XXXZ      -0.1474
      XXYZ       0.0000   XYYZ       0.0932   YYYZ       0.0000
      XXZZ     -74.1173   XYZZ       0.0000   YYZZ     -74.1159
      XZZZ      -0.0628   YZZZ       0.0000   ZZZZ    -434.5111
 -----------------------------------------------------------------
 Calculating analytic gradient of the SCF energy
 Gradient of XC Energy
            1           2           3           4           5           6
    1   0.0005904  -0.0001193   0.2612485  -0.1309401  -0.1309401   0.0001606
    2  -0.0000000  -0.0000000   0.0000000  -0.2264097   0.2264097   0.0000000
    3  -0.0088725  -0.2516261  -0.0863450  -0.0865618  -0.0865618   0.5199672
 Gradient of SCF Energy
            1           2           3           4           5           6
    1   0.0000398   0.0000938   0.0001349  -0.0001375  -0.0001375   0.0000065
    2  -0.0000000   0.0000000   0.0000000  -0.0001625   0.0001625  -0.0000000
    3  -0.0004099   0.0006014   0.0003181   0.0003412   0.0003412  -0.0011919
 Max gradient component =       1.192E-03
 RMS gradient           =       3.654E-04
 Gradient time:  CPU 125.79 s  wall 125.85 s
 Geometry Optimization Parameters
   NAtoms,    NIC,     NZ,  NCons,   NDum,   NFix, NCnnct, MaxDiis
        6      27       7       0       0       0       0       0

 Cartesian Hessian Update
 Hessian Updated using BFGS Update


** GEOMETRY OPTIMIZATION IN DELOCALIZED INTERNAL COORDINATES **
   Searching for a Minimum

   Optimization Cycle:   3

                       Coordinates (Angstroms)
     ATOM              X           Y           Z
    1  C          -0.000441    0.000000    0.004826
    2  C          -0.000103    0.000000    1.484940
    3  F           1.251787    0.000000   -0.456910
    4  F          -0.625900   -1.084146   -0.457965
    5  F          -0.625900    1.084146   -0.457965
    6  N           0.000556    0.000000    2.630703
   Point Group: c1    Number of degrees of freedom:  12


   Energy is   -430.613205460

 Hessian Updated using BFGS Update

  8 Hessian modes will be used to form the next step
  Hessian Eigenvalues:
     0.199787    0.249948    0.250000    0.321189    0.410190    0.575130
     0.589269    1.228124

 Minimum Search - Taking Simple RFO Step
 Searching for Lamda that Minimizes Along All modes
 Value Taken    Lamda =  -0.00000513
 Step Taken.  Stepsize is  0.003250

                             Maximum     Tolerance    Cnvgd?
         Gradient           0.001607      0.000300      NO
         Displacement       0.003103      0.001200      NO
         Energy change     -0.000012      0.000001      NO


 New Cartesian Coordinates Obtained by Inverse Iteration

 Displacement from previous Coordinates is:  0.005257
 Writing REM_CC_EA            6
 ----------------------------------------------------
       Standard Nuclear Orientation (Angstroms)
    I     Atom         X            Y            Z
 ----------------------------------------------------
    1      C      -0.000493     0.000000     0.005237
    2      C      -0.000160     0.000000     1.486018
    3      F       1.251264     0.000000    -0.457903
    4      F      -0.625615    -1.083738    -0.459002
    5      F      -0.625615     1.083738    -0.459002
    6      N       0.000618     0.000000     2.632282
 ----------------------------------------------------
 Nuclear Repulsion Energy =   231.3468449193 hartrees
 There are       23 alpha and       23 beta electrons
 Applying Cartesian multipole field
    Component          Value
    ---------          -----
     (2,0,0)        1.00000E-11
     (0,2,0)        2.00000E-11
     (0,0,2)       -3.00000E-11
 Nucleus-field energy     =    -0.0000000050 hartrees
 Requested basis set is G3large
 There are 60 shells and 252 basis functions
 A cutoff of  1.0D-11 yielded   1553 shell pairs
 There are  28368 function pairs ( 37151 Cartesian)
Evaluating contribution to one-electron hamiltonian from nuclear
 Smallest overlap matrix eigenvalue = 4.58E-05
 Multipole matrices computed through 2nd order
 Guess MOs from SCF MO coefficient file
Reading MOs from coefficient file
Reading MOs from coefficient file
 An unrestricted hybrid HF-DFT SCF calculation will be
 performed using Pulay DIIS extrapolation
 Exchange:     0.2000 Hartree-Fock + 0.0800 Slater + 0.7200 Becke88
 Correlation:  0.8100 LYP + 0.1900 VWN1RPA
 Using SG-1 standard quadrature grid
 SCF converges when DIIS error is below 1.0E-08
 ---------------------------------------
  Cycle       Energy         DIIS Error
 ---------------------------------------
    1    -430.6132195306      3.25E-05
    2    -430.6132078900      4.28E-06
    3    -430.6132075821      8.16E-06
    4    -430.6132078817      1.70E-06
    5    -430.6132079028      5.23E-07
    6    -430.6132079083      1.51E-07
    7    -430.6132079384      4.16E-08
    8    -430.6132079413      8.56E-09 Convergence criterion met
 ---------------------------------------
 One-Electron    Energy = -1052.7125029127
 Total Coulomb   Energy =   439.8632974390
 Alpha Exchange  Energy =    -4.7071202755
 Beta  Exchange  Energy =    -4.7071202755
 DFT   Exchange  Energy =   -37.5357653008
 DFT Correlation Energy =    -2.1608415301
 Nuclear Repu.   Energy =   231.3468449144
 Nuclear Attr.   Energy = -1482.1367841182
 Kinetic         Energy =   429.4242812055
 <S^2> = 0.0000
 SCF time:  CPU 161.45 s  wall 161.79 s
 Final Alpha MO Eigenvalues
            1           2           3           4           5           6
    1 -24.7622536 -24.7622523 -24.7620805 -14.3764821 -10.5020643 -10.2642227
            7           8           9          10          11          12
    1  -1.3754531  -1.2849688  -1.2848120  -0.9695962  -0.8065537  -0.6900942
           13          14          15          16          17          18
    1  -0.6536509  -0.6535891  -0.5249297  -0.5249260  -0.4910466  -0.4909861
           19          20          21          22          23          24
    1  -0.4863650  -0.4655759  -0.4194098  -0.4028391  -0.4028214  -0.0468859
           25          26          27          28
    1  -0.0468802  -0.0044111   0.0304845   0.0505388
 Final Beta MO Eigenvalues
            1           2           3           4           5           6
    1 -24.7622536 -24.7622523 -24.7620805 -14.3764821 -10.5020643 -10.2642227
            7           8           9          10          11          12
    1  -1.3754531  -1.2849688  -1.2848120  -0.9695962  -0.8065537  -0.6900942
           13          14          15          16          17          18
    1  -0.6536509  -0.6535891  -0.5249297  -0.5249260  -0.4910466  -0.4909861
           19          20          21          22          23          24
    1  -0.4863650  -0.4655759  -0.4194098  -0.4028391  -0.4028214  -0.0468859
           25          26          27          28
    1  -0.0468802  -0.0044111   0.0304845   0.0505388
 Analysis of SCF Wavefunction
 
 --------------------------------------------------------------
                    Orbital Energies (a.u.)
 --------------------------------------------------------------
 
 Alpha MOs
 -- Occupied --
-24.762 -24.762 -24.762 -14.376 -10.502 -10.264  -1.375  -1.285
 -1.285  -0.970  -0.807  -0.690  -0.654  -0.654  -0.525  -0.525
 -0.491  -0.491  -0.486  -0.466  -0.419  -0.403  -0.403
 -- Virtual --
 -0.047  -0.047  -0.004   0.030   0.051   0.051   0.081   0.086
  0.086   0.105   0.155   0.155   0.158   0.172   0.200   0.201
  0.225   0.225   0.236   0.243   0.258   0.293   0.293   0.298
  0.330   0.330   0.338   0.359   0.378   0.378   0.517   0.517
  0.522   0.600   0.600   0.600   0.671   0.702   0.702   0.793
  0.794   0.794   0.824   0.824   0.866   0.927   1.060   1.060
  1.186   1.187   1.204   1.238   1.239   1.279   1.279   1.318
  1.342   1.348   1.349   1.349   1.431   1.431   1.444   1.665
  1.665   1.809   1.854   1.894   1.894   1.930   1.930   2.016
  2.035   2.051   2.051   2.071   2.232   2.265   2.265   2.458
  2.507   2.508   2.585   2.585   2.673   2.682   2.683   2.706
  2.727   2.801   2.965   2.965   3.132   3.132   3.168   3.180
  3.180   3.256   3.256   3.377   3.379   3.380   3.528   3.570
  3.570   3.592   3.613   3.655   3.671   3.703   3.703   3.890
  3.891   4.048   4.132   4.132   4.193   4.193   4.424   4.424
  4.471   4.766   4.766   4.906   5.159   5.159   5.919   5.997
  5.997   6.116   6.116   6.183   6.219   6.219   6.224   6.436
  6.536   6.538   6.538   6.548   6.554   6.554   6.586   6.604
  6.604   6.640   6.640   6.690   6.743   6.743   6.768   6.929
  6.929   7.098   7.250   7.251   7.372   7.379   7.634   7.634
  8.998   8.998   9.002   9.119   9.119   9.179   9.338   9.428
  9.429   9.511   9.695   9.837   9.837  10.041  10.042  24.377
 24.672  27.373  27.373  27.719  27.808  27.808  29.037  36.173
 37.615  37.615  38.344  40.420  40.520  40.567  40.651  40.651
 40.729  40.823  40.884  40.893  40.988  41.059  41.068  41.268
 41.268  41.625  50.037  50.045  50.063  50.096  50.102  50.104
 50.159  50.212  50.216  50.260  50.345  50.371  50.382  50.420
 50.437  55.672  55.672  55.744  55.744  55.745  55.746  56.062
 56.225  56.226  66.786  66.786  66.827
 
 Beta MOs
 -- Occupied --
-24.762 -24.762 -24.762 -14.376 -10.502 -10.264  -1.375  -1.285
 -1.285  -0.970  -0.807  -0.690  -0.654  -0.654  -0.525  -0.525
 -0.491  -0.491  -0.486  -0.466  -0.419  -0.403  -0.403
 -- Virtual --
 -0.047  -0.047  -0.004   0.030   0.051   0.051   0.081   0.086
  0.086   0.105   0.155   0.155   0.158   0.172   0.200   0.201
  0.225   0.225   0.236   0.243   0.258   0.293   0.293   0.298
  0.330   0.330   0.338   0.359   0.378   0.378   0.517   0.517
  0.522   0.600   0.600   0.600   0.671   0.702   0.702   0.793
  0.794   0.794   0.824   0.824   0.866   0.927   1.060   1.060
  1.186   1.187   1.204   1.238   1.239   1.279   1.279   1.318
  1.342   1.348   1.349   1.349   1.431   1.431   1.444   1.665
  1.665   1.809   1.854   1.894   1.894   1.930   1.930   2.016
  2.035   2.051   2.051   2.071   2.232   2.265   2.265   2.458
  2.507   2.508   2.585   2.585   2.673   2.682   2.683   2.706
  2.727   2.801   2.965   2.965   3.132   3.132   3.168   3.180
  3.180   3.256   3.256   3.377   3.379   3.380   3.528   3.570
  3.570   3.592   3.613   3.655   3.671   3.703   3.703   3.890
  3.891   4.048   4.132   4.132   4.193   4.193   4.424   4.424
  4.471   4.766   4.766   4.906   5.159   5.159   5.919   5.997
  5.997   6.116   6.116   6.183   6.219   6.219   6.224   6.436
  6.536   6.538   6.538   6.548   6.554   6.554   6.586   6.604
  6.604   6.640   6.640   6.690   6.743   6.743   6.768   6.929
  6.929   7.098   7.250   7.251   7.372   7.379   7.634   7.634
  8.998   8.998   9.002   9.119   9.119   9.179   9.338   9.428
  9.429   9.511   9.695   9.837   9.837  10.041  10.042  24.377
 24.672  27.373  27.373  27.719  27.808  27.808  29.037  36.173
 37.615  37.615  38.344  40.420  40.520  40.567  40.651  40.651
 40.729  40.823  40.884  40.893  40.988  41.059  41.068  41.268
 41.268  41.625  50.037  50.045  50.063  50.096  50.102  50.104
 50.159  50.212  50.216  50.260  50.345  50.371  50.382  50.420
 50.437  55.672  55.672  55.744  55.744  55.745  55.746  56.062
 56.225  56.226  66.786  66.786  66.827
 --------------------------------------------------------------
 
          Ground-State Mulliken Net Atomic Charges

     Atom                 Charge (a.u.)    Spin (a.u.)
  --------------------------------------------------------
      1 C                     0.425611       0.000000
      2 C                     0.276110       0.000000
      3 F                    -0.157369       0.000000
      4 F                    -0.156986       0.000000
      5 F                    -0.156986       0.000000
      6 N                    -0.230381       0.000000
  --------------------------------------------------------
  Sum of atomic charges =     0.000000
  Sum of spin   charges =     0.000000

 -----------------------------------------------------------------
                    Cartesian Multipole Moments
 -----------------------------------------------------------------
    Charge (ESU x 10^10)
                 0.0000
    Dipole Moment (Debye)
         X      -0.0036      Y       0.0000      Z      -1.2769
       Tot       1.2769
    Quadrupole Moments (Debye-Ang)
        XX     -31.5978     XY       0.0000     YY     -31.5949
        XZ      -0.0027     YZ       0.0000     ZZ     -38.6029
    Octapole Moments (Debye-Ang^2)
       XXX      -0.8626    XXY       0.0000    XYY       0.8582
       YYY       0.0000    XXZ     -15.2878    XYZ       0.0000
       YYZ     -15.2881    XZZ      -0.0081    YZZ       0.0000
       ZZZ     -74.5529
    Hexadecapole Moments (Debye-Ang^3)
      XXXX     -93.5855   XXXY       0.0000   XXYY     -31.1960
      XYYY       0.0000   YYYY     -93.5886   XXXZ      -0.1504
      XXYZ       0.0000   XYYZ       0.0938   YYYZ       0.0000
      XXZZ     -74.1854   XYZZ       0.0000   YYZZ     -74.1850
      XZZZ      -0.0669   YZZZ       0.0000   ZZZZ    -435.0098
 -----------------------------------------------------------------
 Calculating analytic gradient of the SCF energy
 Gradient of XC Energy
            1           2           3           4           5           6
    1   0.0005675  -0.0001846   0.2610277  -0.1308152  -0.1308152   0.0002198
    2  -0.0000000  -0.0000000   0.0000000  -0.2262468   0.2262468   0.0000000
    3  -0.0076053  -0.2514584  -0.0868319  -0.0870624  -0.0870623   0.5200204
 Gradient of SCF Energy
            1           2           3           4           5           6
    1   0.0000100   0.0000902  -0.0000166  -0.0000469  -0.0000469   0.0000102
    2  -0.0000000   0.0000000   0.0000000  -0.0000369   0.0000369  -0.0000000
    3   0.0000713  -0.0000428  -0.0000366  -0.0000022  -0.0000022   0.0000124
 Max gradient component =       9.022E-05
 RMS gradient           =       3.664E-05
 Gradient time:  CPU 123.48 s  wall 123.55 s
 Geometry Optimization Parameters
   NAtoms,    NIC,     NZ,  NCons,   NDum,   NFix, NCnnct, MaxDiis
        6      27       7       0       0       0       0       0

 Cartesian Hessian Update
 Hessian Updated using BFGS Update


** GEOMETRY OPTIMIZATION IN DELOCALIZED INTERNAL COORDINATES **
   Searching for a Minimum

   Optimization Cycle:   4

                       Coordinates (Angstroms)
     ATOM              X           Y           Z
    1  C          -0.000493    0.000000    0.005237
    2  C          -0.000160    0.000000    1.486018
    3  F           1.251264    0.000000   -0.457903
    4  F          -0.625615   -1.083738   -0.459002
    5  F          -0.625615    1.083738   -0.459002
    6  N           0.000618    0.000000    2.632282
   Point Group: c1    Number of degrees of freedom:  12


   Energy is   -430.613207941

 Hessian Updated using BFGS Update

  8 Hessian modes will be used to form the next step
  Hessian Eigenvalues:
     0.198895    0.249900    0.249989    0.323782    0.409657    0.574407
     0.583736    1.234351

 Minimum Search - Taking Simple RFO Step
 Searching for Lamda that Minimizes Along All modes
 Value Taken    Lamda =   0.00000000
 Step Taken.  Stepsize is  0.000307

                             Maximum     Tolerance    Cnvgd?
         Gradient           0.000058      0.000300     YES
         Displacement       0.000208      0.001200     YES
         Energy change     -0.000002      0.000001      NO


                       Distance Matrix (Angstroms)
             C (  1)   C (  2)   F (  3)   F (  4)   F (  5)
   C (  2)  1.480781
   F (  3)  1.334689  2.311902
   F (  4)  1.334459  2.312743  2.167294
   F (  5)  1.334459  2.312743  2.167294  2.167476
   N (  6)  2.627045  1.146264  3.333670  3.335069  3.335069
 


 ******************************
 **  OPTIMIZATION CONVERGED  **
 ******************************
 Analysis of SCF Wavefunction
 
 --------------------------------------------------------------
                    Orbital Energies (a.u.)
 --------------------------------------------------------------
 
 Alpha MOs
 -- Occupied --
-24.762 -24.762 -24.762 -14.376 -10.502 -10.264  -1.375  -1.285
 -1.285  -0.970  -0.807  -0.690  -0.654  -0.654  -0.525  -0.525
 -0.491  -0.491  -0.486  -0.466  -0.419  -0.403  -0.403
 -- Virtual --
 -0.047  -0.047  -0.004   0.030   0.051   0.051   0.081   0.086
  0.086   0.105   0.155   0.155   0.158   0.172   0.200   0.201
  0.225   0.225   0.236   0.243   0.258   0.293   0.293   0.298
  0.330   0.330   0.338   0.359   0.378   0.378   0.517   0.517
  0.522   0.600   0.600   0.600   0.671   0.702   0.702   0.793
  0.794   0.794   0.824   0.824   0.866   0.927   1.060   1.060
  1.186   1.187   1.204   1.238   1.239   1.279   1.279   1.318
  1.342   1.348   1.349   1.349   1.431   1.431   1.444   1.665
  1.665   1.809   1.854   1.894   1.894   1.930   1.930   2.016
  2.035   2.051   2.051   2.071   2.232   2.265   2.265   2.458
  2.507   2.508   2.585   2.585   2.673   2.682   2.683   2.706
  2.727   2.801   2.965   2.965   3.132   3.132   3.168   3.180
  3.180   3.256   3.256   3.377   3.379   3.380   3.528   3.570
  3.570   3.592   3.613   3.655   3.671   3.703   3.703   3.890
  3.891   4.048   4.132   4.132   4.193   4.193   4.424   4.424
  4.471   4.766   4.766   4.906   5.159   5.159   5.919   5.997
  5.997   6.116   6.116   6.183   6.219   6.219   6.224   6.436
  6.536   6.538   6.538   6.548   6.554   6.554   6.586   6.604
  6.604   6.640   6.640   6.690   6.743   6.743   6.768   6.929
  6.929   7.098   7.250   7.251   7.372   7.379   7.634   7.634
  8.998   8.998   9.002   9.119   9.119   9.179   9.338   9.428
  9.429   9.511   9.695   9.837   9.837  10.041  10.042  24.377
 24.672  27.373  27.373  27.719  27.808  27.808  29.037  36.173
 37.615  37.615  38.344  40.420  40.520  40.567  40.651  40.651
 40.729  40.823  40.884  40.893  40.988  41.059  41.068  41.268
 41.268  41.625  50.037  50.045  50.063  50.096  50.102  50.104
 50.159  50.212  50.216  50.260  50.345  50.371  50.382  50.420
 50.437  55.672  55.672  55.744  55.744  55.745  55.746  56.062
 56.225  56.226  66.786  66.786  66.827
 
 Beta MOs
 -- Occupied --
-24.762 -24.762 -24.762 -14.376 -10.502 -10.264  -1.375  -1.285
 -1.285  -0.970  -0.807  -0.690  -0.654  -0.654  -0.525  -0.525
 -0.491  -0.491  -0.486  -0.466  -0.419  -0.403  -0.403
 -- Virtual --
 -0.047  -0.047  -0.004   0.030   0.051   0.051   0.081   0.086
  0.086   0.105   0.155   0.155   0.158   0.172   0.200   0.201
  0.225   0.225   0.236   0.243   0.258   0.293   0.293   0.298
  0.330   0.330   0.338   0.359   0.378   0.378   0.517   0.517
  0.522   0.600   0.600   0.600   0.671   0.702   0.702   0.793
  0.794   0.794   0.824   0.824   0.866   0.927   1.060   1.060
  1.186   1.187   1.204   1.238   1.239   1.279   1.279   1.318
  1.342   1.348   1.349   1.349   1.431   1.431   1.444   1.665
  1.665   1.809   1.854   1.894   1.894   1.930   1.930   2.016
  2.035   2.051   2.051   2.071   2.232   2.265   2.265   2.458
  2.507   2.508   2.585   2.585   2.673   2.682   2.683   2.706
  2.727   2.801   2.965   2.965   3.132   3.132   3.168   3.180
  3.180   3.256   3.256   3.377   3.379   3.380   3.528   3.570
  3.570   3.592   3.613   3.655   3.671   3.703   3.703   3.890
  3.891   4.048   4.132   4.132   4.193   4.193   4.424   4.424
  4.471   4.766   4.766   4.906   5.159   5.159   5.919   5.997
  5.997   6.116   6.116   6.183   6.219   6.219   6.224   6.436
  6.536   6.538   6.538   6.548   6.554   6.554   6.586   6.604
  6.604   6.640   6.640   6.690   6.743   6.743   6.768   6.929
  6.929   7.098   7.250   7.251   7.372   7.379   7.634   7.634
  8.998   8.998   9.002   9.119   9.119   9.179   9.338   9.428
  9.429   9.511   9.695   9.837   9.837  10.041  10.042  24.377
 24.672  27.373  27.373  27.719  27.808  27.808  29.037  36.173
 37.615  37.615  38.344  40.420  40.520  40.567  40.651  40.651
 40.729  40.823  40.884  40.893  40.988  41.059  41.068  41.268
 41.268  41.625  50.037  50.045  50.063  50.096  50.102  50.104
 50.159  50.212  50.216  50.260  50.345  50.371  50.382  50.420
 50.437  55.672  55.672  55.744  55.744  55.745  55.746  56.062
 56.225  56.226  66.786  66.786  66.827
 --------------------------------------------------------------
 
          Ground-State Mulliken Net Atomic Charges

     Atom                 Charge (a.u.)    Spin (a.u.)
  --------------------------------------------------------
      1 C                     0.425611       0.000000
      2 C                     0.276110       0.000000
      3 F                    -0.157369       0.000000
      4 F                    -0.156986       0.000000
      5 F                    -0.156986       0.000000
      6 N                    -0.230381       0.000000
  --------------------------------------------------------
  Sum of atomic charges =     0.000000
  Sum of spin   charges =     0.000000

 -----------------------------------------------------------------
                    Cartesian Multipole Moments
 -----------------------------------------------------------------
    Charge (ESU x 10^10)
                 0.0000
    Dipole Moment (Debye)
         X      -0.0036      Y       0.0000      Z      -1.2769
       Tot       1.2769
    Quadrupole Moments (Debye-Ang)
        XX     -31.5978     XY       0.0000     YY     -31.5949
        XZ      -0.0027     YZ       0.0000     ZZ     -38.6029
    Octapole Moments (Debye-Ang^2)
       XXX      -0.8626    XXY       0.0000    XYY       0.8582
       YYY       0.0000    XXZ     -15.2878    XYZ       0.0000
       YYZ     -15.2881    XZZ      -0.0081    YZZ       0.0000
       ZZZ     -74.5529
    Hexadecapole Moments (Debye-Ang^3)
      XXXX     -93.5855   XXXY       0.0000   XXYY     -31.1960
      XYYY       0.0000   YYYY     -93.5886   XXXZ      -0.1504
      XXYZ       0.0000   XYYZ       0.0938   YYYZ       0.0000
      XXZZ     -74.1854   XYZZ       0.0000   YYZZ     -74.1850
      XZZZ      -0.0669   YZZZ       0.0000   ZZZZ    -435.0098
 -----------------------------------------------------------------
 Total job time:  1295.94s(wall), 1293.13s(cpu) 
 Wed Jul 24 16:20:29 2013

        *************************************************************
        *                                                           *
        *  Thank you very much for using Q-Chem.  Have a nice day.  *
        *                                                           *
        *************************************************************


0 sent ACK to 0 
now end server 0 ... 
 
**********************************************************************
Job 2 of 2 
**********************************************************************
 
Process 0 of 1 is on cl117.stfx.acenet.ca - thread support 1
initial socket setup ...start
initial socket setup ...done 
now start server 0 ... 

cmd = /usr/bin/ssh clhead /usr/local/qchem/bin/get_hostid 647003410 > /scratch/tmp/6067102.1.short.q/qchem28235/lic.dat
                  Welcome to Q-Chem
     A Quantum Leap Into The Future Of Chemistry

 Y. Shao, L. Fusti-Molnar, Y. Jung, J. Kussmann, C. Ochsenfeld,
 S. T. Brown, A. T. B. Gilbert, L. V. Slipchenko,S. V. Levchenko,
 D. P. O'Neill, R. A. DiStasio Jr., R. C. Lochan, T. Wang,
 G. J. O. Beran, N. A. Besley, J. M. Herbert, C. Y. Lin,
 T. Van Voorhis, S. H. Chien, A. Sodt, R. P. Steele, 
 V. A. Rassolov, P. E. Maslen, P. P. Korambath, R. D. Adamson,
 B. Austin, J. Baker, E. F. C. Byrd, H. Dachsel, R. J. Doerksen,
 A. Dreuw, B. D. Dunietz, A. D. Dutoi, T. R. Furlani,
 S. R. Gwaltney, A. Heyden, S. Hirata, C.-P. Hsu, G. Kedziora,
 R. Z. Khaliullin, P. Klunzinger, A. M. Lee, M. S. Lee, W. Liang,
 I. Lotan, N. Nair, B. Peters, E. I. Proynov, P. A. Pieniazek, 
 Y. M. Rhee, J. Ritchie, E. Rosta, C. D. Sherrill, 
 A. C. Simmonett, J. E. Subotnik, H. L. Woodcock III,
 W. Zhang, A. T. Bell, A. K. Chakraborty, D. M. Chipman,
 F. J. Keil, A. Warshel, W. J. Hehre, H. F. Schaefer III,
 J. Kong, A. I. Krylov, P. M. W. Gill, M. Head-Gordon,
 Q-Chem, Version 3.1, Q-Chem, Inc., Pittsburgh, PA (2007).

 Additional authors for Version 3.1: 
 Z. Gan, Y. Zhao, N. E. Schultz, D. Truhlar, E. Epifanovsky and M. Oana.

 Additional authors for Version 3.2: 
 R. Baer, B. R. Brooks, D. Casanova, J.-D. Chai, C.-L. Cheng, 
 C. Cramer, D. Crittenden, A. Ghysels, G. Hawkins, E. G. Hohenstein, 
 C. Kelley, W. Kurlancheek, D. Liotard, E. Livshits, P. Manohar, 
 A. Marenich, D. Neuhauser, R. Olson, M. A. Rohrdanz, K. S. Thanthiriwatte, 
 A. J. W. Thom, V. Vanovschi, C. F. Williams, Q. Wu and Z.-Q. You. 


 Intel X86 Linux Version

 Q-chem begins on Wed Jul 24 16:20:32 2013  

 Parallel job on  1  processors
Processing $rem in /usr/local/qchem/config/preferences.

theFileMan(): MAXOPENFILES=974 MAX_SUB_FILE_NUM=16
Maximum size of a physical file is 2.0 GB, maximum size of a tmp-file is 32.0 GB


--------------------------------------------------------------
User input:
--------------------------------------------------------------

$molecule 
READ 
$end 

$rem
   EXCHANGE B3LYP
   UNRESTRICTED TRUE
   SYMMETRY_DECOMPOSITION       0
   BASIS                   g3large
   JOBTYPE                 freq
   mem_static              760
   max_scf_cycles          200
   scf_final_print         1
   sym_ignore              true
   JOBTYPE                 freq
   IDERIV 1
   SCF_GUESS READ
$end
--------------------------------------------------------------
 Writing REM_CC_EA            6
 ----------------------------------------------------
       Standard Nuclear Orientation (Angstroms)
    I     Atom         X            Y            Z
 ----------------------------------------------------
    1      C      -0.000493     0.000000     0.005237
    2      C      -0.000160     0.000000     1.486018
    3      F       1.251264     0.000000    -0.457903
    4      F      -0.625615    -1.083738    -0.459002
    5      F      -0.625615     1.083738    -0.459002
    6      N       0.000618     0.000000     2.632282
 ----------------------------------------------------
 Nuclear Repulsion Energy =   231.3468449193 hartrees
 There are       23 alpha and       23 beta electrons
 Requested basis set is G3large
 There are 60 shells and 252 basis functions

Total QAlloc Memory Limit   2000 MB
Mega-Array Size       759 MB
MEM_STATIC part       760 MB

                       Distance Matrix (Angstroms)
             C (  1)   C (  2)   F (  3)   F (  4)   F (  5)
   C (  2)  1.480781
   F (  3)  1.334689  2.311902
   F (  4)  1.334459  2.312743  2.167294
   F (  5)  1.334459  2.312743  2.167294  2.167476
   N (  6)  2.627045  1.146264  3.333670  3.335069  3.335069
 
 A cutoff of  1.0D-11 yielded   1553 shell pairs
 There are  28368 function pairs ( 37151 Cartesian)
Evaluating contribution to one-electron hamiltonian from nuclear
 Smallest overlap matrix eigenvalue = 4.58E-05
 Multipole matrices computed through 2nd order
 Guess MOs from SCF MO coefficient file
Reading MOs from coefficient file
Reading MOs from coefficient file
 An unrestricted hybrid HF-DFT SCF calculation will be
 performed using Pulay DIIS extrapolation
 Exchange:     0.2000 Hartree-Fock + 0.0800 Slater + 0.7200 Becke88
 Correlation:  0.8100 LYP + 0.1900 VWN1RPA
 Using SG-1 standard quadrature grid
 SCF converges when DIIS error is below 1.0E-08
 ---------------------------------------
  Cycle       Energy         DIIS Error
 ---------------------------------------
    1    -430.6132080327      3.52E-09
    2    -430.6132080342      5.74E-09 Convergence criterion met
 ---------------------------------------
 One-Electron    Energy = -1052.7125031954
 Total Coulomb   Energy =   439.8632980253
 Alpha Exchange  Energy =    -4.7071203072
 Beta  Exchange  Energy =    -4.7071203072
 DFT   Exchange  Energy =   -37.5357656261
 DFT Correlation Energy =    -2.1608415429
 Nuclear Repu.   Energy =   231.3468449193
 Nuclear Attr.   Energy = -1482.1367864086
 Kinetic         Energy =   429.4242832132
 <S^2> = 0.0000
 SCF time:  CPU 49.49 s  wall 49.57 s
 Final Alpha MO Eigenvalues
            1           2           3           4           5           6
    1 -24.7622537 -24.7622523 -24.7620804 -14.3764820 -10.5020641 -10.2642226
            7           8           9          10          11          12
    1  -1.3754531  -1.2849688  -1.2848119  -0.9695962  -0.8065537  -0.6900942
           13          14          15          16          17          18
    1  -0.6536509  -0.6535890  -0.5249297  -0.5249260  -0.4910467  -0.4909861
           19          20          21          22          23          24
    1  -0.4863650  -0.4655759  -0.4194098  -0.4028391  -0.4028213  -0.0468858
           25          26          27          28
    1  -0.0468802  -0.0044111   0.0304845   0.0505388
 Final Beta MO Eigenvalues
            1           2           3           4           5           6
    1 -24.7622537 -24.7622523 -24.7620804 -14.3764820 -10.5020641 -10.2642226
            7           8           9          10          11          12
    1  -1.3754531  -1.2849688  -1.2848119  -0.9695962  -0.8065537  -0.6900942
           13          14          15          16          17          18
    1  -0.6536509  -0.6535890  -0.5249297  -0.5249260  -0.4910467  -0.4909861
           19          20          21          22          23          24
    1  -0.4863650  -0.4655759  -0.4194098  -0.4028391  -0.4028213  -0.0468858
           25          26          27          28
    1  -0.0468802  -0.0044111   0.0304845   0.0505388
 Analysis of SCF Wavefunction
 
 --------------------------------------------------------------
                    Orbital Energies (a.u.)
 --------------------------------------------------------------
 
 Alpha MOs
 -- Occupied --
-24.762 -24.762 -24.762 -14.376 -10.502 -10.264  -1.375  -1.285
 -1.285  -0.970  -0.807  -0.690  -0.654  -0.654  -0.525  -0.525
 -0.491  -0.491  -0.486  -0.466  -0.419  -0.403  -0.403
 -- Virtual --
 -0.047  -0.047  -0.004   0.030   0.051   0.051   0.081   0.086
  0.086   0.105   0.155   0.155   0.158   0.172   0.200   0.201
  0.225   0.225   0.236   0.243   0.258   0.293   0.293   0.298
  0.330   0.330   0.338   0.359   0.378   0.378   0.517   0.517
  0.522   0.600   0.600   0.600   0.671   0.702   0.702   0.793
  0.794   0.794   0.824   0.824   0.866   0.927   1.060   1.060
  1.186   1.187   1.204   1.238   1.239   1.279   1.279   1.318
  1.342   1.348   1.349   1.349   1.431   1.431   1.444   1.665
  1.665   1.809   1.854   1.894   1.894   1.930   1.930   2.016
  2.035   2.051   2.051   2.071   2.232   2.265   2.265   2.458
  2.507   2.508   2.585   2.585   2.673   2.682   2.683   2.706
  2.727   2.801   2.965   2.965   3.132   3.132   3.168   3.180
  3.180   3.256   3.256   3.377   3.379   3.380   3.528   3.570
  3.570   3.592   3.613   3.655   3.671   3.703   3.703   3.890
  3.891   4.048   4.132   4.132   4.193   4.193   4.424   4.424
  4.471   4.766   4.766   4.906   5.159   5.159   5.919   5.997
  5.997   6.116   6.116   6.183   6.219   6.219   6.224   6.436
  6.536   6.538   6.538   6.548   6.554   6.554   6.586   6.604
  6.604   6.640   6.640   6.690   6.743   6.743   6.768   6.929
  6.929   7.098   7.250   7.251   7.372   7.379   7.634   7.634
  8.998   8.998   9.002   9.119   9.119   9.179   9.338   9.428
  9.429   9.511   9.695   9.837   9.837  10.041  10.042  24.377
 24.672  27.373  27.373  27.719  27.808  27.808  29.037  36.173
 37.615  37.615  38.344  40.420  40.520  40.567  40.651  40.651
 40.729  40.823  40.884  40.893  40.988  41.059  41.068  41.268
 41.268  41.625  50.037  50.045  50.063  50.096  50.102  50.104
 50.159  50.212  50.216  50.260  50.345  50.371  50.382  50.420
 50.437  55.672  55.672  55.744  55.744  55.745  55.746  56.062
 56.225  56.226  66.786  66.786  66.827
 
 Beta MOs
 -- Occupied --
-24.762 -24.762 -24.762 -14.376 -10.502 -10.264  -1.375  -1.285
 -1.285  -0.970  -0.807  -0.690  -0.654  -0.654  -0.525  -0.525
 -0.491  -0.491  -0.486  -0.466  -0.419  -0.403  -0.403
 -- Virtual --
 -0.047  -0.047  -0.004   0.030   0.051   0.051   0.081   0.086
  0.086   0.105   0.155   0.155   0.158   0.172   0.200   0.201
  0.225   0.225   0.236   0.243   0.258   0.293   0.293   0.298
  0.330   0.330   0.338   0.359   0.378   0.378   0.517   0.517
  0.522   0.600   0.600   0.600   0.671   0.702   0.702   0.793
  0.794   0.794   0.824   0.824   0.866   0.927   1.060   1.060
  1.186   1.187   1.204   1.238   1.239   1.279   1.279   1.318
  1.342   1.348   1.349   1.349   1.431   1.431   1.444   1.665
  1.665   1.809   1.854   1.894   1.894   1.930   1.930   2.016
  2.035   2.051   2.051   2.071   2.232   2.265   2.265   2.458
  2.507   2.508   2.585   2.585   2.673   2.682   2.683   2.706
  2.727   2.801   2.965   2.965   3.132   3.132   3.168   3.180
  3.180   3.256   3.256   3.377   3.379   3.380   3.528   3.570
  3.570   3.592   3.613   3.655   3.671   3.703   3.703   3.890
  3.891   4.048   4.132   4.132   4.193   4.193   4.424   4.424
  4.471   4.766   4.766   4.906   5.159   5.159   5.919   5.997
  5.997   6.116   6.116   6.183   6.219   6.219   6.224   6.436
  6.536   6.538   6.538   6.548   6.554   6.554   6.586   6.604
  6.604   6.640   6.640   6.690   6.743   6.743   6.768   6.929
  6.929   7.098   7.250   7.251   7.372   7.379   7.634   7.634
  8.998   8.998   9.002   9.119   9.119   9.179   9.338   9.428
  9.429   9.511   9.695   9.837   9.837  10.041  10.042  24.377
 24.672  27.373  27.373  27.719  27.808  27.808  29.037  36.173
 37.615  37.615  38.344  40.420  40.520  40.567  40.651  40.651
 40.729  40.823  40.884  40.893  40.988  41.059  41.068  41.268
 41.268  41.625  50.037  50.045  50.063  50.096  50.102  50.104
 50.159  50.212  50.216  50.260  50.345  50.371  50.382  50.420
 50.437  55.672  55.672  55.744  55.744  55.745  55.746  56.062
 56.225  56.226  66.786  66.786  66.827
 --------------------------------------------------------------
 
          Ground-State Mulliken Net Atomic Charges

     Atom                 Charge (a.u.)    Spin (a.u.)
  --------------------------------------------------------
      1 C                     0.425611       0.000000
      2 C                     0.276110       0.000000
      3 F                    -0.157369       0.000000
      4 F                    -0.156986       0.000000
      5 F                    -0.156986       0.000000
      6 N                    -0.230381       0.000000
  --------------------------------------------------------
  Sum of atomic charges =     0.000000
  Sum of spin   charges =     0.000000

 -----------------------------------------------------------------
                    Cartesian Multipole Moments
 -----------------------------------------------------------------
    Charge (ESU x 10^10)
                 0.0000
    Dipole Moment (Debye)
         X      -0.0036      Y       0.0000      Z      -1.2769
       Tot       1.2769
    Quadrupole Moments (Debye-Ang)
        XX     -31.5978     XY       0.0000     YY     -31.5949
        XZ      -0.0027     YZ       0.0000     ZZ     -38.6029
    Octapole Moments (Debye-Ang^2)
       XXX      -0.8626    XXY       0.0000    XYY       0.8582
       YYY       0.0000    XXZ     -15.2878    XYZ       0.0000
       YYZ     -15.2881    XZZ      -0.0081    YZZ       0.0000
       ZZZ     -74.5529
    Hexadecapole Moments (Debye-Ang^3)
      XXXX     -93.5855   XXXY       0.0000   XXYY     -31.1960
      XYYY       0.0000   YYYY     -93.5886   XXXZ      -0.1504
      XXYZ       0.0000   XYYZ       0.0938   YYYZ       0.0000
      XXZZ     -74.1854   XYZZ       0.0000   YYZZ     -74.1850
      XZZZ      -0.0669   YZZZ       0.0000   ZZZZ    -435.0098
 -----------------------------------------------------------------
 Calculating analytic gradient of the SCF energy
 Gradient of XC Energy
            1           2           3           4           5           6
    1   0.0005674  -0.0001846   0.2610277  -0.1308152  -0.1308152   0.0002198
    2  -0.0000000  -0.0000000   0.0000000  -0.2262468   0.2262468   0.0000000
    3  -0.0076054  -0.2514584  -0.0868319  -0.0870623  -0.0870623   0.5200203
 Gradient of SCF Energy
            1           2           3           4           5           6
    1   0.0000099   0.0000902  -0.0000165  -0.0000469  -0.0000469   0.0000102
    2  -0.0000000   0.0000000   0.0000000  -0.0000369   0.0000369  -0.0000000
    3   0.0000712  -0.0000428  -0.0000366  -0.0000021  -0.0000021   0.0000125
 Max gradient component =       9.023E-05
 RMS gradient           =       3.663E-05
 Gradient time:  CPU 104.80 s  wall 104.86 s
 ######################################################
 ######################################################
 # Starting finite difference calculation for IDERIV  #
 Finite diff step size: 1.89e-03 a.u.
 Writing REM_CC_EA            6
 ----------------------------------------------------
       Standard Nuclear Orientation (Angstroms)
    I     Atom         X            Y            Z
 ----------------------------------------------------
    1      C       0.000507     0.000000     0.005237
    2      C      -0.000160     0.000000     1.486018
    3      F       1.251264     0.000000    -0.457903
    4      F      -0.625615    -1.083738    -0.459002
    5      F      -0.625615     1.083738    -0.459002
    6      N       0.000618     0.000000     2.632282
 ----------------------------------------------------
 Nuclear Repulsion Energy =   231.3468608823 hartrees
 There are       23 alpha and       23 beta electrons

                       Distance Matrix (Angstroms)
             C (  1)   C (  2)   F (  3)   F (  4)   F (  5)
   C (  2)  1.480782
   F (  3)  1.333751  2.311902
   F (  4)  1.334928  2.312743  2.167294
   F (  5)  1.334928  2.312743  2.167294  2.167476
   N (  6)  2.627045  1.146264  3.333670  3.335069  3.335069
 
 Requested basis set is G3large
 There are 60 shells and 252 basis functions
 A cutoff of  1.0D-11 yielded   1553 shell pairs
 There are  28368 function pairs ( 37151 Cartesian)
Evaluating contribution to one-electron hamiltonian from nuclear
 Smallest overlap matrix eigenvalue = 4.58E-05
 Multipole matrices computed through 2nd order
 Guess MOs from SCF MO coefficient file
Reading MOs from coefficient file
Reading MOs from coefficient file
 An unrestricted hybrid HF-DFT SCF calculation will be
 performed using Pulay DIIS extrapolation
 Exchange:     0.2000 Hartree-Fock + 0.0800 Slater + 0.7200 Becke88
 Correlation:  0.8100 LYP + 0.1900 VWN1RPA
 Using SG-1 standard quadrature grid
 SCF converges when DIIS error is below 1.0E-08
 ---------------------------------------
  Cycle       Energy         DIIS Error
 ---------------------------------------
    1    -430.6132051779      2.83E-05
    2    -430.6132066439      9.64E-06
    3    -430.6132064194      1.26E-05
    4    -430.6132071644      1.05E-06
    5    -430.6132071630      1.91E-07
    6    -430.6132071662      5.69E-08
    7    -430.6132071633      6.52E-08
    8    -430.6132071647      5.83E-09 Convergence criterion met
 ---------------------------------------
 One-Electron    Energy = -1052.7125304500
 Total Coulomb   Energy =   439.8633099666
 Alpha Exchange  Energy =    -4.7071203213
 Beta  Exchange  Energy =    -4.7071203213
 DFT   Exchange  Energy =   -37.5357654463
 DFT Correlation Energy =    -2.1608414747
 Nuclear Repu.   Energy =   231.3468608823
 Nuclear Attr.   Energy = -1482.1368146703
 Kinetic         Energy =   429.4242842203
 <S^2> = 0.0000
 SCF time:  CPU 152.57 s  wall 152.80 s
 Final Alpha MO Eigenvalues
            1           2           3           4           5           6
    1 -24.7624396 -24.7620743 -24.7620729 -14.3764820 -10.5020640 -10.2642226
            7           8           9          10          11          12
    1  -1.3754547  -1.2851310  -1.2846489  -0.9695962  -0.8065537  -0.6900948
           13          14          15          16          17          18
    1  -0.6537037  -0.6535368  -0.5249380  -0.5249182  -0.4911219  -0.4909111
           19          20          21          22          23          24
    1  -0.4863642  -0.4655753  -0.4194098  -0.4028321  -0.4028283  -0.0469341
           25          26          27          28
    1  -0.0468321  -0.0044108   0.0304846   0.0505379
 Final Beta MO Eigenvalues
            1           2           3           4           5           6
    1 -24.7624396 -24.7620743 -24.7620729 -14.3764820 -10.5020640 -10.2642226
            7           8           9          10          11          12
    1  -1.3754547  -1.2851310  -1.2846489  -0.9695962  -0.8065537  -0.6900948
           13          14          15          16          17          18
    1  -0.6537037  -0.6535368  -0.5249380  -0.5249182  -0.4911219  -0.4909111
           19          20          21          22          23          24
    1  -0.4863642  -0.4655753  -0.4194098  -0.4028321  -0.4028283  -0.0469341
           25          26          27          28
    1  -0.0468321  -0.0044108   0.0304846   0.0505379
 Analysis of SCF Wavefunction
 
 --------------------------------------------------------------
                    Orbital Energies (a.u.)
 --------------------------------------------------------------
 
 Alpha MOs
 -- Occupied --
-24.762 -24.762 -24.762 -14.376 -10.502 -10.264  -1.375  -1.285
 -1.285  -0.970  -0.807  -0.690  -0.654  -0.654  -0.525  -0.525
[...]
       YYY       0.0000    XXZ     -15.2750    XYZ       0.0000
       YYZ     -15.2754    XZZ      -0.0082    YZZ       0.0000
       ZZZ     -74.5317
    Hexadecapole Moments (Debye-Ang^3)
      XXXX     -93.5782   XXXY       0.0000   XXYY     -31.1936
      XYYY       0.0000   YYYY     -93.5813   XXXZ      -0.1504
      XXYZ       0.0000   XYYZ       0.0937   YYYZ       0.0000
      XXZZ     -74.1414   XYZZ       0.0000   YYZZ     -74.1409
      XZZZ      -0.0670   YZZZ       0.0000   ZZZZ    -434.8081
 -----------------------------------------------------------------
 Calculating analytic gradient of the SCF energy
 Gradient of XC Energy
            1           2           3           4           5           6
    1   0.0005674  -0.0001850   0.2610289  -0.1308158  -0.1308158   0.0002203
    2  -0.0000000  -0.0000000   0.0000000  -0.2262477   0.2262477   0.0000000
    3  -0.0076385  -0.2513624  -0.0868365  -0.0870668  -0.0870668   0.5199710
 Gradient of SCF Energy
            1           2           3           4           5           6
    1   0.0000099   0.0000918  -0.0000153  -0.0000475  -0.0000475   0.0000086
    2  -0.0000000   0.0000000   0.0000000  -0.0000379   0.0000379  -0.0000000
    3   0.0000569   0.0023948  -0.0000365  -0.0000020  -0.0000020  -0.0024111
 Max gradient component =       2.411E-03
 RMS gradient           =       8.017E-04
 Gradient time:  CPU 100.32 s  wall 100.40 s
Dipole drv :
gprntSymmMtrx error report: 
 Final Hessian.
            1           2           3           4           5           6
    1   0.4903728  -0.0000008   0.0005843  -0.0571675  -0.0000009  -0.0000118
    2  -0.0000008   0.4915870  -0.0000041   0.0000007  -0.0572095   0.0000016
    3   0.0005843  -0.0000041   0.5759285  -0.0000786   0.0000018  -0.2269125
    4  -0.0571675   0.0000007  -0.0000786   0.1015427  -0.0000001   0.0008026
    5  -0.0000009  -0.0572095   0.0000018  -0.0000001   0.1015644   0.0000003
    6  -0.0000118   0.0000016  -0.2269125   0.0008026   0.0000003   1.6054763
    7  -0.2261842   0.0000000   0.0747785  -0.0212382   0.0000008   0.0282493
    8   0.0000019  -0.0723758   0.0000014  -0.0000005   0.0102710   0.0000000
    9   0.0811317   0.0000005  -0.1195935   0.0450384  -0.0000008  -0.0309444
   10  -0.1094276  -0.0667178  -0.0376502   0.0024014  -0.0135910  -0.0140826
   11  -0.0669376  -0.1869139  -0.0649114  -0.0136053  -0.0133508  -0.0243831
   12  -0.0408519  -0.0704910  -0.1185243  -0.0224619  -0.0389765  -0.0309131
   13  -0.1094246   0.0667202  -0.0376512   0.0024006   0.0135905  -0.0140827
   14   0.0669382  -0.1869135   0.0649072   0.0136047  -0.0133510   0.0243823
   15  -0.0408551   0.0704978  -0.1185304  -0.0224611   0.0389745  -0.0309119
   16   0.0118395  -0.0000026   0.0000193  -0.0279418   0.0000006  -0.0008716
   17   0.0000012   0.0118330   0.0000002   0.0000000  -0.0279260   0.0000000
   18   0.0000046   0.0000046   0.0076216  -0.0008394  -0.0000015  -1.2857807
            7           8           9          10          11          12
    1  -0.2261842   0.0000019   0.0811317  -0.1094276  -0.0669376  -0.0408519
    2   0.0000000  -0.0723758   0.0000005  -0.0667178  -0.1869139  -0.0704910
    3   0.0747785   0.0000014  -0.1195935  -0.0376502  -0.0649114  -0.1185243
    4  -0.0212382  -0.0000005   0.0450384   0.0024014  -0.0136053  -0.0224619
    5   0.0000008   0.0102710  -0.0000008  -0.0135910  -0.0133508  -0.0389765
    6   0.0282493   0.0000000  -0.0309444  -0.0140826  -0.0243831  -0.0309131
    7   0.3634096  -0.0000013  -0.1082849  -0.0591002  -0.0382411   0.0029663
    8  -0.0000013   0.0785716   0.0000004  -0.0492650  -0.0079471   0.0067640
    9  -0.1082849   0.0000004   0.1118350  -0.0071896   0.0008250   0.0193764
   10  -0.0591002  -0.0492650  -0.0071896   0.1485149   0.1229719   0.0541140
   11  -0.0382411  -0.0079471   0.0008250   0.1229719   0.2903937   0.0937747
   12   0.0029663   0.0067640   0.0193764   0.0541140   0.0937747   0.1104654
   13  -0.0591016   0.0492641  -0.0071888   0.0174828  -0.0053981   0.0044755
   14   0.0382398  -0.0079468  -0.0008246   0.0053967  -0.0837077   0.0058938
   15   0.0029676  -0.0067651   0.0193773   0.0044755  -0.0058949   0.0196477
   16   0.0022160   0.0000005  -0.0035075   0.0001245   0.0012042   0.0017557
   17  -0.0000004  -0.0005741   0.0000002   0.0012036   0.0015224   0.0030350
   18  -0.0006613  -0.0000017  -0.0000532   0.0003227   0.0005724  -0.0000556
           13          14          15          16          17          18
    1  -0.1094246   0.0669382  -0.0408551   0.0118395   0.0000012   0.0000046
    2   0.0667202  -0.1869135   0.0704978  -0.0000026   0.0118330   0.0000046
    3  -0.0376512   0.0649072  -0.1185304   0.0000193   0.0000002   0.0076216
    4   0.0024006   0.0136047  -0.0224611  -0.0279418   0.0000000  -0.0008394
    5   0.0135905  -0.0133510   0.0389745   0.0000006  -0.0279260  -0.0000015
    6  -0.0140827   0.0243823  -0.0309119  -0.0008716   0.0000000  -1.2857807
    7  -0.0591016   0.0382398   0.0029676   0.0022160  -0.0000004  -0.0006613
    8   0.0492641  -0.0079468  -0.0067651   0.0000005  -0.0005741  -0.0000017
    9  -0.0071888  -0.0008246   0.0193773  -0.0035075   0.0000002  -0.0000532
   10   0.0174828   0.0053967   0.0044755   0.0001245   0.0012036   0.0003227
   11  -0.0053981  -0.0837077  -0.0058949   0.0012042   0.0015224   0.0005724
   12   0.0044755   0.0058938   0.0196477   0.0017557   0.0030350  -0.0000556
   13   0.1485147  -0.1229723   0.0541161   0.0001241  -0.0012042   0.0003240
   14  -0.1229723   0.2903944  -0.0937760  -0.0012026   0.0015233  -0.0005723
   15   0.0541161  -0.0937760   0.1104687   0.0017547  -0.0030350  -0.0000532
   16   0.0001241  -0.0012026   0.0017547   0.0136389  -0.0000002   0.0008494
   17  -0.0012042   0.0015233  -0.0030350  -0.0000002   0.0136218   0.0000002
   18   0.0003240  -0.0005723  -0.0000532   0.0008494   0.0000002   1.2783255
 Writing REM_CC_EA            6
 ----------------------------------------------------
       Standard Nuclear Orientation (Angstroms)
    I     Atom         X            Y            Z
 ----------------------------------------------------
    1      C      -0.000493     0.000000     0.005237
    2      C      -0.000160     0.000000     1.486018
    3      F       1.251264     0.000000    -0.457903
    4      F      -0.625615    -1.083738    -0.459002
    5      F      -0.625615     1.083738    -0.459002
    6      N       0.000618     0.000000     2.632282
 ----------------------------------------------------
 Nuclear Repulsion Energy =   231.3468449193 hartrees
 There are       23 alpha and       23 beta electrons
 old dipole drv.
            1           2           3           4           5           6
    1   1.8271618   0.0000252   0.0010742   0.0428463   0.0000034  -0.0007815
    2  -0.0000084   1.8276500   0.0000682  -0.0000008   0.0428258  -0.0000346
    3   0.0009265   0.0000326   1.9588478  -0.0009206  -0.0000137  -0.4967310
            7           8           9          10          11          12
    1  -0.8121989  -0.0000392   0.2420362  -0.4089799  -0.2323225  -0.1214038
    2  -0.0000003  -0.2753982  -0.0000198  -0.2322722  -0.6776038  -0.2101481
    3   0.2254977   0.0000056  -0.4986636  -0.1129245  -0.1955485  -0.4984909
           13          14          15          16          17          18
    1  -0.4090249   0.2322919  -0.1213608  -0.2400062  -0.0000102   0.0004322
    2   0.2322352  -0.6775974   0.2100503   0.0000419  -0.2400416  -0.0000368
    3  -0.1129287   0.1956267  -0.4983118   0.0002281  -0.0000096   0.0333531
 New transposed dipole drv.
            1           2           3
    1   1.8271618  -0.0000084   0.0009265
    2   0.0000252   1.8276500   0.0000326
    3   0.0010742   0.0000682   1.9588478
    4   0.0428463  -0.0000008  -0.0009206
    5   0.0000034   0.0428258  -0.0000137
    6  -0.0007815  -0.0000346  -0.4967310
    7  -0.8121989  -0.0000003   0.2254977
    8  -0.0000392  -0.2753982   0.0000056
    9   0.2420362  -0.0000198  -0.4986636
   10  -0.4089799  -0.2322722  -0.1129245
   11  -0.2323225  -0.6776038  -0.1955485
   12  -0.1214038  -0.2101481  -0.4984909
   13  -0.4090249   0.2322352  -0.1129287
   14   0.2322919  -0.6775974   0.1956267
   15  -0.1213608   0.2100503  -0.4983118
   16  -0.2400062   0.0000419   0.0002281
   17  -0.0000102  -0.2400416  -0.0000096
   18   0.0004322  -0.0000368   0.0333531
FINAL TENSOR RESULT:
Order 2, Length 18
Order 1, Length 18
   0.4903728  -0.0000008   0.0005843  -0.0571675  -0.0000009  -0.0000118  -0.2261842   0.0000019   0.0811317  -0.1094276  -0.0669376  -0.0408519  -0.1094246   0.0669382  -0.0408551   0.0118395   0.0000012   0.0000046
Order 1, Length 18
  -0.0000008   0.4915870  -0.0000041   0.0000007  -0.0572095   0.0000016   0.0000000  -0.0723758   0.0000005  -0.0667178  -0.1869139  -0.0704910   0.0667202  -0.1869135   0.0704978  -0.0000026   0.0118330   0.0000046
Order 1, Length 18
   0.0005843  -0.0000041   0.5759285  -0.0000786   0.0000018  -0.2269125   0.0747785   0.0000014  -0.1195935  -0.0376502  -0.0649114  -0.1185243  -0.0376512   0.0649072  -0.1185304   0.0000193   0.0000002   0.0076216
Order 1, Length 18
  -0.0571675   0.0000007  -0.0000786   0.1015427  -0.0000001   0.0008026  -0.0212382  -0.0000005   0.0450384   0.0024014  -0.0136053  -0.0224619   0.0024006   0.0136047  -0.0224611  -0.0279418   0.0000000  -0.0008394
Order 1, Length 18
  -0.0000009  -0.0572095   0.0000018  -0.0000001   0.1015644   0.0000003   0.0000008   0.0102710  -0.0000008  -0.0135910  -0.0133508  -0.0389765   0.0135905  -0.0133510   0.0389745   0.0000006  -0.0279260  -0.0000015
Order 1, Length 18
  -0.0000118   0.0000016  -0.2269125   0.0008026   0.0000003   1.6054763   0.0282493   0.0000000  -0.0309444  -0.0140826  -0.0243831  -0.0309131  -0.0140827   0.0243823  -0.0309119  -0.0008716   0.0000000  -1.2857807
Order 1, Length 18
  -0.2261842   0.0000000   0.0747785  -0.0212382   0.0000008   0.0282493   0.3634096  -0.0000013  -0.1082849  -0.0591002  -0.0382411   0.0029663  -0.0591016   0.0382398   0.0029676   0.0022160  -0.0000004  -0.0006613
Order 1, Length 18
   0.0000019  -0.0723758   0.0000014  -0.0000005   0.0102710   0.0000000  -0.0000013   0.0785716   0.0000004  -0.0492650  -0.0079471   0.0067640   0.0492641  -0.0079468  -0.0067651   0.0000005  -0.0005741  -0.0000017
Order 1, Length 18
   0.0811317   0.0000005  -0.1195935   0.0450384  -0.0000008  -0.0309444  -0.1082849   0.0000004   0.1118350  -0.0071896   0.0008250   0.0193764  -0.0071888  -0.0008246   0.0193773  -0.0035075   0.0000002  -0.0000532
Order 1, Length 18
  -0.1094276  -0.0667178  -0.0376502   0.0024014  -0.0135910  -0.0140826  -0.0591002  -0.0492650  -0.0071896   0.1485149   0.1229719   0.0541140   0.0174828   0.0053967   0.0044755   0.0001245   0.0012036   0.0003227
Order 1, Length 18
  -0.0669376  -0.1869139  -0.0649114  -0.0136053  -0.0133508  -0.0243831  -0.0382411  -0.0079471   0.0008250   0.1229719   0.2903937   0.0937747  -0.0053981  -0.0837077  -0.0058949   0.0012042   0.0015224   0.0005724
Order 1, Length 18
  -0.0408519  -0.0704910  -0.1185243  -0.0224619  -0.0389765  -0.0309131   0.0029663   0.0067640   0.0193764   0.0541140   0.0937747   0.1104654   0.0044755   0.0058938   0.0196477   0.0017557   0.0030350  -0.0000556
Order 1, Length 18
  -0.1094246   0.0667202  -0.0376512   0.0024006   0.0135905  -0.0140827  -0.0591016   0.0492641  -0.0071888   0.0174828  -0.0053981   0.0044755   0.1485147  -0.1229723   0.0541161   0.0001241  -0.0012042   0.0003240
Order 1, Length 18
   0.0669382  -0.1869135   0.0649072   0.0136047  -0.0133510   0.0243823   0.0382398  -0.0079468  -0.0008246   0.0053967  -0.0837077   0.0058938  -0.1229723   0.2903944  -0.0937760  -0.0012026   0.0015233  -0.0005723
Order 1, Length 18
  -0.0408551   0.0704978  -0.1185304  -0.0224611   0.0389745  -0.0309119   0.0029676  -0.0067651   0.0193773   0.0044755  -0.0058949   0.0196477   0.0541161  -0.0937760   0.1104687   0.0017547  -0.0030350  -0.0000532
Order 1, Length 18
   0.0118395  -0.0000026   0.0000193  -0.0279418   0.0000006  -0.0008716   0.0022160   0.0000005  -0.0035075   0.0001245   0.0012042   0.0017557   0.0001241  -0.0012026   0.0017547   0.0136389  -0.0000002   0.0008494
Order 1, Length 18
   0.0000012   0.0118330   0.0000002   0.0000000  -0.0279260   0.0000000  -0.0000004  -0.0005741   0.0000002   0.0012036   0.0015224   0.0030350  -0.0012042   0.0015233  -0.0030350  -0.0000002   0.0136218   0.0000002
Order 1, Length 18
   0.0000046   0.0000046   0.0076216  -0.0008394  -0.0000015  -1.2857807  -0.0006613  -0.0000017  -0.0000532   0.0003227   0.0005724  -0.0000556   0.0003240  -0.0005723  -0.0000532   0.0008494   0.0000002   1.2783255


 # Finishing finite difference calculation for IDERIV #
 ######################################################
 ######################################################
 Requested basis set is G3large
 There are 60 shells and 252 basis functions
 **********************************************************************
 **                                                                  **
 **                       VIBRATIONAL ANALYSIS                       **
 **                       --------------------                       **
 **                                                                  **
 **        VIBRATIONAL FREQUENCIES (CM**-1) AND NORMAL MODES         **
 **     FORCE CONSTANTS (mDYN/ANGSTROM) AND REDUCED MASSES (AMU)     **
 **                  INFRARED INTENSITIES (KM/MOL)                   **
 **                                                                  **
 **********************************************************************
 

 Mode:                 1                      2                      3
 Frequency:       195.22                 197.50                 463.41
 Force Cnst:      0.3540                 0.3620                 2.0253
 Red. Mass:      15.7641                15.7497                16.0070
 IR Active:          YES                    YES                    YES
 IR Intens:        6.814                  6.876                  3.747
 Raman Active:       YES                    YES                    YES
               X      Y      Z        X      Y      Z        X      Y      Z
 C          0.000 -0.216  0.000   -0.217  0.000  0.001    0.117  0.000  0.002
 C          0.000 -0.344  0.000   -0.347  0.000  0.001    0.629 -0.001  0.004
 F          0.000 -0.069  0.000   -0.013  0.000  0.522    0.263  0.001  0.232
 F          0.025 -0.026 -0.454   -0.054  0.025 -0.262   -0.308  0.334 -0.120
 F         -0.025 -0.026  0.453   -0.053 -0.025 -0.262   -0.307 -0.334 -0.120
 N          0.000  0.645  0.000    0.645  0.000  0.000   -0.161  0.000  0.005
 TransDip   0.000 -0.084  0.000   -0.084  0.000  0.001    0.062  0.000  0.001

 Mode:                 4                      5                      6
 Frequency:       463.76                 518.70                 626.67
 Force Cnst:      2.0251                 2.3954                 3.4682
 Red. Mass:      15.9809                15.1109                14.9892
 IR Active:          YES                    YES                    YES
 IR Intens:        3.650                  5.706                  0.025
 Raman Active:       YES                    YES                    YES
               X      Y      Z        X      Y      Z        X      Y      Z
 C          0.000  0.115  0.000   -0.002  0.000  0.121   -0.286 -0.004  0.000
 C          0.001  0.632  0.000   -0.004  0.000  0.532    0.692  0.010  0.000
 F          0.000 -0.499  0.000   -0.183  0.000 -0.288   -0.378  0.004  0.249
 F          0.331  0.075 -0.202    0.093  0.152 -0.284    0.105 -0.288 -0.128
 F         -0.332  0.073  0.202    0.093 -0.152 -0.284    0.113  0.281 -0.121
 N          0.000 -0.163  0.000    0.000  0.000  0.601   -0.131 -0.002  0.000
 TransDip   0.000  0.061  0.000   -0.001  0.000  0.076   -0.005  0.000  0.000

 Mode:                 7                      8                      9
 Frequency:       626.71                 808.13                1178.75
 Force Cnst:      3.4735                 6.6988                10.7746
 Red. Mass:      15.0102                17.4094                13.1616
 IR Active:          YES                    YES                    YES
 IR Intens:        0.015                  3.692                325.482
 Raman Active:       YES                    YES                    YES
               X      Y      Z        X      Y      Z        X      Y      Z
 C          0.004 -0.284  0.000    0.003  0.000 -0.299    0.911  0.002 -0.006
 C         -0.010  0.691  0.000   -0.002  0.000  0.240   -0.067  0.000  0.001
 F          0.005  0.275 -0.004    0.493  0.000 -0.069   -0.308  0.000  0.117
 F         -0.286 -0.214 -0.214   -0.247 -0.425 -0.070   -0.118 -0.107 -0.058
 F          0.283 -0.222  0.217   -0.247  0.425 -0.070   -0.118  0.106 -0.057
 N          0.002 -0.131  0.000    0.001  0.000  0.335    0.015  0.000  0.001
 TransDip   0.000 -0.004  0.000    0.001  0.000 -0.062    0.578  0.001 -0.004

 Mode:                10                     11                     12
 Frequency:      1179.33                1220.18                2385.61
 Force Cnst:     10.7782                11.2663                42.5984
 Red. Mass:      13.1529                12.8435                12.7041
 IR Active:          YES                    YES                    YES
 IR Intens:      325.808                342.109                 26.536
 Raman Active:       YES                    YES                    YES
               X      Y      Z        X      Y      Z        X      Y      Z
 C         -0.002  0.911  0.000    0.007  0.000  0.921    0.000  0.000 -0.091
 C          0.000 -0.068  0.000   -0.001  0.000 -0.068    0.000  0.000  0.800
 F          0.001 -0.058  0.000    0.137  0.000 -0.132    0.005  0.000 -0.004
 F         -0.107 -0.243 -0.101   -0.070 -0.120 -0.132   -0.002 -0.004 -0.004
 F          0.107 -0.243  0.101   -0.070  0.120 -0.132   -0.002  0.004 -0.004
 N          0.000  0.015  0.000    0.000  0.000 -0.193    0.000  0.000 -0.593
 TransDip  -0.001  0.578  0.000    0.004  0.000  0.592    0.000  0.000 -0.165

 STANDARD THERMODYNAMIC QUANTITIES AT   298.18 K  AND     1.00 ATM

   This Molecule has  0 Imaginary Frequencies
   Zero point vibrational energy:       14.101 kcal/mol

   Atom    1 Element C  Has Mass   12.00000
   Atom    2 Element C  Has Mass   12.00000
   Atom    3 Element F  Has Mass   18.99840
   Atom    4 Element F  Has Mass   18.99840
   Atom    5 Element F  Has Mass   18.99840
   Atom    6 Element N  Has Mass   14.00307
   Molecular Mass:    94.998270 amu
   Principal axes and moments of inertia in atomic units:
                             1           2           3
    Eigenvalues --      318.69445   612.47864   612.51441
          X               0.00055     0.00002     1.00000
          Y               0.00000     1.00000    -0.00002
          Z               1.00000     0.00000    -0.00055
   Rotational Symmetry Number is   1
   The Molecule is an Asymmetric Top
   Translational Enthalpy:        0.889 kcal/mol
   Rotational Enthalpy:           0.889 kcal/mol
   Vibrational Enthalpy:         15.525 kcal/mol
   gas constant (RT):             0.593 kcal/mol
   Translational Entropy:        39.565  cal/mol.K
   Rotational Entropy:           26.283  cal/mol.K
   Vibrational Entropy:           7.601  cal/mol.K

   Total Enthalpy:               17.895 kcal/mol
   Total Entropy:                73.449  cal/mol.K
 Total job time:  9989.35s(wall), 9967.16s(cpu) 
 Wed Jul 24 19:07:01 2013

        *************************************************************
        *                                                           *
        *  Thank you very much for using Q-Chem.  Have a nice day.  *
        *                                                           *
        *************************************************************


0 sent ACK to 0 
now end server 0 ... 
