Process 0 of 1 is on cl242.stfx.acenet.ca - thread support 1
initial socket setup ...start
initial socket setup ...done 
now start server 0 ... 

cmd = /usr/bin/ssh clhead /usr/local/qchem/bin/get_hostid 1662200850 > /scratch/tmp/5954227.1.long.q/qchem29396/lic.dat
                  Welcome to Q-Chem
     A Quantum Leap Into The Future Of Chemistry

 Y. Shao, L. Fusti-Molnar, Y. Jung, J. Kussmann, C. Ochsenfeld,
 S. T. Brown, A. T. B. Gilbert, L. V. Slipchenko,S. V. Levchenko,
 D. P. O'Neill, R. A. DiStasio Jr., R. C. Lochan, T. Wang,
 G. J. O. Beran, N. A. Besley, J. M. Herbert, C. Y. Lin,
 T. Van Voorhis, S. H. Chien, A. Sodt, R. P. Steele, 
 V. A. Rassolov, P. E. Maslen, P. P. Korambath, R. D. Adamson,
 B. Austin, J. Baker, E. F. C. Byrd, H. Dachsel, R. J. Doerksen,
 A. Dreuw, B. D. Dunietz, A. D. Dutoi, T. R. Furlani,
 S. R. Gwaltney, A. Heyden, S. Hirata, C.-P. Hsu, G. Kedziora,
 R. Z. Khaliullin, P. Klunzinger, A. M. Lee, M. S. Lee, W. Liang,
 I. Lotan, N. Nair, B. Peters, E. I. Proynov, P. A. Pieniazek, 
 Y. M. Rhee, J. Ritchie, E. Rosta, C. D. Sherrill, 
 A. C. Simmonett, J. E. Subotnik, H. L. Woodcock III,
 W. Zhang, A. T. Bell, A. K. Chakraborty, D. M. Chipman,
 F. J. Keil, A. Warshel, W. J. Hehre, H. F. Schaefer III,
 J. Kong, A. I. Krylov, P. M. W. Gill, M. Head-Gordon,
 Q-Chem, Version 3.1, Q-Chem, Inc., Pittsburgh, PA (2007).

 Additional authors for Version 3.1: 
 Z. Gan, Y. Zhao, N. E. Schultz, D. Truhlar, E. Epifanovsky and M. Oana.

 Additional authors for Version 3.2: 
 R. Baer, B. R. Brooks, D. Casanova, J.-D. Chai, C.-L. Cheng, 
 C. Cramer, D. Crittenden, A. Ghysels, G. Hawkins, E. G. Hohenstein, 
 C. Kelley, W. Kurlancheek, D. Liotard, E. Livshits, P. Manohar, 
 A. Marenich, D. Neuhauser, R. Olson, M. A. Rohrdanz, K. S. Thanthiriwatte, 
 A. J. W. Thom, V. Vanovschi, C. F. Williams, Q. Wu and Z.-Q. You. 


 Intel X86 Linux Version

 Q-chem begins on Wed Apr 24 14:59:20 2013  

 Parallel job on  1  processors
Processing $rem in /usr/local/qchem/config/preferences.

theFileMan(): MAXOPENFILES=974 MAX_SUB_FILE_NUM=16
Maximum size of a physical file is 2.0 GB, maximum size of a tmp-file is 32.0 GB


--------------------------------------------------------------
User input:
--------------------------------------------------------------

$molecule
-1,2
N
N,1,AA
H,1,AH4,2,H4AA
H,1,AH5,2,H5AA,3,H4AH5,1
H,2,AH4,1,H4AA,3,H4AAH7,0
H,2,AH5,1,H5AA,5,H4AH5,1

AA=1.4373691
AH4=1.02194422
AH5=1.01729305
H4AA=111.78265471
H5AA=106.64309317
H4AH5=106.81573564
H4AAH7=25.8658655

$end

$comment
negative
$end

$xc_functional
C PBE   1.00
X wPBE  1.00
$end

$rem
SYMMETRY_DECOMPOSITION	0
exchange 		general
LRC_DFT                 true
BASIS                   g3large
omega			200
mem_static              760
max_scf_cycles          200
scf_final_print         1
sym_ignore              true
$end

--------------------------------------------------------------
 Writing REM_CC_EA            6
 ----------------------------------------------------
       Standard Nuclear Orientation (Angstroms)
    I     Atom         X            Y            Z
 ----------------------------------------------------
    1      N       0.000000     0.000000     0.000000
    2      N       0.000000     0.000000     1.437369
    3      H       0.948976     0.000000    -0.379230
    4      H      -0.433361     0.873036    -0.291362
    5      H       0.853905     0.414006     1.816599
    6      H      -0.009070    -0.974634     1.728731
 ----------------------------------------------------
 Nuclear Repulsion Energy =    41.4146934044 hartrees
 There are       10 alpha and        9 beta electrons
 Requested basis set is G3large
 There are 44 shells and 124 basis functions

Total QAlloc Memory Limit   2000 MB
Mega-Array Size       743 MB
MEM_STATIC part       760 MB

                       Distance Matrix (Angstroms)
             N (  1)   N (  2)   H (  3)   H (  4)   H (  5)
   N (  2)  1.437369
   H (  3)  1.021944  2.049533
   H (  4)  1.017293  1.984567  1.637305
   H (  5)  2.049533  1.021944  2.236538  2.512223
   H (  6)  1.984567  1.017293  2.512223  2.770322  1.637305
 
 A cutoff of  1.0D-08 yielded    985 shell pairs
 There are   7857 function pairs (  9484 Cartesian)
Evaluating contribution to one-electron hamiltonian from nuclear
 Smallest overlap matrix eigenvalue = 3.53E-04
 Multipole matrices computed through 2nd order

  Scale SEOQF with 1.000000e-01/1.000000e-01/1.000000e-01

 Standard Electronic Orientation quadrupole field applied
 Nucleus-field energy     =    -0.0000000020 hartrees
 Guess from superposition of atomic densities
 Warning:  Energy on first SCF cycle will be non-variational
 Long-range K will be added via erf
 Coulomb attenuation parameter = 0.2 bohr**(-1)
 An unrestricted Kohn-Sham SCF calculation will be
 performed using Pulay DIIS extrapolation
 Exchange:  wPBE + LR-HF      Correlation:  PBE
 Using SG-1 standard quadrature grid
 SCF converges when DIIS error is below 1.0E-05
 Requested basis set is G3large
 There are 44 shells and 124 basis functions
 A cutoff of  1.0D-08 yielded    985 shell pairs
 There are   7857 function pairs (  9484 Cartesian)
 Warning!  Inaccurate integrated density:
   Number of electrons =    19
   Numerical integral  =    17.999931560745
   Relative error      =    -5.2635181013 %
 ---------------------------------------
  Cycle       Energy         DIIS Error
 ---------------------------------------
    1    -111.9566314638      3.86E-02
    2    -111.6743297772      6.35E-03
    3    -111.6745773895      7.75E-03
    4    -111.7721774404      5.55E-04
    5    -111.7740014029      2.17E-04
    6    -111.7748512884      6.83E-05
    7    -111.7751043997      3.35E-05
    8    -111.7752184322      2.24E-05
    9    -111.7752693011      1.19E-05
   10    -111.7752910429      3.74E-06 Convergence criterion met
 ---------------------------------------
 One-Electron    Energy =  -235.9718172327
 Total Coulomb   Energy =    98.0719804314
 Alpha Exchange  Energy =    -1.0448527136
 Beta  Exchange  Energy =    -0.9770251834
 DFT   Exchange  Energy =   -12.6741014168
 DFT Correlation Energy =    -0.5941683302
 Nuclear Repu.   Energy =    41.4146934024
 Nuclear Attr.   Energy =  -347.4701124265
 Kinetic         Energy =   111.4982951938
 <S^2> = 0.7502
 SCF time:  CPU 37.15 s  wall 39.33 s
 Final Alpha MO Eigenvalues
            1           2           3           4           5           6
    1 -13.9345152 -13.9344838  -0.8200921  -0.6295560  -0.3943680  -0.3804761
            7           8           9          10          11          12
    1  -0.3485868  -0.1577636  -0.1541562   0.0280925   0.1547212   0.1676554
           13          14          15
    1   0.1707131   0.2981964   0.3053814
 Final Beta MO Eigenvalues
            1           2           3           4           5           6
    1 -13.9339112 -13.9338804  -0.8192076  -0.6274881  -0.3919939  -0.3791608
            7           8           9          10          11          12
    1  -0.3472732  -0.1567110  -0.1532458   0.1589472   0.1683607   0.1858953
           13          14
    1   0.1895761   0.3027686
 Analysis of SCF Wavefunction
 
 --------------------------------------------------------------
                    Orbital Energies (a.u.)
 --------------------------------------------------------------
 
 Alpha MOs
 -- Occupied --
-13.935 -13.934  -0.820  -0.630  -0.394  -0.380  -0.349  -0.158
 -0.154   0.028
 -- Virtual --
  0.155   0.168   0.171   0.298   0.305   0.313   0.314   0.330
  0.342   0.364   0.375   0.377   0.412   0.418   0.458   0.458
  0.698   0.720   0.776   0.782   0.784   0.811   0.860   0.867
  0.906   0.924   0.931   0.955   1.086   1.104   1.173   1.191
  1.209   1.247   1.370   1.408   1.458   1.550   1.553   1.594
  1.640   1.709   1.744   1.824   1.877   1.942   2.006   2.057
  2.104   2.126   2.555   2.749   2.891   2.968   3.447   3.472
  3.546   3.556   3.567   3.632   3.700   3.719   3.766   3.877
  3.921   3.926   3.950   3.965   4.073   4.081   4.232   4.484
  4.495   4.570   4.574   4.764   4.807   4.891   4.939   5.049
  5.143   5.245   5.285   5.309   5.343   5.347   5.458   5.522
  5.618   5.656   5.690   5.782   6.378   6.551   6.568   6.593
 35.576  35.595  37.373  37.677  37.850  38.218  38.263  38.825
 40.617  40.643  40.647  40.696  40.708  40.722  40.738  40.765
 40.773  40.792
 
 Beta MOs
 -- Occupied --
-13.934 -13.934  -0.819  -0.627  -0.392  -0.379  -0.347  -0.157
 -0.153
 -- Virtual --
  0.159   0.168   0.186   0.190   0.303   0.307   0.315   0.318
  0.331   0.349   0.366   0.377   0.381   0.413   0.420   0.460
  0.460   0.700   0.721   0.777   0.785   0.786   0.814   0.863
  0.870   0.909   0.925   0.933   0.956   1.088   1.105   1.176
  1.194   1.212   1.250   1.373   1.410   1.462   1.552   1.556
  1.599   1.642   1.712   1.747   1.825   1.879   1.944   2.008
  2.057   2.106   2.128   2.556   2.750   2.892   2.969   3.448
  3.473   3.547   3.557   3.568   3.632   3.700   3.720   3.768
  3.878   3.922   3.927   3.951   3.966   4.075   4.082   4.234
  4.485   4.496   4.571   4.575   4.765   4.808   4.892   4.940
  5.050   5.145   5.247   5.286   5.310   5.344   5.348   5.460
  5.524   5.620   5.658   5.692   5.784   6.380   6.553   6.570
  6.595  35.576  35.596  37.373  37.677  37.851  38.219  38.264
 38.827  40.617  40.643  40.648  40.697  40.708  40.723  40.739
 40.766  40.774  40.793
 --------------------------------------------------------------
 
          Ground-State Mulliken Net Atomic Charges

     Atom                 Charge (a.u.)    Spin (a.u.)
  --------------------------------------------------------
      1 N                     0.132438      -0.471142
      2 N                     0.132327      -0.471073
      3 H                    -0.722633       0.901627
      4 H                     0.088900       0.070865
      5 H                    -0.720381       0.899252
      6 H                     0.089349       0.070471
  --------------------------------------------------------
  Sum of atomic charges =    -1.000000
  Sum of spin   charges =     1.000000

 -----------------------------------------------------------------
                    Cartesian Multipole Moments
 -----------------------------------------------------------------
    Charge (ESU x 10^10)
                -4.8032
    Dipole Moment (Debye)
         X      -5.4881      Y      -1.2584      Z      -3.4414
       Tot       6.5989
    Quadrupole Moments (Debye-Ang)
        XX     -39.9017     XY      -2.4807     YY     -29.6526
        XZ      -3.1330     YZ      -4.3629     ZZ     -34.6675
    Octapole Moments (Debye-Ang^2)
       XXX     -73.8162    XXY      -7.0113    XYY     -22.0936
       YYY     -14.9918    XXZ     -28.7009    XYZ      -1.6196
       YYZ     -21.1968    XZZ     -25.7684    YZZ     -11.1483
       ZZZ     -71.0844
    Hexadecapole Moments (Debye-Ang^3)
      XXXX    -311.2423   XXXY     -19.0711   XXYY     -77.8243
      XYYY     -16.9518   YYYY    -162.4123   XXXZ     -50.2016
      XXYZ      -8.8211   XYYZ     -15.7748   YYYZ     -18.9908
      XXZZ    -121.3597   XYZZ      -8.4295   YYZZ     -85.3537
      XZZZ     -50.0884   YZZZ     -28.6299   ZZZZ    -360.1913
 -----------------------------------------------------------------
 Total job time:  39.95s(wall), 37.28s(cpu) 
 Wed Apr 24 14:59:59 2013

        *************************************************************
        *                                                           *
        *  Thank you very much for using Q-Chem.  Have a nice day.  *
        *                                                           *
        *************************************************************


0 sent ACK to 0 
now end server 0 ... 
 
**********************************************************************
Job 2 of 3 
**********************************************************************
 
Process 0 of 1 is on cl242.stfx.acenet.ca - thread support 1
initial socket setup ...start
initial socket setup ...done 
now start server 0 ... 

cmd = /usr/bin/ssh clhead /usr/local/qchem/bin/get_hostid 1466644552 > /scratch/tmp/5954227.1.long.q/qchem29396/lic.dat
                  Welcome to Q-Chem
     A Quantum Leap Into The Future Of Chemistry

 Y. Shao, L. Fusti-Molnar, Y. Jung, J. Kussmann, C. Ochsenfeld,
 S. T. Brown, A. T. B. Gilbert, L. V. Slipchenko,S. V. Levchenko,
 D. P. O'Neill, R. A. DiStasio Jr., R. C. Lochan, T. Wang,
 G. J. O. Beran, N. A. Besley, J. M. Herbert, C. Y. Lin,
 T. Van Voorhis, S. H. Chien, A. Sodt, R. P. Steele, 
 V. A. Rassolov, P. E. Maslen, P. P. Korambath, R. D. Adamson,
 B. Austin, J. Baker, E. F. C. Byrd, H. Dachsel, R. J. Doerksen,
 A. Dreuw, B. D. Dunietz, A. D. Dutoi, T. R. Furlani,
 S. R. Gwaltney, A. Heyden, S. Hirata, C.-P. Hsu, G. Kedziora,
 R. Z. Khaliullin, P. Klunzinger, A. M. Lee, M. S. Lee, W. Liang,
 I. Lotan, N. Nair, B. Peters, E. I. Proynov, P. A. Pieniazek, 
 Y. M. Rhee, J. Ritchie, E. Rosta, C. D. Sherrill, 
 A. C. Simmonett, J. E. Subotnik, H. L. Woodcock III,
 W. Zhang, A. T. Bell, A. K. Chakraborty, D. M. Chipman,
 F. J. Keil, A. Warshel, W. J. Hehre, H. F. Schaefer III,
 J. Kong, A. I. Krylov, P. M. W. Gill, M. Head-Gordon,
 Q-Chem, Version 3.1, Q-Chem, Inc., Pittsburgh, PA (2007).

 Additional authors for Version 3.1: 
 Z. Gan, Y. Zhao, N. E. Schultz, D. Truhlar, E. Epifanovsky and M. Oana.

 Additional authors for Version 3.2: 
 R. Baer, B. R. Brooks, D. Casanova, J.-D. Chai, C.-L. Cheng, 
 C. Cramer, D. Crittenden, A. Ghysels, G. Hawkins, E. G. Hohenstein, 
 C. Kelley, W. Kurlancheek, D. Liotard, E. Livshits, P. Manohar, 
 A. Marenich, D. Neuhauser, R. Olson, M. A. Rohrdanz, K. S. Thanthiriwatte, 
 A. J. W. Thom, V. Vanovschi, C. F. Williams, Q. Wu and Z.-Q. You. 


 Intel X86 Linux Version

 Q-chem begins on Wed Apr 24 15:00:03 2013  

 Parallel job on  1  processors
Processing $rem in /usr/local/qchem/config/preferences.

theFileMan(): MAXOPENFILES=974 MAX_SUB_FILE_NUM=16
Maximum size of a physical file is 2.0 GB, maximum size of a tmp-file is 32.0 GB


--------------------------------------------------------------
User input:
--------------------------------------------------------------

$molecule
0,1
N
N,1,AA
H,1,AH4,2,H4AA
H,1,AH5,2,H5AA,3,H4AH5,1
H,2,AH4,1,H4AA,3,H4AAH7,0
H,2,AH5,1,H5AA,5,H4AH5,1

AA=1.4373691
AH4=1.02194422
AH5=1.01729305
H4AA=111.78265471
H5AA=106.64309317
H4AH5=106.81573564
H4AAH7=25.8658655

$end

$comment
neutral
$end

$xc_functional
C PBE   1.00
X wPBE  1.00
$end


$rem
SYMMETRY_DECOMPOSITION	0
LRC_DFT                 true
exchange 		general
BASIS                   g3large
omega			200
mem_static              760
max_scf_cycles          200
scf_final_print         1
sym_ignore              true
$end

--------------------------------------------------------------
 Writing REM_CC_EA            6
 ----------------------------------------------------
       Standard Nuclear Orientation (Angstroms)
    I     Atom         X            Y            Z
 ----------------------------------------------------
    1      N       0.000000     0.000000     0.000000
    2      N       0.000000     0.000000     1.437369
    3      H       0.948976     0.000000    -0.379230
    4      H      -0.433361     0.873036    -0.291362
    5      H       0.853905     0.414006     1.816599
    6      H      -0.009070    -0.974634     1.728731
 ----------------------------------------------------
 Nuclear Repulsion Energy =    41.4146934044 hartrees
 There are        9 alpha and        9 beta electrons
 Requested basis set is G3large
 There are 44 shells and 124 basis functions

Total QAlloc Memory Limit   2000 MB
Mega-Array Size       743 MB
MEM_STATIC part       760 MB

                       Distance Matrix (Angstroms)
             N (  1)   N (  2)   H (  3)   H (  4)   H (  5)
   N (  2)  1.437369
   H (  3)  1.021944  2.049533
   H (  4)  1.017293  1.984567  1.637305
   H (  5)  2.049533  1.021944  2.236538  2.512223
   H (  6)  1.984567  1.017293  2.512223  2.770322  1.637305
 
 A cutoff of  1.0D-08 yielded    985 shell pairs
 There are   7857 function pairs (  9484 Cartesian)
Evaluating contribution to one-electron hamiltonian from nuclear
 Smallest overlap matrix eigenvalue = 3.53E-04
 Multipole matrices computed through 2nd order

  Scale SEOQF with 1.000000e-01/1.000000e-01/1.000000e-01

 Standard Electronic Orientation quadrupole field applied
 Nucleus-field energy     =    -0.0000000020 hartrees
 Guess from superposition of atomic densities
 Warning:  Energy on first SCF cycle will be non-variational
 Long-range K will be added via erf
 Coulomb attenuation parameter = 0.2 bohr**(-1)
 A restricted Kohn-Sham SCF calculation will be
 performed using Pulay DIIS extrapolation
 Exchange:  wPBE + LR-HF      Correlation:  PBE
 Using SG-1 standard quadrature grid
 SCF converges when DIIS error is below 1.0E-05
 Requested basis set is G3large
 There are 44 shells and 124 basis functions
 A cutoff of  1.0D-08 yielded    985 shell pairs
 There are   7857 function pairs (  9484 Cartesian)
 ---------------------------------------
  Cycle       Energy         DIIS Error
 ---------------------------------------
    1    -111.9566314638      3.86E-02
    2    -111.7469524969      5.57E-03
    3    -111.7496248562      5.92E-03
    4    -111.8029890851      4.90E-04
    5    -111.8033036454      1.06E-04
    6    -111.8033296390      1.55E-05
    7    -111.8033308253      3.80E-06 Convergence criterion met
 ---------------------------------------
 One-Electron    Energy =  -233.0461187822
 Total Coulomb   Energy =    95.0192096419
 Alpha Exchange  Energy =    -0.9775949327
 Beta  Exchange  Energy =    -0.9775949327
 DFT   Exchange  Energy =   -12.6504811844
 DFT Correlation Energy =    -0.5854440376
 Nuclear Repu.   Energy =    41.4146934024
 Nuclear Attr.   Energy =  -344.4712700570
 Kinetic         Energy =   111.4251512749
 SCF time:  CPU 20.63 s  wall 22.16 s
 Final Alpha MO Eigenvalues
            1           2           3           4           5           6
    1 -14.1000564 -14.1000448  -0.9853662  -0.7946793  -0.5607901  -0.5451297
            7           8           9          10          11          12
    1  -0.5103033  -0.3195582  -0.3148104   0.0306364   0.0517311   0.0675687
           13          14
    1   0.0691504   0.1719847
 Analysis of SCF Wavefunction
 
 --------------------------------------------------------------
                    Orbital Energies (a.u.)
 --------------------------------------------------------------
 
 Alpha MOs
 -- Occupied --
-14.100 -14.100  -0.985  -0.795  -0.561  -0.545  -0.510  -0.320
 -0.315
 -- Virtual --
  0.031   0.052   0.068   0.069   0.172   0.176   0.177   0.178
  0.200   0.207   0.226   0.235   0.238   0.274   0.279   0.310
  0.319   0.544   0.572   0.622   0.626   0.628   0.650   0.707
  0.711   0.755   0.772   0.776   0.806   0.932   0.951   1.019
  1.024   1.050   1.086   1.211   1.247   1.295   1.388   1.390
  1.433   1.480   1.551   1.584   1.663   1.715   1.782   1.846
  1.900   1.945   1.967   2.391   2.583   2.727   2.803   3.279
  3.311   3.380   3.390   3.404   3.470   3.535   3.555   3.602
  3.712   3.756   3.760   3.785   3.801   3.908   3.916   4.067
  4.317   4.328   4.406   4.407   4.599   4.642   4.726   4.775
  4.886   4.981   5.083   5.121   5.145   5.179   5.184   5.296
  5.360   5.455   5.493   5.528   5.619   6.214   6.386   6.403
  6.429  35.410  35.429  37.207  37.512  37.685  38.053  38.098
 38.660  40.451  40.477  40.482  40.531  40.542  40.557  40.573
 40.600  40.608  40.627
 --------------------------------------------------------------
 
          Ground-State Mulliken Net Atomic Charges

     Atom                 Charge (a.u.)
  ----------------------------------------
      1 N                    -0.331173
      2 N                    -0.331200
      3 H                     0.151103
      4 H                     0.180072
      5 H                     0.151072
      6 H                     0.180127
  ----------------------------------------
  Sum of atomic charges =     0.000000

 -----------------------------------------------------------------
                    Cartesian Multipole Moments
 -----------------------------------------------------------------
    Charge (ESU x 10^10)
                 0.0000
    Dipole Moment (Debye)
         X       1.9735      Y       0.4532      Z       0.0000
       Tot       2.0248
    Quadrupole Moments (Debye-Ang)
        XX     -13.0891     XY      -0.0754     YY     -12.7781
        XZ       2.0236     YZ      -2.3105     ZZ     -13.5232
    Octapole Moments (Debye-Ang^2)
       XXX      -0.0582    XXY       0.5806    XYY      -1.0916
       YYY      -0.8445    XXZ     -10.3867    XYZ       1.9668
       YYZ      -8.2035    XZZ       4.4064    YZZ      -2.9771
       ZZZ     -29.1568
    Hexadecapole Moments (Debye-Ang^3)
      XXXX     -20.7097   XXXY       0.2475   XXYY      -7.1329
      XYYY      -0.4374   YYYY     -19.9264   XXXZ      -0.6830
      XXYZ       1.2070   XYYZ      -0.0941   YYYZ      -1.6117
      XXZZ     -22.0892   XYZZ       2.8711   YYZZ     -19.1331
      XZZZ       7.5246   YZZZ      -4.5314   ZZZZ    -109.1419
 -----------------------------------------------------------------
 Total job time:  22.30s(wall), 20.74s(cpu) 
 Wed Apr 24 15:00:25 2013

        *************************************************************
        *                                                           *
        *  Thank you very much for using Q-Chem.  Have a nice day.  *
        *                                                           *
        *************************************************************


0 sent ACK to 0 
now end server 0 ... 
 
**********************************************************************
Job 3 of 3 
**********************************************************************
 
Process 0 of 1 is on cl242.stfx.acenet.ca - thread support 1
initial socket setup ...start
initial socket setup ...done 
now start server 0 ... 

cmd = /usr/bin/ssh clhead /usr/local/qchem/bin/get_hostid 6952656 > /scratch/tmp/5954227.1.long.q/qchem29396/lic.dat
                  Welcome to Q-Chem
     A Quantum Leap Into The Future Of Chemistry

 Y. Shao, L. Fusti-Molnar, Y. Jung, J. Kussmann, C. Ochsenfeld,
 S. T. Brown, A. T. B. Gilbert, L. V. Slipchenko,S. V. Levchenko,
 D. P. O'Neill, R. A. DiStasio Jr., R. C. Lochan, T. Wang,
 G. J. O. Beran, N. A. Besley, J. M. Herbert, C. Y. Lin,
 T. Van Voorhis, S. H. Chien, A. Sodt, R. P. Steele, 
 V. A. Rassolov, P. E. Maslen, P. P. Korambath, R. D. Adamson,
 B. Austin, J. Baker, E. F. C. Byrd, H. Dachsel, R. J. Doerksen,
 A. Dreuw, B. D. Dunietz, A. D. Dutoi, T. R. Furlani,
 S. R. Gwaltney, A. Heyden, S. Hirata, C.-P. Hsu, G. Kedziora,
 R. Z. Khaliullin, P. Klunzinger, A. M. Lee, M. S. Lee, W. Liang,
 I. Lotan, N. Nair, B. Peters, E. I. Proynov, P. A. Pieniazek, 
 Y. M. Rhee, J. Ritchie, E. Rosta, C. D. Sherrill, 
 A. C. Simmonett, J. E. Subotnik, H. L. Woodcock III,
 W. Zhang, A. T. Bell, A. K. Chakraborty, D. M. Chipman,
 F. J. Keil, A. Warshel, W. J. Hehre, H. F. Schaefer III,
 J. Kong, A. I. Krylov, P. M. W. Gill, M. Head-Gordon,
 Q-Chem, Version 3.1, Q-Chem, Inc., Pittsburgh, PA (2007).

 Additional authors for Version 3.1: 
 Z. Gan, Y. Zhao, N. E. Schultz, D. Truhlar, E. Epifanovsky and M. Oana.

 Additional authors for Version 3.2: 
 R. Baer, B. R. Brooks, D. Casanova, J.-D. Chai, C.-L. Cheng, 
 C. Cramer, D. Crittenden, A. Ghysels, G. Hawkins, E. G. Hohenstein, 
 C. Kelley, W. Kurlancheek, D. Liotard, E. Livshits, P. Manohar, 
 A. Marenich, D. Neuhauser, R. Olson, M. A. Rohrdanz, K. S. Thanthiriwatte, 
 A. J. W. Thom, V. Vanovschi, C. F. Williams, Q. Wu and Z.-Q. You. 


 Intel X86 Linux Version

 Q-chem begins on Wed Apr 24 15:00:28 2013  

 Parallel job on  1  processors
Processing $rem in /usr/local/qchem/config/preferences.

theFileMan(): MAXOPENFILES=974 MAX_SUB_FILE_NUM=16
Maximum size of a physical file is 2.0 GB, maximum size of a tmp-file is 32.0 GB


--------------------------------------------------------------
User input:
--------------------------------------------------------------

$molecule
1,2
N
N,1,AA
H,1,AH4,2,H4AA
H,1,AH5,2,H5AA,3,H4AH5,1
H,2,AH4,1,H4AA,3,H4AAH7,0
H,2,AH5,1,H5AA,5,H4AH5,1

AA=1.4373691
AH4=1.02194422
AH5=1.01729305
H4AA=111.78265471
H5AA=106.64309317
H4AH5=106.81573564
H4AAH7=25.8658655

$end

$comment
positive
$end

$xc_functional
C PBE   1.00
X wPBE  1.00
$end

$rem
SYMMETRY_DECOMPOSITION	0
LRC_DFT                 true
exchange 		general
BASIS                   g3large
omega			200
mem_static              760
max_scf_cycles          200
scf_final_print         1
sym_ignore              true
$end

--------------------------------------------------------------
 Writing REM_CC_EA            6
 ----------------------------------------------------
       Standard Nuclear Orientation (Angstroms)
    I     Atom         X            Y            Z
 ----------------------------------------------------
    1      N       0.000000     0.000000     0.000000
    2      N       0.000000     0.000000     1.437369
    3      H       0.948976     0.000000    -0.379230
    4      H      -0.433361     0.873036    -0.291362
    5      H       0.853905     0.414006     1.816599
    6      H      -0.009070    -0.974634     1.728731
 ----------------------------------------------------
 Nuclear Repulsion Energy =    41.4146934044 hartrees
 There are        9 alpha and        8 beta electrons
 Requested basis set is G3large
 There are 44 shells and 124 basis functions

Total QAlloc Memory Limit   2000 MB
Mega-Array Size       743 MB
MEM_STATIC part       760 MB

                       Distance Matrix (Angstroms)
             N (  1)   N (  2)   H (  3)   H (  4)   H (  5)
   N (  2)  1.437369
   H (  3)  1.021944  2.049533
   H (  4)  1.017293  1.984567  1.637305
   H (  5)  2.049533  1.021944  2.236538  2.512223
   H (  6)  1.984567  1.017293  2.512223  2.770322  1.637305
 
 A cutoff of  1.0D-08 yielded    985 shell pairs
 There are   7857 function pairs (  9484 Cartesian)
Evaluating contribution to one-electron hamiltonian from nuclear
 Smallest overlap matrix eigenvalue = 3.53E-04
 Multipole matrices computed through 2nd order

  Scale SEOQF with 1.000000e-01/1.000000e-01/1.000000e-01

 Standard Electronic Orientation quadrupole field applied
 Nucleus-field energy     =    -0.0000000020 hartrees
 Guess from superposition of atomic densities
 Warning:  Energy on first SCF cycle will be non-variational
 Long-range K will be added via erf
 Coulomb attenuation parameter = 0.2 bohr**(-1)
 An unrestricted Kohn-Sham SCF calculation will be
 performed using Pulay DIIS extrapolation
 Exchange:  wPBE + LR-HF      Correlation:  PBE
 Using SG-1 standard quadrature grid
 SCF converges when DIIS error is below 1.0E-05
 Requested basis set is G3large
 There are 44 shells and 124 basis functions
 A cutoff of  1.0D-08 yielded    985 shell pairs
 There are   7857 function pairs (  9484 Cartesian)
 Warning!  Inaccurate integrated density:
   Number of electrons =    17
   Numerical integral  =    17.999931560745
   Relative error      =     5.8819503573 %
 ---------------------------------------
  Cycle       Energy         DIIS Error
 ---------------------------------------
    1    -111.9566314638      3.86E-02
    2    -111.4170606309      2.77E-03
    3    -111.4344443063      1.21E-03
    4    -111.4364456113      2.85E-04
    5    -111.4366123706      1.30E-04
    6    -111.4366613765      2.20E-05
    7    -111.4366715309      7.84E-06 Convergence criterion met
 ---------------------------------------
 One-Electron    Energy =  -227.0787613377
 Total Coulomb   Energy =    89.0838745623
 Alpha Exchange  Energy =    -0.9820174419
 Beta  Exchange  Energy =    -0.8689127578
 DFT   Exchange  Energy =   -12.4560644495
 DFT Correlation Energy =    -0.5494835088
 Nuclear Repu.   Energy =    41.4146934024
 Nuclear Attr.   Energy =  -338.2244289830
 Kinetic         Energy =   111.1456676453
 <S^2> = 0.7530
 SCF time:  CPU 25.58 s  wall 27.09 s
 Final Alpha MO Eigenvalues
            1           2           3           4           5           6
    1 -14.4602274 -14.4599706  -1.3287753  -1.1298111  -0.8862699  -0.8774463
            7           8           9          10          11          12
    1  -0.8398975  -0.6749546  -0.6673160  -0.1623651  -0.1421590  -0.1026164
           13          14
    1  -0.0996647  -0.0676363
 Final Beta MO Eigenvalues
            1           2           3           4           5           6
    1 -14.4511374 -14.4508799  -1.3093727  -1.1078704  -0.8774636  -0.8550714
            7           8           9          10          11          12
    1  -0.8284643  -0.6233797  -0.4209672  -0.1588645  -0.1328244  -0.0998226
           13
    1  -0.0958184
 Analysis of SCF Wavefunction
 
 --------------------------------------------------------------
                    Orbital Energies (a.u.)
 --------------------------------------------------------------
 
 Alpha MOs
 -- Occupied --
-14.460 -14.460  -1.329  -1.130  -0.886  -0.877  -0.840  -0.675
 -0.667
 -- Virtual --
 -0.162  -0.142  -0.103  -0.100  -0.068  -0.031  -0.023  -0.015
 -0.007   0.003   0.017   0.024   0.040   0.049   0.071   0.103
  0.107   0.291   0.325   0.359   0.377   0.380   0.384   0.434
  0.446   0.496   0.499   0.522   0.547   0.659   0.677   0.747
  0.755   0.781   0.816   0.924   0.969   1.016   1.097   1.100
  1.159   1.193   1.270   1.296   1.345   1.416   1.491   1.546
  1.604   1.630   1.667   2.092   2.286   2.425   2.498   2.961
  2.982   3.046   3.071   3.082   3.141   3.205   3.219   3.264
  3.390   3.419   3.434   3.461   3.474   3.578   3.588   3.737
  3.999   4.007   4.085   4.086   4.275   4.313   4.405   4.439
  4.534   4.624   4.738   4.771   4.813   4.821   4.830   4.946
  5.011   5.117   5.146   5.188   5.277   5.873   6.050   6.077
  6.102  35.051  35.071  36.841  37.143  37.325  37.697  37.742
 38.304  40.084  40.112  40.120  40.167  40.178  40.193  40.207
 40.240  40.253  40.270
 
 Beta MOs
 -- Occupied --
-14.451 -14.451  -1.309  -1.108  -0.877  -0.855  -0.828  -0.623
 -- Virtual --
 -0.421  -0.159  -0.133  -0.100  -0.096  -0.058  -0.026  -0.019
 -0.011  -0.003   0.009   0.021   0.029   0.042   0.056   0.074
  0.106   0.113   0.298   0.332   0.366   0.382   0.388   0.392
  0.450   0.457   0.505   0.511   0.528   0.558   0.674   0.697
  0.758   0.762   0.791   0.827   0.936   0.980   1.024   1.110
  1.112   1.165   1.206   1.278   1.309   1.371   1.432   1.500
  1.559   1.618   1.654   1.682   2.101   2.293   2.436   2.509
  2.969   2.999   3.071   3.085   3.099   3.163   3.224   3.238
  3.287   3.408   3.449   3.450   3.481   3.492   3.607   3.608
  3.764   4.014   4.022   4.097   4.101   4.289   4.335   4.418
  4.458   4.562   4.665   4.756   4.798   4.827   4.860   4.866
  4.979   5.041   5.136   5.173   5.212   5.297   5.896   6.063
  6.090   6.116  35.061  35.081  36.861  37.167  37.336  37.704
 37.749  38.311  40.105  40.127  40.135  40.182  40.195  40.209
 40.225  40.250  40.257  40.278
 --------------------------------------------------------------
 
          Ground-State Mulliken Net Atomic Charges

     Atom                 Charge (a.u.)    Spin (a.u.)
  --------------------------------------------------------
      1 N                     0.011328       0.477907
      2 N                     0.010607       0.477630
      3 H                     0.231190      -0.006406
      4 H                     0.257759       0.028644
      5 H                     0.231219      -0.006407
      6 H                     0.257897       0.028632
  --------------------------------------------------------
  Sum of atomic charges =     1.000000
  Sum of spin   charges =     1.000000

 -----------------------------------------------------------------
                    Cartesian Multipole Moments
 -----------------------------------------------------------------
    Charge (ESU x 10^10)
                 4.8032
    Dipole Moment (Debye)
         X       2.0821      Y       0.4777      Z       3.4503
       Tot       4.0580
    Quadrupole Moments (Debye-Ang)
        XX      -9.4771     XY      -0.1794     YY      -8.7360
        XZ       2.0725     YZ      -2.1637     ZZ      -3.5310
    Octapole Moments (Debye-Ang^2)
       XXX       0.7138    XXY       0.7854    XYY      -1.1014
       YYY      -0.8749    XXZ      -7.6728    XYZ       1.6490
       YYZ      -5.4163    XZZ       4.5543    YZZ      -2.7485
       ZZZ     -11.1774
    Hexadecapole Moments (Debye-Ang^3)
      XXXX     -12.2258   XXXY       0.3410   XXYY      -4.3805
      XYYY      -0.6697   YYYY     -10.8683   XXXZ      -0.3287
      XXYZ       1.5811   XYYZ       0.2496   YYYZ      -2.5116
      XXZZ     -14.1255   XYZZ       2.3670   YYZZ     -10.8685
      XZZZ       7.5607   YZZZ      -3.1764   ZZZZ     -62.2024
 -----------------------------------------------------------------
 Total job time:  27.23s(wall), 25.70s(cpu) 
 Wed Apr 24 15:00:55 2013

        *************************************************************
        *                                                           *
        *  Thank you very much for using Q-Chem.  Have a nice day.  *
        *                                                           *
        *************************************************************


0 sent ACK to 0 
now end server 0 ... 
