Process 0 of 1 is on cl246.stfx.acenet.ca - thread support 1
initial socket setup ...start
initial socket setup ...done 
now start server 0 ... 

cmd = /usr/bin/ssh clhead /usr/local/qchem/bin/get_hostid 17102547 > /scratch/tmp/4506633.1.long.q/qchem15952/lic.dat
                  Welcome to Q-Chem
     A Quantum Leap Into The Future Of Chemistry

 Y. Shao, L. Fusti-Molnar, Y. Jung, J. Kussmann, C. Ochsenfeld,
 S. T. Brown, A. T. B. Gilbert, L. V. Slipchenko,S. V. Levchenko,
 D. P. O'Neill, R. A. DiStasio Jr., R. C. Lochan, T. Wang,
 G. J. O. Beran, N. A. Besley, J. M. Herbert, C. Y. Lin,
 T. Van Voorhis, S. H. Chien, A. Sodt, R. P. Steele, 
 V. A. Rassolov, P. E. Maslen, P. P. Korambath, R. D. Adamson,
 B. Austin, J. Baker, E. F. C. Byrd, H. Dachsel, R. J. Doerksen,
 A. Dreuw, B. D. Dunietz, A. D. Dutoi, T. R. Furlani,
 S. R. Gwaltney, A. Heyden, S. Hirata, C.-P. Hsu, G. Kedziora,
 R. Z. Khaliullin, P. Klunzinger, A. M. Lee, M. S. Lee, W. Liang,
 I. Lotan, N. Nair, B. Peters, E. I. Proynov, P. A. Pieniazek, 
 Y. M. Rhee, J. Ritchie, E. Rosta, C. D. Sherrill, 
 A. C. Simmonett, J. E. Subotnik, H. L. Woodcock III,
 W. Zhang, A. T. Bell, A. K. Chakraborty, D. M. Chipman,
 F. J. Keil, A. Warshel, W. J. Hehre, H. F. Schaefer III,
 J. Kong, A. I. Krylov, P. M. W. Gill, M. Head-Gordon,
 Q-Chem, Version 3.1, Q-Chem, Inc., Pittsburgh, PA (2007).

 Additional authors for Version 3.1: 
 Z. Gan, Y. Zhao, N. E. Schultz, D. Truhlar, E. Epifanovsky and M. Oana.

 Additional authors for Version 3.2: 
 R. Baer, B. R. Brooks, D. Casanova, J.-D. Chai, C.-L. Cheng, 
 C. Cramer, D. Crittenden, A. Ghysels, G. Hawkins, E. G. Hohenstein, 
 C. Kelley, W. Kurlancheek, D. Liotard, E. Livshits, P. Manohar, 
 A. Marenich, D. Neuhauser, R. Olson, M. A. Rohrdanz, K. S. Thanthiriwatte, 
 A. J. W. Thom, V. Vanovschi, C. F. Williams, Q. Wu and Z.-Q. You. 


 Intel X86 Linux Version

 Q-chem begins on Sat Apr 23 17:35:06 2011  

 Parallel job on  1  processors
Processing $rem in /usr/local/qchem/config/preferences.

theFileMan(): MAXOPENFILES=974 MAX_SUB_FILE_NUM=16
Maximum size of a physical file is 2.0 GB, maximum size of a tmp-file is 32.0 GB


--------------------------------------------------------------
User input:
--------------------------------------------------------------

$molecule
0,1
X
C 1 1.
X 2 r 1 90.
X 2 r 1 90. 3 180.
C 3 ra 2 90. 1 90.
C 3 ra 2 90. 1 -90.
C 4 ra 2 90. 1 0.
C 4 ra 2 90. 1 180.
H 5 rh 3 ah 2 t1
H 5 rh 3 ah 2 -t1
H 6 rh 3 ah 2 -t1
H 6 rh 3 ah 2 t1
H 7 rh 4 ah 2 t1
H 7 rh 4 ah 2 -t1
H 8 rh 4 ah 2 -t1
H 8 rh 4 ah 2 t1

r=1.27305905
ra=0.76471759
rh=1.08816375
ah=117.7243034
t1=108.45079893

$end

$comment
neutral
$end

$xc_functional
   X HF 1.0
   X BNL 1.0
   C LYP 1.0
$end

$rem
SYMMETRY_DECOMPOSITION	0
exchange 		general
BASIS                   g3large
omega			380 
JOBTYPE                 opt
separate_jk		true
mem_static              760
max_scf_cycles          200
scf_final_print         1
sym_ignore              true
$end


--------------------------------------------------------------
 Writing REM_CC_EA           13
 ----------------------------------------------------
       Standard Nuclear Orientation (Angstroms)
    I     Atom         X            Y            Z
 ----------------------------------------------------
    1      C       0.000000     0.000000     1.000000
    2      C       1.273059     0.764718     1.000000
    3      C       1.273059    -0.764718     1.000000
    4      C      -1.273059     0.000000     0.235282
    5      C      -1.273059     0.000000     1.764718
    6      H       1.577915     1.270950     1.913724
    7      H       1.577915     1.270950     0.086276
    8      H       1.577915    -1.270950     1.913724
    9      H       1.577915    -1.270950     0.086276
   10      H      -1.577915    -0.913724    -0.270950
   11      H      -1.577915     0.913724    -0.270950
   12      H      -1.577915    -0.913724     2.270950
   13      H      -1.577915     0.913724     2.270950
 ----------------------------------------------------
 Nuclear Repulsion Energy =   170.0211664558 hartrees
 There are       19 alpha and       19 beta electrons
 Requested basis set is G3large
 There are 98 shells and 290 basis functions

Total QAlloc Memory Limit   2000 MB
Mega-Array Size       743 MB
MEM_STATIC part       760 MB
 A cutoff of  1.0D-11 yielded   4579 shell pairs
 There are  40257 function pairs ( 49199 Cartesian)
Evaluating contribution to one-electron hamiltonian from nuclear
 Smallest overlap matrix eigenvalue = 2.70E-05
 Multipole matrices computed through 2nd order

  Scale SEOQF with 1.000000e-01/1.000000e-01/1.000000e-01

 Standard Electronic Orientation quadrupole field applied
 Nucleus-field energy     =    -0.0000000026 hartrees
 Guess from superposition of atomic densities
 Warning:  Energy on first SCF cycle will be non-variational
 A restricted hybrid HF-DFT SCF calculation will be
 performed using Pulay DIIS extrapolation
 Exchange:     1.0000 Hartree-Fock + 1.0000 BNL
 Correlation:  1.0000 LYP
 Using SG-1 standard quadrature grid
 SCF converges when DIIS error is below 1.0E-08
 ---------------------------------------
  Cycle       Energy         DIIS Error
 ---------------------------------------
    1    -194.8541867519      2.91E-02
    2    -192.8559144806      2.66E-03
    3    -192.9084890115      1.94E-03
    4    -192.9451066502      2.61E-04
    5    -192.9461160540      1.16E-04
    6    -192.9462688971      3.24E-05
    7    -192.9462852130      7.41E-06
    8    -192.9462862180      3.52E-06
    9    -192.9462866097      7.38E-07
   10    -192.9462864924      1.57E-07
   11    -192.9462865044      3.22E-08
   12    -192.9462865082      5.95E-09 Convergence criterion met
 ---------------------------------------
 One-Electron    Energy =  -597.5468655018
 Total Coulomb   Energy =   262.1852271288
 Alpha Exchange  Energy =    -3.5957941171
 Beta  Exchange  Energy =    -3.5957941171
 DFT   Exchange  Energy =   -19.1795787526
 DFT Correlation Energy =    -1.2346476018
 Nuclear Repu.   Energy =   170.0211664533
 Nuclear Attr.   Energy =  -789.1846654094
 Kinetic         Energy =   191.6377999077
 SCF time:  CPU 532.74 s  wall 534.81 s
 Final Alpha MO Eigenvalues
            1           2           3           4           5           6
    1  -9.9789128  -9.9626375  -9.9626177  -9.9625126  -9.9625126  -1.0083482
            7           8           9          10          11          12
    1  -0.9228220  -0.7241504  -0.7241504  -0.6604998  -0.6017266  -0.5884303
           13          14          15          16          17          18
    1  -0.5884302  -0.4761525  -0.4650906  -0.4605280  -0.3942831  -0.3942831
           19          20          21          22          23          24
    1  -0.3825621   0.0355928   0.0475704   0.0475704   0.0515877   0.0714967
 Analysis of SCF Wavefunction
 
 --------------------------------------------------------------
                    Orbital Energies (a.u.)
 --------------------------------------------------------------
 
 Alpha MOs
 -- Occupied --
 -9.979  -9.963  -9.963  -9.963  -9.963  -1.008  -0.923  -0.724
 -0.724  -0.660  -0.602  -0.588  -0.588  -0.476  -0.465  -0.461
 -0.394  -0.394  -0.383
 -- Virtual --
  0.036   0.048   0.048   0.052   0.071   0.071   0.077   0.092
  0.095   0.112   0.141   0.141   0.150   0.154   0.159   0.159
  0.176   0.178   0.178   0.190   0.201   0.201   0.208   0.226
  0.227   0.229   0.229   0.240   0.240   0.252   0.298   0.302
  0.302   0.327   0.353   0.353   0.368   0.393   0.422   0.422
  0.435   0.435   0.490   0.541   0.561   0.561   0.561   0.591
  0.591   0.631   0.643   0.643   0.668   0.674   0.684   0.686
  0.686   0.707   0.707   0.724   0.734   0.753   0.753   0.754
  0.772   0.803   0.853   0.893   0.893   0.902   0.915   0.951
  0.975   1.004   1.009   1.009   1.081   1.133   1.133   1.157
  1.192   1.201   1.201   1.219   1.236   1.236   1.269   1.286
  1.286   1.344   1.344   1.395   1.408   1.408   1.430   1.453
  1.453   1.473   1.486   1.512   1.518   1.520   1.553   1.553
  1.572   1.579   1.604   1.652   1.668   1.668   1.677   1.691
  1.691   1.697   1.752   1.873   1.900   1.900   1.926   2.585
  2.585   2.658   2.701   2.731   2.731   2.743   2.768   2.783
  2.783   2.798   2.836   2.891   2.891   2.936   2.985   3.008
  3.008   3.018   3.040   3.095   3.095   3.111   3.112   3.163
  3.163   3.183   3.195   3.195   3.236   3.255   3.272   3.297
  3.342   3.342   3.356   3.390   3.447   3.447   3.455   3.488
  3.488   3.546   3.546   3.558   3.574   3.592   3.597   3.652
  3.652   3.666   3.692   3.692   3.718   3.794   3.879   3.909
  3.962   3.988   3.988   4.041   4.041   4.073   4.160   4.207
  4.207   4.218   4.221   4.249   4.249   4.341   4.361   4.376
  4.384   4.447   4.452   4.455   4.475   4.475   4.513   4.513
  4.595   4.595   4.638   4.638   4.640   4.665   4.703   4.794
  4.839   4.992   4.992   5.066   5.066   5.196   5.359   5.487
  5.532   5.532   5.603   5.712   5.712   5.718   5.753   5.842
  5.842   5.855  24.317  24.328  24.567  24.567  24.637  27.590
 27.642  27.695  27.695  28.063  28.167  28.211  28.211  28.225
 28.252  28.252  28.264  28.662  28.662  29.094  40.901  40.922
 40.941  41.003  41.009  41.009  41.011  41.048  41.048  41.052
 41.240  41.247  41.247  41.254  41.254  41.265  41.287  41.297
 41.351  41.351  41.357  41.359  41.373  41.439  41.439
 --------------------------------------------------------------
 
          Ground-State Mulliken Net Atomic Charges

     Atom                 Charge (a.u.)
  ----------------------------------------
      1 C                     0.298196
      2 C                    -0.327844
      3 C                    -0.327843
      4 C                    -0.327844
      5 C                    -0.327844
      6 H                     0.126647
      7 H                     0.126647
      8 H                     0.126647
      9 H                     0.126647
     10 H                     0.126647
     11 H                     0.126647
     12 H                     0.126647
     13 H                     0.126647
  ----------------------------------------
  Sum of atomic charges =     0.000000

 -----------------------------------------------------------------
                    Cartesian Multipole Moments
 -----------------------------------------------------------------
    Charge (ESU x 10^10)
                 0.0000
    Dipole Moment (Debye)
         X       0.0000      Y       0.0000      Z       0.0000
       Tot       0.0000
    Quadrupole Moments (Debye-Ang)
        XX     -33.5309     XY       0.0000     YY     -31.4236
        XZ       0.0000     YZ       0.0000     ZZ     -31.4236
    Octapole Moments (Debye-Ang^2)
       XXX       0.0000    XXY       0.0000    XYY      -0.5463
       YYY       0.0000    XXZ     -33.5309    XYZ       0.0000
       YYZ     -31.4236    XZZ       0.5463    YZZ       0.0000
       ZZZ     -94.2707
    Hexadecapole Moments (Debye-Ang^3)
      XXXX    -363.9904   XXXY       0.0000   XXYY     -70.2760
      XYYY       0.0000   YYYY    -120.9621   XXXZ       0.0000
      XXYZ       0.0000   XYYZ      -0.5463   YYYZ       0.0000
      XXZZ    -103.8070   XYZZ       0.0000   YYZZ     -65.9915
      XZZZ       1.6390   YZZZ       0.0000   ZZZZ    -309.5035
 -----------------------------------------------------------------
 Calculating analytic gradient of the SCF energy
 Gradient of AOints
            1           2           3           4           5           6
    1  -0.0000007  -5.3023737  -5.3023719   5.3023732   5.3023734  -1.4532763
    2   0.0000015  -5.3296268   5.3296268   0.0000003  -0.0000001  -2.1998101
    3   0.0000002  -0.0000002  -0.0000001   5.3296276  -5.3296273  -3.0932986
            7           8           9          10          11          12
    1  -1.4532765  -1.4532765  -1.4532766   1.4532761   1.4532766   1.4532763
    2  -2.1998100   2.1998103   2.1998102   3.0932983  -3.0932992   3.0932980
    3   3.0932986  -3.0932984   3.0932984   2.1998107   2.1998097  -2.1998108
           13
    1   1.4532765
    2  -3.0932992
    3  -2.1998097
 Gradient of XC Energy
            1           2           3           4           5           6
    1   0.0000000   0.0354986   0.0354985  -0.0354985  -0.0354986   0.0458235
    2  -0.0000000   0.0620103  -0.0620103  -0.0000000  -0.0000000   0.0782387
    3  -0.0000000   0.0000000   0.0000000  -0.0620103   0.0620103   0.1330541
            7           8           9          10          11          12
    1   0.0458235   0.0458235   0.0458235  -0.0458235  -0.0458235  -0.0458235
    2   0.0782387  -0.0782387  -0.0782387  -0.1330541   0.1330542  -0.1330541
    3  -0.1330541   0.1330541  -0.1330541  -0.0782387  -0.0782387   0.0782387
           13
    1  -0.0458235
    2   0.1330542
    3   0.0782387
 Gradient of SCF Energy
            1           2           3           4           5           6
    1  -0.0000000   0.0108141   0.0108141  -0.0108141  -0.0108141   0.0000268
    2   0.0000000   0.0170140  -0.0170140  -0.0000000  -0.0000000  -0.0001585
    3  -0.0000000  -0.0000000   0.0000000  -0.0170140   0.0170140  -0.0024592
            7           8           9          10          11          12
    1   0.0000268   0.0000268   0.0000268  -0.0000268  -0.0000268  -0.0000268
    2  -0.0001585   0.0001585   0.0001585   0.0024592  -0.0024592   0.0024592
    3   0.0024592  -0.0024592   0.0024592   0.0001585   0.0001585  -0.0001585
           13
    1  -0.0000268
    2  -0.0024592
    3  -0.0001585
 Max gradient component =       1.701E-02
 RMS gradient           =       6.552E-03
 Gradient time:  CPU 299.01 s  wall 299.20 s
 Geometry Optimization Parameters
   NAtoms,    NIC,     NZ,  NCons,   NDum,   NFix, NCnnct, MaxDiis
       13     118      16       0       0       0       0       0


** GEOMETRY OPTIMIZATION IN DELOCALIZED INTERNAL COORDINATES **
   Searching for a Minimum

   Optimization Cycle:   1

                       Coordinates (Angstroms)
     ATOM              X           Y           Z
    1  C           0.000000    0.000000    1.000000
    2  C           1.273059    0.764718    1.000000
    3  C           1.273059   -0.764718    1.000000
    4  C          -1.273059    0.000000    0.235282
    5  C          -1.273059    0.000000    1.764718
    6  H           1.577915    1.270950    1.913724
    7  H           1.577915    1.270950    0.086276
    8  H           1.577915   -1.270950    1.913724
    9  H           1.577915   -1.270950    0.086276
   10  H          -1.577915   -0.913724   -0.270950
   11  H          -1.577915    0.913724   -0.270950
   12  H          -1.577915   -0.913724    2.270950
   13  H          -1.577915    0.913724    2.270950
   Point Group: c1    Number of degrees of freedom:  33


   Energy is   -192.946286508


 Attempting to Generate Delocalized Internal Coordinates

 13 Hessian modes will be used to form the next step
  Hessian Eigenvalues:
     0.023609    0.024237    0.043338    0.095178    0.263042    0.328489
     0.350257    0.350257    0.350257    0.350257    0.350257    0.350257
     0.350257

 Minimum Search - Taking Simple RFO Step
 Searching for Lamda that Minimizes Along All modes
 Value Taken    Lamda =  -0.00276664
 Step Taken.  Stepsize is  0.096037

                             Maximum     Tolerance    Cnvgd?
         Gradient           0.016935      0.000300      NO
         Displacement       0.060153      0.001200      NO
         Energy change     *********      0.000001      NO


 New Cartesian Coordinates Obtained by Inverse Iteration

 Displacement from previous Coordinates is:  0.144213
 Writing REM_CC_EA           13
 ----------------------------------------------------
       Standard Nuclear Orientation (Angstroms)
    I     Atom         X            Y            Z
 ----------------------------------------------------
    1      C       0.000000     0.000000     1.000000
    2      C       1.255897     0.755527     1.000000
    3      C       1.255897    -0.755527     1.000000
    4      C      -1.255897     0.000000     0.244473
    5      C      -1.255897     0.000000     1.755527
    6      H       1.557744     1.260790     1.919054
    7      H       1.557744     1.260790     0.080946
    8      H       1.557744    -1.260790     1.919054
    9      H       1.557744    -1.260790     0.080946
   10      H      -1.557744    -0.919054    -0.260790
   11      H      -1.557744     0.919054    -0.260791
   12      H      -1.557744    -0.919054     2.260790
   13      H      -1.557744     0.919054     2.260791
 ----------------------------------------------------
 Nuclear Repulsion Energy =   171.6752647969 hartrees
 There are       19 alpha and       19 beta electrons
 Applying Cartesian multipole field
    Component          Value
    ---------          -----
     (2,0,0)        1.00000E-11
     (0,2,0)        2.00000E-11
     (0,0,2)       -3.00000E-11
 Nucleus-field energy     =    -0.0000000026 hartrees
 Requested basis set is G3large
 There are 98 shells and 290 basis functions
 A cutoff of  1.0D-11 yielded   4591 shell pairs
 There are  40493 function pairs ( 49523 Cartesian)
Evaluating contribution to one-electron hamiltonian from nuclear
 Smallest overlap matrix eigenvalue = 2.48E-05
 Multipole matrices computed through 2nd order
 Guess MOs from SCF MO coefficient file
Reading MOs from coefficient file
Reading MOs from coefficient file
 A restricted hybrid HF-DFT SCF calculation will be
 performed using Pulay DIIS extrapolation
 Exchange:     1.0000 Hartree-Fock + 1.0000 BNL
 Correlation:  1.0000 LYP
 Using SG-1 standard quadrature grid
 SCF converges when DIIS error is below 1.0E-08
 ---------------------------------------
  Cycle       Energy         DIIS Error
 ---------------------------------------
    1    -192.9209458819      5.98E-04
    2    -192.9477467579      8.56E-05
    3    -192.9477822453      6.40E-05
    4    -192.9478174325      9.30E-06
    5    -192.9478182487      1.82E-06
    6    -192.9478183769      2.57E-07
    7    -192.9478184238      1.33E-07
    8    -192.9478184069      2.51E-08
    9    -192.9478184190      3.43E-09 Convergence criterion met
 ---------------------------------------
 One-Electron    Energy =  -600.8147971273
 Total Coulomb   Energy =   263.8350120950
 Alpha Exchange  Energy =    -3.5977891772
 Beta  Exchange  Energy =    -3.5977891772
 DFT   Exchange  Energy =   -19.2107390893
 DFT Correlation Energy =    -1.2369807373
 Nuclear Repu.   Energy =   171.6752647943
 Nuclear Attr.   Energy =  -792.5952883662
 Kinetic         Energy =   191.7804912389
 SCF time:  CPU 412.41 s  wall 413.35 s
 Final Alpha MO Eigenvalues
            1           2           3           4           5           6
    1  -9.9730884  -9.9604195  -9.9604058  -9.9602848  -9.9602848  -1.0178786
            7           8           9          10          11          12
    1  -0.9303498  -0.7235182  -0.7235182  -0.6600450  -0.6036646  -0.5913482
           13          14          15          16          17          18
    1  -0.5913482  -0.4751380  -0.4683637  -0.4582424  -0.3947407  -0.3947407
           19          20          21          22          23          24
    1  -0.3843249   0.0356316   0.0475315   0.0475315   0.0516319   0.0716020
 Analysis of SCF Wavefunction
 
 --------------------------------------------------------------
                    Orbital Energies (a.u.)
 --------------------------------------------------------------
 
 Alpha MOs
 -- Occupied --
 -9.973  -9.960  -9.960  -9.960  -9.960  -1.018  -0.930  -0.724
 -0.724  -0.660  -0.604  -0.591  -0.591  -0.475  -0.468  -0.458
 -0.395  -0.395  -0.384
 -- Virtual --
  0.036   0.048   0.048   0.052   0.072   0.072   0.077   0.092
  0.095   0.111   0.141   0.141   0.150   0.154   0.158   0.158
  0.176   0.178   0.178   0.190   0.201   0.201   0.208   0.226
  0.226   0.229   0.229   0.244   0.244   0.252   0.298   0.307
  0.307   0.329   0.352   0.352   0.365   0.405   0.430   0.430
  0.436   0.440   0.488   0.540   0.561   0.561   0.561   0.590
  0.590   0.629   0.643   0.643   0.668   0.681   0.685   0.689
  0.689   0.712   0.712   0.727   0.741   0.751   0.752   0.752
  0.776   0.806   0.861   0.899   0.899   0.906   0.920   0.951
  0.975   1.003   1.006   1.006   1.084   1.134   1.134   1.165
  1.194   1.208   1.208   1.228   1.244   1.244   1.266   1.288
  1.288   1.350   1.350   1.405   1.411   1.411   1.439   1.458
  1.458   1.484   1.490   1.501   1.519   1.523   1.552   1.552
  1.576   1.583   1.606   1.648   1.665   1.665   1.675   1.694
  1.694   1.699   1.761   1.879   1.913   1.913   1.938   2.588
  2.588   2.667   2.712   2.741   2.741   2.745   2.779   2.786
  2.786   2.817   2.840   2.890   2.890   2.950   3.000   3.013
  3.018   3.018   3.049   3.110   3.110   3.124   3.126   3.182
  3.182   3.193   3.193   3.212   3.242   3.242   3.282   3.304
  3.344   3.344   3.357   3.387   3.452   3.452   3.471   3.497
  3.497   3.555   3.555   3.558   3.582   3.603   3.624   3.652
  3.652   3.661   3.710   3.710   3.745   3.799   3.904   3.931
  3.973   3.995   3.995   4.062   4.062   4.090   4.169   4.222
  4.223   4.225   4.225   4.256   4.256   4.350   4.372   4.383
  4.391   4.457   4.461   4.469   4.480   4.480   4.528   4.528
  4.622   4.622   4.648   4.650   4.650   4.689   4.726   4.836
  4.859   5.014   5.014   5.104   5.104   5.215   5.381   5.514
  5.576   5.576   5.591   5.701   5.701   5.705   5.739   5.877
  5.877   5.918  24.317  24.344  24.615  24.615  24.701  27.614
 27.685  27.737  27.737  28.136  28.219  28.219  28.219  28.234
 28.263  28.263  28.272  28.656  28.656  29.100  40.905  40.918
 40.942  41.004  41.014  41.014  41.018  41.061  41.071  41.071
 41.245  41.249  41.249  41.256  41.256  41.270  41.292  41.303
 41.351  41.351  41.361  41.361  41.392  41.469  41.469
 --------------------------------------------------------------
 
          Ground-State Mulliken Net Atomic Charges

     Atom                 Charge (a.u.)
  ----------------------------------------
      1 C                     0.306949
      2 C                    -0.327075
      3 C                    -0.327075
      4 C                    -0.327075
      5 C                    -0.327075
      6 H                     0.125169
      7 H                     0.125169
      8 H                     0.125169
      9 H                     0.125169
     10 H                     0.125169
     11 H                     0.125169
     12 H                     0.125169
     13 H                     0.125169
  ----------------------------------------
  Sum of atomic charges =     0.000000

 -----------------------------------------------------------------
                    Cartesian Multipole Moments
 -----------------------------------------------------------------
    Charge (ESU x 10^10)
                 0.0000
    Dipole Moment (Debye)
         X       0.0000      Y       0.0000      Z       0.0000
       Tot       0.0000
    Quadrupole Moments (Debye-Ang)
        XX     -33.6501     XY       0.0000     YY     -31.4010
        XZ       0.0000     YZ       0.0000     ZZ     -31.4010
    Octapole Moments (Debye-Ang^2)
       XXX       0.0000    XXY       0.0000    XYY      -0.7710
       YYY       0.0000    XXZ     -33.6501    XYZ       0.0000
       YYZ     -31.4010    XZZ       0.7710    YZZ       0.0000
       ZZZ     -94.2029
    Hexadecapole Moments (Debye-Ang^3)
      XXXX    -355.9455   XXXY       0.0000   XXYY     -69.2687
      XYYY       0.0000   YYYY    -119.9597   XXXZ       0.0000
      XXYZ       0.0000   XYYZ      -0.7710   YYYZ       0.0000
      XXZZ    -102.9188   XYZZ       0.0000   YYZZ     -65.6801
      XZZZ       2.3131   YZZZ       0.0000   ZZZZ    -308.3655
 -----------------------------------------------------------------
 Calculating analytic gradient of the SCF energy
 Gradient of AOints
            1           2           3           4           5           6
    1  -0.0000001  -5.3580892  -5.3580895   5.3580896   5.3580894  -1.4292436
    2   0.0000002  -5.3468101   5.3468097   0.0000002   0.0000002  -2.1786016
    3   0.0000001   0.0000000  -0.0000001   5.3468094  -5.3468094  -3.1394934
            7           8           9          10          11          12
    1  -1.4292435  -1.4292436  -1.4292437   1.4292441   1.4292430   1.4292442
    2  -2.1786016   2.1786015   2.1786016   3.1394934  -3.1394934   3.1394934
    3   3.1394934  -3.1394933   3.1394934   2.1786012   2.1786020  -2.1786012
           13
    1   1.4292429
    2  -3.1394933
    3  -2.1786020
 Gradient of XC Energy
            1           2           3           4           5           6
    1   0.0000000   0.0365704   0.0365704  -0.0365704  -0.0365704   0.0446488
    2  -0.0000000   0.0640132  -0.0640132  -0.0000000  -0.0000000   0.0771615
    3  -0.0000000  -0.0000000   0.0000000  -0.0640132   0.0640132   0.1337303
            7           8           9          10          11          12
    1   0.0446488   0.0446488   0.0446488  -0.0446488  -0.0446488  -0.0446488
    2   0.0771615  -0.0771615  -0.0771615  -0.1337303   0.1337303  -0.1337303
    3  -0.1337303   0.1337303  -0.1337303  -0.0771615  -0.0771615   0.0771615
           13
    1  -0.0446488
    2   0.1337303
    3   0.0771615
 Gradient of SCF Energy
            1           2           3           4           5           6
    1  -0.0000000   0.0010271   0.0010271  -0.0010271  -0.0010271  -0.0000697
    2   0.0000000   0.0022490  -0.0022490  -0.0000000  -0.0000000  -0.0000707
    3   0.0000000  -0.0000000  -0.0000000  -0.0022490   0.0022490  -0.0000290
            7           8           9          10          11          12
    1  -0.0000697  -0.0000697  -0.0000697   0.0000697   0.0000697   0.0000697
    2  -0.0000707   0.0000707   0.0000707   0.0000290  -0.0000290   0.0000290
    3   0.0000290  -0.0000290   0.0000290   0.0000707   0.0000707  -0.0000707
           13
    1   0.0000697
    2  -0.0000290
    3  -0.0000707
 Max gradient component =       2.249E-03
 RMS gradient           =       7.932E-04
 Gradient time:  CPU 302.83 s  wall 303.12 s
 Geometry Optimization Parameters
   NAtoms,    NIC,     NZ,  NCons,   NDum,   NFix, NCnnct, MaxDiis
       13     118      16       0       0       0       0       0

 Cartesian Hessian Update
 Hessian Updated using BFGS Update


** GEOMETRY OPTIMIZATION IN DELOCALIZED INTERNAL COORDINATES **
   Searching for a Minimum

   Optimization Cycle:   2

                       Coordinates (Angstroms)
     ATOM              X           Y           Z
    1  C           0.000000    0.000000    1.000000
    2  C           1.255897    0.755527    1.000000
    3  C           1.255897   -0.755527    1.000000
    4  C          -1.255897    0.000000    0.244473
    5  C          -1.255897    0.000000    1.755527
    6  H           1.557744    1.260790    1.919054
    7  H           1.557744    1.260790    0.080946
    8  H           1.557744   -1.260790    1.919054
    9  H           1.557744   -1.260790    0.080946
   10  H          -1.557744   -0.919054   -0.260790
   11  H          -1.557744    0.919054   -0.260791
   12  H          -1.557744   -0.919054    2.260790
   13  H          -1.557744    0.919054    2.260791
   Point Group: c1    Number of degrees of freedom:  33


   Energy is   -192.947818419

 Hessian Updated using BFGS Update

  7 Hessian modes will be used to form the next step
  Hessian Eigenvalues:
     0.024265    0.043338    0.096146    0.256714    0.303926    0.350257
     0.350789

 Minimum Search - Taking Simple RFO Step
 Searching for Lamda that Minimizes Along All modes
 Value Taken    Lamda =  -0.00003285
 Step Taken.  Stepsize is  0.011363

                             Maximum     Tolerance    Cnvgd?
         Gradient           0.002003      0.000300      NO
         Displacement       0.007605      0.001200      NO
         Energy change     -0.001532      0.000001      NO


 New Cartesian Coordinates Obtained by Inverse Iteration

 Displacement from previous Coordinates is:  0.011414
 Writing REM_CC_EA           13
 ----------------------------------------------------
       Standard Nuclear Orientation (Angstroms)
    I     Atom         X            Y            Z
 ----------------------------------------------------
    1      C       0.000000     0.000000     1.000000
    2      C       1.254504     0.754095     1.000000
    3      C       1.254504    -0.754095     1.000000
    4      C      -1.254504     0.000000     0.245905
    5      C      -1.254504     0.000000     1.754095
    6      H       1.557012     1.259368     1.918988
    7      H       1.557012     1.259368     0.081012
    8      H       1.557012    -1.259368     1.918988
    9      H       1.557012    -1.259368     0.081012
   10      H      -1.557012    -0.918988    -0.259368
   11      H      -1.557012     0.918988    -0.259368
   12      H      -1.557012    -0.918988     2.259368
   13      H      -1.557012     0.918988     2.259368
 ----------------------------------------------------
 Nuclear Repulsion Energy =   171.8586171076 hartrees
 There are       19 alpha and       19 beta electrons
 Applying Cartesian multipole field
    Component          Value
    ---------          -----
     (2,0,0)        1.00000E-11
     (0,2,0)        2.00000E-11
     (0,0,2)       -3.00000E-11
 Nucleus-field energy     =    -0.0000000026 hartrees
 Requested basis set is G3large
 There are 98 shells and 290 basis functions
 A cutoff of  1.0D-11 yielded   4591 shell pairs
 There are  40493 function pairs ( 49523 Cartesian)
Evaluating contribution to one-electron hamiltonian from nuclear
 Smallest overlap matrix eigenvalue = 2.46E-05
 Multipole matrices computed through 2nd order
 Guess MOs from SCF MO coefficient file
Reading MOs from coefficient file
Reading MOs from coefficient file
 A restricted hybrid HF-DFT SCF calculation will be
 performed using Pulay DIIS extrapolation
 Exchange:     1.0000 Hartree-Fock + 1.0000 BNL
 Correlation:  1.0000 LYP
 Using SG-1 standard quadrature grid
 SCF converges when DIIS error is below 1.0E-08
 ---------------------------------------
  Cycle       Energy         DIIS Error
 ---------------------------------------
    1    -192.9443305537      7.30E-05
    2    -192.9478337933      1.05E-05
    3    -192.9478343084      7.99E-06
    4    -192.9478349331      1.09E-06
    5    -192.9478346137      2.37E-07
    6    -192.9478346035      6.40E-08
    7    -192.9478346156      1.91E-08
    8    -192.9478346113      2.98E-09 Convergence criterion met
 ---------------------------------------
 One-Electron    Energy =  -601.1756656564
 Total Coulomb   Energy =   264.0175577806
 Alpha Exchange  Energy =    -3.5980680970
 Beta  Exchange  Energy =    -3.5980680970
 DFT   Exchange  Energy =   -19.2149337425
 DFT Correlation Energy =    -1.2372739039
 Nuclear Repu.   Energy =   171.8586171050
 Nuclear Attr.   Energy =  -792.9753863352
 Kinetic         Energy =   191.7997206788
 SCF time:  CPU 352.83 s  wall 353.59 s
 Final Alpha MO Eigenvalues
            1           2           3           4           5           6
    1  -9.9725675  -9.9600941  -9.9600812  -9.9599575  -9.9599575  -1.0189404
            7           8           9          10          11          12
    1  -0.9313448  -0.7234223  -0.7234223  -0.6602525  -0.6041042  -0.5916578
           13          14          15          16          17          18
    1  -0.5916578  -0.4748102  -0.4688724  -0.4578286  -0.3947859  -0.3947859
           19          20          21          22          23          24
    1  -0.3846865   0.0356367   0.0475396   0.0475396   0.0516076   0.0715968
 Analysis of SCF Wavefunction
 
 --------------------------------------------------------------
                    Orbital Energies (a.u.)
 --------------------------------------------------------------
 
 Alpha MOs
 -- Occupied --
 -9.973  -9.960  -9.960  -9.960  -9.960  -1.019  -0.931  -0.723
 -0.723  -0.660  -0.604  -0.592  -0.592  -0.475  -0.469  -0.458
 -0.395  -0.395  -0.385
 -- Virtual --
  0.036   0.048   0.048   0.052   0.072   0.072   0.077   0.092
  0.095   0.111   0.141   0.141   0.150   0.154   0.158   0.158
  0.176   0.178   0.178   0.189   0.201   0.201   0.208   0.226
  0.227   0.229   0.229   0.244   0.244   0.252   0.298   0.308
  0.308   0.329   0.352   0.352   0.365   0.406   0.431   0.431
  0.437   0.440   0.487   0.540   0.561   0.561   0.561   0.590
  0.590   0.629   0.643   0.643   0.668   0.681   0.686   0.689
  0.689   0.713   0.713   0.727   0.742   0.751   0.753   0.753
  0.777   0.806   0.862   0.899   0.899   0.907   0.921   0.952
  0.975   1.003   1.006   1.006   1.085   1.134   1.134   1.165
  1.195   1.208   1.208   1.229   1.245   1.245   1.266   1.289
  1.289   1.351   1.351   1.406   1.412   1.412   1.440   1.458
  1.458   1.484   1.490   1.500   1.519   1.524   1.552   1.552
  1.577   1.583   1.606   1.648   1.665   1.665   1.675   1.694
  1.694   1.700   1.762   1.880   1.914   1.914   1.939   2.588
  2.588   2.668   2.712   2.742   2.742   2.745   2.780   2.786
  2.786   2.818   2.841   2.890   2.890   2.951   3.002   3.012
  3.019   3.019   3.050   3.111   3.111   3.126   3.127   3.184
  3.184   3.193   3.193   3.215   3.242   3.242   3.283   3.304
  3.345   3.345   3.357   3.387   3.453   3.453   3.472   3.498
  3.498   3.556   3.556   3.559   3.582   3.603   3.628   3.652
  3.652   3.662   3.712   3.712   3.748   3.800   3.907   3.935
  3.975   3.996   3.996   4.064   4.064   4.092   4.170   4.222
  4.225   4.228   4.228   4.257   4.257   4.351   4.372   4.384
  4.394   4.458   4.462   4.471   4.482   4.482   4.530   4.530
  4.625   4.625   4.650   4.651   4.651   4.692   4.728   4.841
  4.862   5.016   5.016   5.108   5.108   5.218   5.383   5.517
  5.583   5.583   5.589   5.700   5.700   5.705   5.740   5.882
  5.882   5.925  24.316  24.347  24.622  24.622  24.708  27.618
 27.690  27.741  27.741  28.144  28.219  28.219  28.226  28.236
 28.264  28.264  28.273  28.655  28.655  29.102  40.905  40.918
 40.942  41.004  41.014  41.014  41.018  41.062  41.074  41.074
 41.246  41.249  41.249  41.257  41.257  41.271  41.292  41.304
 41.352  41.352  41.362  41.362  41.394  41.472  41.472
 --------------------------------------------------------------
 
          Ground-State Mulliken Net Atomic Charges

     Atom                 Charge (a.u.)
  ----------------------------------------
      1 C                     0.308104
      2 C                    -0.327036
      3 C                    -0.327036
      4 C                    -0.327036
      5 C                    -0.327036
      6 H                     0.125005
      7 H                     0.125005
      8 H                     0.125005
      9 H                     0.125005
     10 H                     0.125005
     11 H                     0.125005
     12 H                     0.125005
     13 H                     0.125005
  ----------------------------------------
  Sum of atomic charges =     0.000000

 -----------------------------------------------------------------
                    Cartesian Multipole Moments
 -----------------------------------------------------------------
    Charge (ESU x 10^10)
                 0.0000
    Dipole Moment (Debye)
         X       0.0000      Y       0.0000      Z       0.0000
       Tot       0.0000
    Quadrupole Moments (Debye-Ang)
        XX     -33.6302     XY       0.0000     YY     -31.4032
        XZ       0.0000     YZ       0.0000     ZZ     -31.4032
    Octapole Moments (Debye-Ang^2)
       XXX       0.0000    XXY       0.0000    XYY      -0.7855
       YYY       0.0000    XXZ     -33.6302    XYZ       0.0000
       YYZ     -31.4032    XZZ       0.7855    YZZ       0.0000
       ZZZ     -94.2097
    Hexadecapole Moments (Debye-Ang^3)
      XXXX    -355.1541   XXXY       0.0000   XXYY     -69.1655
      XYYY       0.0000   YYYY    -119.7699   XXXZ       0.0000
      XXYZ       0.0000   XYYZ      -0.7855   YYYZ       0.0000
      XXZZ    -102.7957   XYZZ       0.0000   YYZZ     -65.6459
      XZZZ       2.3564   YZZZ       0.0000   ZZZZ    -308.1893
 -----------------------------------------------------------------
 Calculating analytic gradient of the SCF energy
 Gradient of AOints
            1           2           3           4           5           6
    1  -0.0000003  -5.3559692  -5.3559695   5.3559694   5.3559700  -1.4329065
    2   0.0000014  -5.3447536   5.3447533  -0.0000003  -0.0000004  -2.1773010
    3   0.0000000  -0.0000001   0.0000001   5.3447531  -5.3447531  -3.1404749
            7           8           9          10          11          12
    1  -1.4329065  -1.4329067  -1.4329066   1.4329068   1.4329062   1.4329068
    2  -2.1773009   2.1773008   2.1773007   3.1404749  -3.1404749   3.1404749
    3   3.1404749  -3.1404749   3.1404750   2.1773007   2.1773010  -2.1773007
           13
    1   1.4329062
    2  -3.1404749
    3  -2.1773011
 Gradient of XC Energy
            1           2           3           4           5           6
    1   0.0000000   0.0363081   0.0363081  -0.0363081  -0.0363081   0.0447535
    2  -0.0000000   0.0641774  -0.0641774   0.0000000   0.0000000   0.0770993
    3  -0.0000000   0.0000000  -0.0000000  -0.0641774   0.0641774   0.1337019
            7           8           9          10          11          12
    1   0.0447535   0.0447535   0.0447535  -0.0447535  -0.0447534  -0.0447535
    2   0.0770993  -0.0770993  -0.0770993  -0.1337019   0.1337019  -0.1337019
    3  -0.1337019   0.1337019  -0.1337019  -0.0770993  -0.0770993   0.0770993
           13
    1  -0.0447534
    2   0.1337019
    3   0.0770993
 Gradient of SCF Energy
            1           2           3           4           5           6
    1  -0.0000000  -0.0000550  -0.0000550   0.0000550   0.0000550  -0.0000251
    2  -0.0000000   0.0002730  -0.0002730   0.0000000   0.0000000  -0.0000974
    3   0.0000000  -0.0000000  -0.0000000  -0.0002730   0.0002730   0.0000401
            7           8           9          10          11          12
    1  -0.0000251  -0.0000251  -0.0000251   0.0000251   0.0000251   0.0000251
    2  -0.0000974   0.0000974   0.0000974  -0.0000401   0.0000401  -0.0000401
    3  -0.0000401   0.0000401  -0.0000401   0.0000974   0.0000974  -0.0000974
           13
    1   0.0000251
    2   0.0000401
    3  -0.0000974
 Max gradient component =       2.730E-04
 RMS gradient           =       1.018E-04
 Gradient time:  CPU 302.54 s  wall 302.84 s
 Geometry Optimization Parameters
   NAtoms,    NIC,     NZ,  NCons,   NDum,   NFix, NCnnct, MaxDiis
       13     118      16       0       0       0       0       0

 Cartesian Hessian Update
 Hessian Updated using BFGS Update


** GEOMETRY OPTIMIZATION IN DELOCALIZED INTERNAL COORDINATES **
   Searching for a Minimum

   Optimization Cycle:   3

                       Coordinates (Angstroms)
     ATOM              X           Y           Z
    1  C           0.000000    0.000000    1.000000
    2  C           1.254504    0.754095    1.000000
    3  C           1.254504   -0.754095    1.000000
    4  C          -1.254504    0.000000    0.245905
    5  C          -1.254504    0.000000    1.754095
    6  H           1.557012    1.259368    1.918988
    7  H           1.557012    1.259368    0.081012
    8  H           1.557012   -1.259368    1.918988
    9  H           1.557012   -1.259368    0.081012
   10  H          -1.557012   -0.918988   -0.259368
   11  H          -1.557012    0.918988   -0.259368
   12  H          -1.557012   -0.918988    2.259368
   13  H          -1.557012    0.918988    2.259368
   Point Group: c1    Number of degrees of freedom:  33


   Energy is   -192.947834611

 Hessian Updated using BFGS Update

  6 Hessian modes will be used to form the next step
  Hessian Eigenvalues:
     0.024524    0.091107    0.247747    0.324744    0.328008    0.351258

 Minimum Search - Taking Simple RFO Step
 Searching for Lamda that Minimizes Along All modes
 Value Taken    Lamda =  -0.00000101
 Step Taken.  Stepsize is  0.003806

                             Maximum     Tolerance    Cnvgd?
         Gradient           0.000220      0.000300     YES
         Displacement       0.003372      0.001200      NO
         Energy change     -0.000016      0.000001      NO


 New Cartesian Coordinates Obtained by Inverse Iteration

 Displacement from previous Coordinates is:  0.002463
 Writing REM_CC_EA           13
 ----------------------------------------------------
       Standard Nuclear Orientation (Angstroms)
    I     Atom         X            Y            Z
 ----------------------------------------------------
    1      C       0.000000     0.000000     1.000000
    2      C       1.254665     0.753981     1.000000
    3      C       1.254665    -0.753981     1.000000
    4      C      -1.254665     0.000000     0.246019
    5      C      -1.254665     0.000000     1.753981
    6      H       1.557052     1.259758     1.918790
    7      H       1.557052     1.259758     0.081210
    8      H       1.557052    -1.259758     1.918790
    9      H       1.557052    -1.259758     0.081210
   10      H      -1.557052    -0.918790    -0.259758
   11      H      -1.557052     0.918790    -0.259758
   12      H      -1.557052    -0.918790     2.259758
   13      H      -1.557052     0.918790     2.259758
 ----------------------------------------------------
 Nuclear Repulsion Energy =   171.8533958279 hartrees
 There are       19 alpha and       19 beta electrons
 Applying Cartesian multipole field
    Component          Value
    ---------          -----
     (2,0,0)        1.00000E-11
     (0,2,0)        2.00000E-11
     (0,0,2)       -3.00000E-11
 Nucleus-field energy     =    -0.0000000026 hartrees
 Requested basis set is G3large
 There are 98 shells and 290 basis functions
 A cutoff of  1.0D-11 yielded   4591 shell pairs
 There are  40493 function pairs ( 49523 Cartesian)
Evaluating contribution to one-electron hamiltonian from nuclear
 Smallest overlap matrix eigenvalue = 2.46E-05
 Multipole matrices computed through 2nd order
 Guess MOs from SCF MO coefficient file
Reading MOs from coefficient file
Reading MOs from coefficient file
 A restricted hybrid HF-DFT SCF calculation will be
 performed using Pulay DIIS extrapolation
 Exchange:     1.0000 Hartree-Fock + 1.0000 BNL
 Correlation:  1.0000 LYP
 Using SG-1 standard quadrature grid
 SCF converges when DIIS error is below 1.0E-08
 ---------------------------------------
  Cycle       Energy         DIIS Error
 ---------------------------------------
    1    -192.9478180881      9.83E-06
    2    -192.9478359172      8.20E-07
    3    -192.9478358690      3.66E-07
    4    -192.9478358685      1.33E-07
    5    -192.9478358838      3.64E-08
    6    -192.9478358787      1.24E-08
    7    -192.9478358809      2.88E-09 Convergence criterion met
 ---------------------------------------
 One-Electron    Energy =  -601.1652822876
 Total Coulomb   Energy =   264.0123058182
 Alpha Exchange  Energy =    -3.5980634638
 Beta  Exchange  Energy =    -3.5980634638
 DFT   Exchange  Energy =   -19.2148605234
 DFT Correlation Energy =    -1.2372677858
 Nuclear Repu.   Energy =   171.8533958253
 Nuclear Attr.   Energy =  -792.9645939312
 Kinetic         Energy =   191.7993116436
 SCF time:  CPU 295.04 s  wall 295.74 s
 Final Alpha MO Eigenvalues
            1           2           3           4           5           6
    1  -9.9725720  -9.9601054  -9.9600925  -9.9599685  -9.9599685  -1.0189229
            7           8           9          10          11          12
    1  -0.9313581  -0.7234326  -0.7234326  -0.6602692  -0.6041593  -0.5916010
           13          14          15          16          17          18
    1  -0.5916010  -0.4747326  -0.4689937  -0.4577561  -0.3947344  -0.3947344
           19          20          21          22          23          24
    1  -0.3847878   0.0356325   0.0475417   0.0475417   0.0516080   0.0715963
 Analysis of SCF Wavefunction
 
 --------------------------------------------------------------
                    Orbital Energies (a.u.)
 --------------------------------------------------------------
 
 Alpha MOs
 -- Occupied --
 -9.973  -9.960  -9.960  -9.960  -9.960  -1.019  -0.931  -0.723
 -0.723  -0.660  -0.604  -0.592  -0.592  -0.475  -0.469  -0.458
 -0.395  -0.395  -0.385
 -- Virtual --
  0.036   0.048   0.048   0.052   0.072   0.072   0.077   0.092
  0.095   0.111   0.141   0.141   0.150   0.154   0.158   0.158
  0.176   0.178   0.178   0.189   0.201   0.201   0.208   0.226
  0.227   0.229   0.229   0.244   0.244   0.252   0.298   0.308
  0.308   0.329   0.353   0.353   0.365   0.406   0.431   0.431
  0.437   0.440   0.487   0.540   0.561   0.561   0.561   0.590
  0.590   0.629   0.643   0.643   0.668   0.681   0.686   0.689
  0.689   0.713   0.713   0.727   0.742   0.751   0.753   0.753
  0.777   0.806   0.861   0.899   0.899   0.907   0.921   0.952
  0.975   1.003   1.006   1.006   1.085   1.134   1.134   1.165
  1.195   1.208   1.208   1.229   1.245   1.245   1.267   1.289
  1.289   1.351   1.351   1.406   1.412   1.412   1.440   1.458
  1.458   1.484   1.490   1.500   1.519   1.524   1.552   1.552
  1.577   1.583   1.606   1.647   1.665   1.665   1.675   1.694
  1.694   1.700   1.762   1.880   1.914   1.914   1.939   2.588
  2.588   2.668   2.712   2.742   2.742   2.745   2.780   2.786
  2.786   2.818   2.841   2.890   2.890   2.951   3.002   3.013
  3.019   3.019   3.049   3.111   3.111   3.126   3.127   3.184
  3.184   3.193   3.193   3.215   3.242   3.242   3.283   3.304
  3.345   3.345   3.356   3.387   3.453   3.453   3.472   3.497
  3.497   3.556   3.556   3.558   3.582   3.603   3.628   3.652
  3.652   3.662   3.711   3.711   3.747   3.800   3.907   3.935
  3.975   3.996   3.996   4.065   4.065   4.092   4.170   4.222
  4.225   4.228   4.228   4.257   4.257   4.350   4.372   4.384
  4.394   4.457   4.463   4.471   4.482   4.482   4.530   4.530
  4.625   4.625   4.651   4.651   4.651   4.692   4.728   4.841
  4.862   5.016   5.016   5.107   5.107   5.218   5.383   5.517
  5.583   5.583   5.588   5.700   5.700   5.706   5.740   5.882
  5.882   5.925  24.316  24.347  24.622  24.622  24.708  27.619
 27.690  27.741  27.741  28.144  28.219  28.219  28.226  28.236
 28.264  28.264  28.273  28.655  28.655  29.102  40.905  40.918
 40.942  41.004  41.014  41.014  41.018  41.062  41.075  41.075
 41.246  41.249  41.249  41.257  41.257  41.271  41.292  41.304
 41.352  41.352  41.362  41.362  41.394  41.472  41.472
 --------------------------------------------------------------
 
          Ground-State Mulliken Net Atomic Charges

     Atom                 Charge (a.u.)
  ----------------------------------------
      1 C                     0.307894
      2 C                    -0.326925
      3 C                    -0.326924
      4 C                    -0.326924
      5 C                    -0.326924
      6 H                     0.124975
      7 H                     0.124975
      8 H                     0.124975
      9 H                     0.124975
     10 H                     0.124975
     11 H                     0.124975
     12 H                     0.124975
     13 H                     0.124975
  ----------------------------------------
  Sum of atomic charges =     0.000000

 -----------------------------------------------------------------
                    Cartesian Multipole Moments
 -----------------------------------------------------------------
    Charge (ESU x 10^10)
                 0.0000
    Dipole Moment (Debye)
         X       0.0000      Y       0.0000      Z       0.0000
       Tot       0.0000
    Quadrupole Moments (Debye-Ang)
        XX     -33.6312     XY       0.0000     YY     -31.4018
        XZ       0.0000     YZ       0.0000     ZZ     -31.4018
    Octapole Moments (Debye-Ang^2)
       XXX       0.0000    XXY       0.0000    XYY      -0.7756
       YYY       0.0000    XXZ     -33.6312    XYZ       0.0000
       YYZ     -31.4018    XZZ       0.7756    YZZ       0.0000
       ZZZ     -94.2053
    Hexadecapole Moments (Debye-Ang^3)
      XXXX    -355.2186   XXXY       0.0000   XXYY     -69.1746
      XYYY       0.0000   YYYY    -119.7591   XXXZ       0.0000
      XXYZ       0.0000   XYYZ      -0.7756   YYYZ       0.0000
      XXZZ    -102.8059   XYZZ       0.0000   YYZZ     -65.6432
      XZZZ       2.3269   YZZZ       0.0000   ZZZZ    -308.1698
 -----------------------------------------------------------------
 Calculating analytic gradient of the SCF energy
 Gradient of AOints
            1           2           3           4           5           6
    1   0.0000001  -5.3582467  -5.3582450   5.3582460   5.3582458  -1.4323870
    2   0.0000017  -5.3393267   5.3393257  -0.0000002   0.0000002  -2.1801435
    3  -0.0000001  -0.0000000  -0.0000002   5.3393259  -5.3393255  -3.1384676
            7           8           9          10          11          12
    1  -1.4323870  -1.4323872  -1.4323872   1.4323875   1.4323866   1.4323873
    2  -2.1801434   2.1801433   2.1801433   3.1384676  -3.1384678   3.1384675
    3   3.1384675  -3.1384676   3.1384677   2.1801434   2.1801435  -2.1801434
           13
    1   1.4323868
    2  -3.1384678
    3  -2.1801435
 Gradient of XC Energy
            1           2           3           4           5           6
    1  -0.0000000   0.0363837   0.0363836  -0.0363837  -0.0363837   0.0447342
    2  -0.0000000   0.0640042  -0.0640041   0.0000000  -0.0000000   0.0772008
    3   0.0000000   0.0000000   0.0000000  -0.0640041   0.0640041   0.1336440
            7           8           9          10          11          12
    1   0.0447342   0.0447343   0.0447343  -0.0447343  -0.0447342  -0.0447343
    2   0.0772008  -0.0772008  -0.0772008  -0.1336440   0.1336440  -0.1336440
    3  -0.1336440   0.1336440  -0.1336440  -0.0772008  -0.0772008   0.0772008
           13
    1  -0.0447342
    2   0.1336440
    3   0.0772008
 Gradient of SCF Energy
            1           2           3           4           5           6
    1   0.0000000  -0.0000206  -0.0000206   0.0000206   0.0000206  -0.0000171
    2  -0.0000000   0.0001194  -0.0001194  -0.0000000  -0.0000000  -0.0000425
    3   0.0000000  -0.0000000  -0.0000000  -0.0001194   0.0001194   0.0000218
            7           8           9          10          11          12
    1  -0.0000171  -0.0000171  -0.0000171   0.0000171   0.0000171   0.0000171
    2  -0.0000425   0.0000425   0.0000425  -0.0000218   0.0000218  -0.0000218
    3  -0.0000218   0.0000218  -0.0000218   0.0000425   0.0000425  -0.0000425
           13
    1   0.0000171
    2   0.0000218
    3  -0.0000425
 Max gradient component =       1.194E-04
 RMS gradient           =       4.509E-05
 Gradient time:  CPU 303.06 s  wall 303.20 s
 Geometry Optimization Parameters
   NAtoms,    NIC,     NZ,  NCons,   NDum,   NFix, NCnnct, MaxDiis
       13     118      16       0       0       0       0       0

 Cartesian Hessian Update
 Hessian Updated using BFGS Update


** GEOMETRY OPTIMIZATION IN DELOCALIZED INTERNAL COORDINATES **
   Searching for a Minimum

   Optimization Cycle:   4

                       Coordinates (Angstroms)
     ATOM              X           Y           Z
    1  C           0.000000    0.000000    1.000000
    2  C           1.254665    0.753981    1.000000
    3  C           1.254665   -0.753981    1.000000
    4  C          -1.254665    0.000000    0.246019
    5  C          -1.254665    0.000000    1.753981
    6  H           1.557052    1.259758    1.918790
    7  H           1.557052    1.259758    0.081210
    8  H           1.557052   -1.259758    1.918790
    9  H           1.557052   -1.259758    0.081210
   10  H          -1.557052   -0.918790   -0.259758
   11  H          -1.557052    0.918790   -0.259758
   12  H          -1.557052   -0.918790    2.259758
   13  H          -1.557052    0.918790    2.259758
   Point Group: c1    Number of degrees of freedom:  33


   Energy is   -192.947835881

 Hessian Updated using BFGS Update

  9 Hessian modes will be used to form the next step
  Hessian Eigenvalues:
     0.024236    0.024237    0.024237    0.054029    0.094162    0.244395
     0.313779    0.350257    0.350287

 Minimum Search - Taking Simple RFO Step
 Searching for Lamda that Minimizes Along All modes
 Value Taken    Lamda =   0.00000000
 Step Taken.  Stepsize is  0.002851

                             Maximum     Tolerance    Cnvgd?
         Gradient           0.000105      0.000300     YES
         Displacement       0.002256      0.001200      NO
         Energy change     -0.000001      0.000001      NO


 New Cartesian Coordinates Obtained by Inverse Iteration

 Displacement from previous Coordinates is:  0.002196
 Writing REM_CC_EA           13
 ----------------------------------------------------
       Standard Nuclear Orientation (Angstroms)
    I     Atom         X            Y            Z
 ----------------------------------------------------
    1      C       0.000000     0.000000     1.000000
    2      C       1.254832     0.753880     1.000000
    3      C       1.254832    -0.753880     1.000000
    4      C      -1.254832     0.000000     0.246120
    5      C      -1.254832     0.000000     1.753880
    6      H       1.557271     1.260016     1.918602
    7      H       1.557271     1.260016     0.081398
    8      H       1.557271    -1.260016     1.918602
    9      H       1.557271    -1.260016     0.081398
   10      H      -1.557271    -0.918602    -0.260016
   11      H      -1.557271     0.918602    -0.260016
   12      H      -1.557271    -0.918602     2.260016
   13      H      -1.557271     0.918602     2.260016
 ----------------------------------------------------
 Nuclear Repulsion Energy =   171.8469696690 hartrees
 There are       19 alpha and       19 beta electrons
 Applying Cartesian multipole field
    Component          Value
    ---------          -----
     (2,0,0)        1.00000E-11
     (0,2,0)        2.00000E-11
     (0,0,2)       -3.00000E-11
 Nucleus-field energy     =    -0.0000000026 hartrees
 Requested basis set is G3large
 There are 98 shells and 290 basis functions
 A cutoff of  1.0D-11 yielded   4591 shell pairs
 There are  40493 function pairs ( 49523 Cartesian)
Evaluating contribution to one-electron hamiltonian from nuclear
 Smallest overlap matrix eigenvalue = 2.46E-05
 Multipole matrices computed through 2nd order
 Guess MOs from SCF MO coefficient file
Reading MOs from coefficient file
Reading MOs from coefficient file
 A restricted hybrid HF-DFT SCF calculation will be
 performed using Pulay DIIS extrapolation
 Exchange:     1.0000 Hartree-Fock + 1.0000 BNL
 Correlation:  1.0000 LYP
 Using SG-1 standard quadrature grid
 SCF converges when DIIS error is below 1.0E-08
 ---------------------------------------
  Cycle       Energy         DIIS Error
 ---------------------------------------
    1    -192.9478567624      8.09E-06
    2    -192.9478358567      7.47E-07
    3    -192.9478357374      2.98E-07
    4    -192.9478357918      8.04E-08
    5    -192.9478357831      3.04E-08
    6    -192.9478357875      3.08E-09 Convergence criterion met
 ---------------------------------------
 One-Electron    Energy =  -601.1525091317
 Total Coulomb   Energy =   264.0058634811
 Alpha Exchange  Energy =    -3.5980588546
 Beta  Exchange  Energy =    -3.5980588546
 DFT   Exchange  Energy =   -19.2147811537
 DFT Correlation Energy =    -1.2372609404
 Nuclear Repu.   Energy =   171.8469696664
 Nuclear Attr.   Energy =  -792.9513905717
 Kinetic         Energy =   191.7988814400
 SCF time:  CPU 262.42 s  wall 262.90 s
 Final Alpha MO Eigenvalues
            1           2           3           4           5           6
    1  -9.9725965  -9.9601130  -9.9601001  -9.9599760  -9.9599760  -1.0189002
            7           8           9          10          11          12
    1  -0.9313697  -0.7234310  -0.7234310  -0.6603044  -0.6042155  -0.5915518
           13          14          15          16          17          18
    1  -0.5915518  -0.4746540  -0.4690802  -0.4576878  -0.3947037  -0.3947037
           19          20          21          22          23          24
    1  -0.3848652   0.0356295   0.0475440   0.0475440   0.0516047   0.0715935
 Analysis of SCF Wavefunction
 
 --------------------------------------------------------------
                    Orbital Energies (a.u.)
 --------------------------------------------------------------
 
 Alpha MOs
 -- Occupied --
 -9.973  -9.960  -9.960  -9.960  -9.960  -1.019  -0.931  -0.723
 -0.723  -0.660  -0.604  -0.592  -0.592  -0.475  -0.469  -0.458
 -0.395  -0.395  -0.385
 -- Virtual --
  0.036   0.048   0.048   0.052   0.072   0.072   0.077   0.092
  0.095   0.111   0.141   0.141   0.150   0.154   0.158   0.158
  0.176   0.178   0.178   0.189   0.201   0.201   0.208   0.226
  0.227   0.229   0.229   0.244   0.244   0.252   0.298   0.308
  0.308   0.329   0.353   0.353   0.365   0.406   0.431   0.431
  0.437   0.440   0.487   0.540   0.561   0.561   0.561   0.590
  0.590   0.629   0.643   0.643   0.668   0.681   0.685   0.689
  0.689   0.713   0.713   0.727   0.742   0.751   0.753   0.753
  0.777   0.806   0.861   0.899   0.899   0.907   0.920   0.952
  0.975   1.003   1.006   1.006   1.085   1.135   1.135   1.165
  1.195   1.208   1.208   1.229   1.245   1.245   1.267   1.289
  1.289   1.351   1.351   1.405   1.412   1.412   1.440   1.458
  1.458   1.484   1.490   1.501   1.519   1.524   1.552   1.552
  1.577   1.583   1.606   1.647   1.666   1.666   1.675   1.694
  1.694   1.700   1.762   1.880   1.914   1.914   1.939   2.587
  2.587   2.668   2.712   2.742   2.742   2.746   2.780   2.786
  2.786   2.818   2.841   2.890   2.890   2.951   3.002   3.013
  3.019   3.019   3.049   3.111   3.111   3.126   3.126   3.184
  3.184   3.194   3.194   3.215   3.242   3.243   3.283   3.303
  3.345   3.345   3.356   3.387   3.452   3.452   3.471   3.497
  3.497   3.556   3.556   3.558   3.582   3.603   3.628   3.652
  3.652   3.661   3.711   3.711   3.747   3.800   3.907   3.935
  3.975   3.996   3.996   4.065   4.065   4.092   4.170   4.223
  4.225   4.227   4.227   4.257   4.257   4.350   4.372   4.384
  4.393   4.457   4.463   4.471   4.482   4.482   4.530   4.530
  4.625   4.625   4.651   4.651   4.651   4.691   4.727   4.841
  4.863   5.016   5.016   5.107   5.107   5.218   5.382   5.516
  5.583   5.583   5.588   5.700   5.700   5.706   5.740   5.882
  5.882   5.924  24.316  24.346  24.622  24.622  24.707  27.619
 27.690  27.741  27.741  28.144  28.219  28.219  28.226  28.236
 28.263  28.263  28.273  28.655  28.655  29.102  40.905  40.918
 40.942  41.003  41.014  41.014  41.018  41.062  41.075  41.075
 41.246  41.249  41.249  41.257  41.257  41.271  41.292  41.303
 41.352  41.352  41.362  41.362  41.393  41.472  41.472
 --------------------------------------------------------------
 
          Ground-State Mulliken Net Atomic Charges

     Atom                 Charge (a.u.)
  ----------------------------------------
      1 C                     0.307797
      2 C                    -0.326850
      3 C                    -0.326850
      4 C                    -0.326850
      5 C                    -0.326850
      6 H                     0.124950
      7 H                     0.124950
      8 H                     0.124950
      9 H                     0.124950
     10 H                     0.124950
     11 H                     0.124950
     12 H                     0.124950
     13 H                     0.124950
  ----------------------------------------
  Sum of atomic charges =     0.000000

 -----------------------------------------------------------------
                    Cartesian Multipole Moments
 -----------------------------------------------------------------
    Charge (ESU x 10^10)
                 0.0000
    Dipole Moment (Debye)
         X       0.0000      Y       0.0000      Z       0.0000
       Tot       0.0000
    Quadrupole Moments (Debye-Ang)
        XX     -33.6284     XY       0.0000     YY     -31.4015
        XZ       0.0000     YZ       0.0000     ZZ     -31.4015
    Octapole Moments (Debye-Ang^2)
       XXX       0.0000    XXY       0.0000    XYY      -0.7677
       YYY       0.0000    XXZ     -33.6284    XYZ       0.0000
       YYZ     -31.4015    XZZ       0.7677    YZZ       0.0000
       ZZZ     -94.2045
    Hexadecapole Moments (Debye-Ang^3)
      XXXX    -355.2803   XXXY       0.0000   XXYY     -69.1826
      XYYY       0.0000   YYYY    -119.7488   XXXZ       0.0000
      XXYZ       0.0000   XYYZ      -0.7677   YYYZ       0.0000
      XXZZ    -102.8111   XYZZ       0.0000   YYZZ     -65.6427
      XZZZ       2.3032   YZZZ       0.0000   ZZZZ    -308.1577
 -----------------------------------------------------------------
 Calculating analytic gradient of the SCF energy
 Gradient of AOints
            1           2           3           4           5           6
    1  -0.0000003  -5.3586880  -5.3586885   5.3586880   5.3586884  -1.4328180
    2   0.0000006  -5.3356538   5.3356535   0.0000002   0.0000004  -2.1821563
    3  -0.0000001  -0.0000011   0.0000012   5.3356536  -5.3356537  -3.1366288
            7           8           9          10          11          12
    1  -1.4328180  -1.4328182  -1.4328181   1.4328186   1.4328178   1.4328186
    2  -2.1821563   2.1821560   2.1821561   3.1366286  -3.1366288   3.1366287
    3   3.1366288  -3.1366289   3.1366289   2.1821560   2.1821563  -2.1821560
           13
    1   1.4328178
    2  -3.1366289
    3  -2.1821561
 Gradient of XC Energy
            1           2           3           4           5           6
    1   0.0000000   0.0363899   0.0363899  -0.0363899  -0.0363899   0.0447500
    2  -0.0000000   0.0638925  -0.0638925  -0.0000000  -0.0000000   0.0772740
    3   0.0000000   0.0000000  -0.0000000  -0.0638925   0.0638925   0.1335916
            7           8           9          10          11          12
    1   0.0447500   0.0447500   0.0447500  -0.0447500  -0.0447500  -0.0447500
    2   0.0772740  -0.0772740  -0.0772740  -0.1335916   0.1335916  -0.1335916
    3  -0.1335916   0.1335916  -0.1335916  -0.0772740  -0.0772740   0.0772740
           13
    1  -0.0447500
    2   0.1335916
    3   0.0772740
 Gradient of SCF Energy
            1           2           3           4           5           6
    1   0.0000000   0.0000035   0.0000035  -0.0000035  -0.0000035   0.0000006
    2  -0.0000000  -0.0000028   0.0000028  -0.0000000  -0.0000000  -0.0000008
    3   0.0000000  -0.0000000  -0.0000000   0.0000028  -0.0000028   0.0000007
            7           8           9          10          11          12
    1   0.0000006   0.0000006   0.0000006  -0.0000006  -0.0000006  -0.0000006
    2  -0.0000008   0.0000008   0.0000008  -0.0000007   0.0000007  -0.0000007
    3  -0.0000007   0.0000007  -0.0000007   0.0000008   0.0000008  -0.0000008
           13
    1  -0.0000006
    2   0.0000007
    3  -0.0000008
 Max gradient component =       3.532E-06
 RMS gradient           =       1.549E-06
 Gradient time:  CPU 302.81 s  wall 303.10 s
 Geometry Optimization Parameters
   NAtoms,    NIC,     NZ,  NCons,   NDum,   NFix, NCnnct, MaxDiis
       13     118      16       0       0       0       0       0

 Cartesian Hessian Update
 Hessian Updated using BFGS Update


** GEOMETRY OPTIMIZATION IN DELOCALIZED INTERNAL COORDINATES **
   Searching for a Minimum

   Optimization Cycle:   5

                       Coordinates (Angstroms)
     ATOM              X           Y           Z
    1  C           0.000000    0.000000    1.000000
    2  C           1.254832    0.753880    1.000000
    3  C           1.254832   -0.753880    1.000000
    4  C          -1.254832    0.000000    0.246120
    5  C          -1.254832    0.000000    1.753880
    6  H           1.557271    1.260016    1.918602
    7  H           1.557271    1.260016    0.081398
    8  H           1.557271   -1.260016    1.918602
    9  H           1.557271   -1.260016    0.081398
   10  H          -1.557271   -0.918602   -0.260016
   11  H          -1.557271    0.918602   -0.260016
   12  H          -1.557271   -0.918602    2.260016
   13  H          -1.557271    0.918602    2.260016
   Point Group: c1    Number of degrees of freedom:  33


   Energy is   -192.947835787

 Hessian Updated using BFGS Update

 24 Hessian modes will be used to form the next step
  Hessian Eigenvalues:
     0.023609    0.023609    0.023883    0.024237    0.043338    0.043338
     0.054317    0.087976    0.092533    0.092533    0.094162    0.094162
     0.108788    0.246535    0.284245    0.284245    0.316557    0.324744
     0.350257    0.350257    0.350257    0.350257    0.350257    0.350362

 Minimum Search - Taking Simple RFO Step
 Searching for Lamda that Minimizes Along All modes
 Value Taken    Lamda =   0.00000000
 Step Taken.  Stepsize is  0.000095

                             Maximum     Tolerance    Cnvgd?
         Gradient           0.000011      0.000300     YES
         Displacement       0.000066      0.001200     YES
         Energy change      0.000000      0.000001     YES


                       Distance Matrix (Angstroms)
             C (  1)   C (  2)   C (  3)   C (  4)   C (  5)   H (  6)
   C (  2)  1.463878
   C (  3)  1.463878  1.507760
   C (  4)  1.463878  2.726734  2.726734
   C (  5)  1.463878  2.726734  2.726734  1.507760
   H (  6)  2.203761  1.091546  2.234072  3.506103  3.085886
   H (  7)  2.203761  1.091546  2.234072  3.085886  3.506103  1.837204
   H (  8)  2.203761  2.234072  1.091546  3.506103  3.085886  2.520032
   H (  9)  2.203761  2.234072  1.091546  3.085886  3.506103  3.118634
   H ( 10)  2.203761  3.506103  3.085886  1.091546  2.234072  4.380995
   H ( 11)  2.203761  3.085886  3.506103  1.091546  2.234072  3.816190
   H ( 12)  2.203761  3.506103  3.085886  2.234072  1.091546  3.816190
   H ( 13)  2.203761  3.085886  3.506103  2.234072  1.091546  3.151745
             H (  7)   H (  8)   H (  9)   H ( 10)   H ( 11)   H ( 12)
   H (  8)  3.118634
   H (  9)  2.520032  1.837204
   H ( 10)  3.816190  3.816190  3.151745
   H ( 11)  3.151745  4.380995  3.816190  1.837204
   H ( 12)  4.380995  3.151745  3.816190  2.520032  3.118634
   H ( 13)  3.816190  3.816190  4.380995  3.118634  2.520032  1.837204

 


 ******************************
 **  OPTIMIZATION CONVERGED  **
 ******************************
 Analysis of SCF Wavefunction
 
 --------------------------------------------------------------
                    Orbital Energies (a.u.)
 --------------------------------------------------------------
 
 Alpha MOs
 -- Occupied --
 -9.973  -9.960  -9.960  -9.960  -9.960  -1.019  -0.931  -0.723
 -0.723  -0.660  -0.604  -0.592  -0.592  -0.475  -0.469  -0.458
 -0.395  -0.395  -0.385
 -- Virtual --
  0.036   0.048   0.048   0.052   0.072   0.072   0.077   0.092
  0.095   0.111   0.141   0.141   0.150   0.154   0.158   0.158
  0.176   0.178   0.178   0.189   0.201   0.201   0.208   0.226
  0.227   0.229   0.229   0.244   0.244   0.252   0.298   0.308
  0.308   0.329   0.353   0.353   0.365   0.406   0.431   0.431
  0.437   0.440   0.487   0.540   0.561   0.561   0.561   0.590
  0.590   0.629   0.643   0.643   0.668   0.681   0.685   0.689
  0.689   0.713   0.713   0.727   0.742   0.751   0.753   0.753
  0.777   0.806   0.861   0.899   0.899   0.907   0.920   0.952
  0.975   1.003   1.006   1.006   1.085   1.135   1.135   1.165
  1.195   1.208   1.208   1.229   1.245   1.245   1.267   1.289
  1.289   1.351   1.351   1.405   1.412   1.412   1.440   1.458
  1.458   1.484   1.490   1.501   1.519   1.524   1.552   1.552
  1.577   1.583   1.606   1.647   1.666   1.666   1.675   1.694
  1.694   1.700   1.762   1.880   1.914   1.914   1.939   2.587
  2.587   2.668   2.712   2.742   2.742   2.746   2.780   2.786
  2.786   2.818   2.841   2.890   2.890   2.951   3.002   3.013
  3.019   3.019   3.049   3.111   3.111   3.126   3.126   3.184
  3.184   3.194   3.194   3.215   3.242   3.243   3.283   3.303
  3.345   3.345   3.356   3.387   3.452   3.452   3.471   3.497
  3.497   3.556   3.556   3.558   3.582   3.603   3.628   3.652
  3.652   3.661   3.711   3.711   3.747   3.800   3.907   3.935
  3.975   3.996   3.996   4.065   4.065   4.092   4.170   4.223
  4.225   4.227   4.227   4.257   4.257   4.350   4.372   4.384
  4.393   4.457   4.463   4.471   4.482   4.482   4.530   4.530
  4.625   4.625   4.651   4.651   4.651   4.691   4.727   4.841
  4.863   5.016   5.016   5.107   5.107   5.218   5.382   5.516
  5.583   5.583   5.588   5.700   5.700   5.706   5.740   5.882
  5.882   5.924  24.316  24.346  24.622  24.622  24.707  27.619
 27.690  27.741  27.741  28.144  28.219  28.219  28.226  28.236
 28.263  28.263  28.273  28.655  28.655  29.102  40.905  40.918
 40.942  41.003  41.014  41.014  41.018  41.062  41.075  41.075
 41.246  41.249  41.249  41.257  41.257  41.271  41.292  41.303
 41.352  41.352  41.362  41.362  41.393  41.472  41.472
 --------------------------------------------------------------
 
          Ground-State Mulliken Net Atomic Charges

     Atom                 Charge (a.u.)
  ----------------------------------------
      1 C                     0.307797
      2 C                    -0.326850
      3 C                    -0.326850
      4 C                    -0.326850
      5 C                    -0.326850
      6 H                     0.124950
      7 H                     0.124950
      8 H                     0.124950
      9 H                     0.124950
     10 H                     0.124950
     11 H                     0.124950
     12 H                     0.124950
     13 H                     0.124950
  ----------------------------------------
  Sum of atomic charges =     0.000000

 -----------------------------------------------------------------
                    Cartesian Multipole Moments
 -----------------------------------------------------------------
    Charge (ESU x 10^10)
                 0.0000
    Dipole Moment (Debye)
         X       0.0000      Y       0.0000      Z       0.0000
       Tot       0.0000
    Quadrupole Moments (Debye-Ang)
        XX     -33.6284     XY       0.0000     YY     -31.4015
        XZ       0.0000     YZ       0.0000     ZZ     -31.4015
    Octapole Moments (Debye-Ang^2)
       XXX       0.0000    XXY       0.0000    XYY      -0.7677
       YYY       0.0000    XXZ     -33.6284    XYZ       0.0000
       YYZ     -31.4015    XZZ       0.7677    YZZ       0.0000
       ZZZ     -94.2045
    Hexadecapole Moments (Debye-Ang^3)
      XXXX    -355.2803   XXXY       0.0000   XXYY     -69.1826
      XYYY       0.0000   YYYY    -119.7488   XXXZ       0.0000
      XXYZ       0.0000   XYYZ      -0.7677   YYYZ       0.0000
      XXZZ    -102.8111   XYZZ       0.0000   YYZZ     -65.6427
      XZZZ       2.3032   YZZZ       0.0000   ZZZZ    -308.1577
 -----------------------------------------------------------------
 Total job time:  3374.28s(wall), 3368.05s(cpu) 
 Sat Apr 23 18:31:20 2011

        *************************************************************
        *                                                           *
        *  Thank you very much for using Q-Chem.  Have a nice day.  *
        *                                                           *
        *************************************************************


0 sent ACK to 0 
now end server 0 ... 
 
**********************************************************************
Job 2 of 2 
**********************************************************************
 
Process 0 of 1 is on cl246.stfx.acenet.ca - thread support 1
initial socket setup ...start
initial socket setup ...done 
now start server 0 ... 

cmd = /usr/bin/ssh clhead /usr/local/qchem/bin/get_hostid 1626263505 > /scratch/tmp/4506633.1.long.q/qchem15952/lic.dat
                  Welcome to Q-Chem
     A Quantum Leap Into The Future Of Chemistry

 Y. Shao, L. Fusti-Molnar, Y. Jung, J. Kussmann, C. Ochsenfeld,
 S. T. Brown, A. T. B. Gilbert, L. V. Slipchenko,S. V. Levchenko,
 D. P. O'Neill, R. A. DiStasio Jr., R. C. Lochan, T. Wang,
 G. J. O. Beran, N. A. Besley, J. M. Herbert, C. Y. Lin,
 T. Van Voorhis, S. H. Chien, A. Sodt, R. P. Steele, 
 V. A. Rassolov, P. E. Maslen, P. P. Korambath, R. D. Adamson,
 B. Austin, J. Baker, E. F. C. Byrd, H. Dachsel, R. J. Doerksen,
 A. Dreuw, B. D. Dunietz, A. D. Dutoi, T. R. Furlani,
 S. R. Gwaltney, A. Heyden, S. Hirata, C.-P. Hsu, G. Kedziora,
 R. Z. Khaliullin, P. Klunzinger, A. M. Lee, M. S. Lee, W. Liang,
 I. Lotan, N. Nair, B. Peters, E. I. Proynov, P. A. Pieniazek, 
 Y. M. Rhee, J. Ritchie, E. Rosta, C. D. Sherrill, 
 A. C. Simmonett, J. E. Subotnik, H. L. Woodcock III,
 W. Zhang, A. T. Bell, A. K. Chakraborty, D. M. Chipman,
 F. J. Keil, A. Warshel, W. J. Hehre, H. F. Schaefer III,
 J. Kong, A. I. Krylov, P. M. W. Gill, M. Head-Gordon,
 Q-Chem, Version 3.1, Q-Chem, Inc., Pittsburgh, PA (2007).

 Additional authors for Version 3.1: 
 Z. Gan, Y. Zhao, N. E. Schultz, D. Truhlar, E. Epifanovsky and M. Oana.

 Additional authors for Version 3.2: 
 R. Baer, B. R. Brooks, D. Casanova, J.-D. Chai, C.-L. Cheng, 
 C. Cramer, D. Crittenden, A. Ghysels, G. Hawkins, E. G. Hohenstein, 
 C. Kelley, W. Kurlancheek, D. Liotard, E. Livshits, P. Manohar, 
 A. Marenich, D. Neuhauser, R. Olson, M. A. Rohrdanz, K. S. Thanthiriwatte, 
 A. J. W. Thom, V. Vanovschi, C. F. Williams, Q. Wu and Z.-Q. You. 


 Intel X86 Linux Version

 Q-chem begins on Sat Apr 23 18:31:23 2011  

 Parallel job on  1  processors
Processing $rem in /usr/local/qchem/config/preferences.

theFileMan(): MAXOPENFILES=974 MAX_SUB_FILE_NUM=16
Maximum size of a physical file is 2.0 GB, maximum size of a tmp-file is 32.0 GB


--------------------------------------------------------------
User input:
--------------------------------------------------------------

$molecule 
READ 
$end 

$xc_functional
   X HF 1.0
   X BNL 1.0
   C LYP 1.0
$end

$rem
SYMMETRY_DECOMPOSITION	0
exchange 		general
BASIS                   g3large
omega			380 
JOBTYPE                 freq
IDERIV 1
SCF_GUESS READ
separate_jk		true
mem_static              760
max_scf_cycles          200
scf_final_print         1
sym_ignore              true
$end

--------------------------------------------------------------
 Writing REM_CC_EA           13
 ----------------------------------------------------
       Standard Nuclear Orientation (Angstroms)
    I     Atom         X            Y            Z
 ----------------------------------------------------
    1      C       0.000000     0.000000     1.000000
    2      C       1.254832     0.753880     1.000000
    3      C       1.254832    -0.753880     1.000000
    4      C      -1.254832     0.000000     0.246120
    5      C      -1.254832     0.000000     1.753880
    6      H       1.557271     1.260016     1.918602
    7      H       1.557271     1.260016     0.081398
    8      H       1.557271    -1.260016     1.918602
    9      H       1.557271    -1.260016     0.081398
   10      H      -1.557271    -0.918602    -0.260016
   11      H      -1.557271     0.918602    -0.260016
   12      H      -1.557271    -0.918602     2.260016
   13      H      -1.557271     0.918602     2.260016
 ----------------------------------------------------
 Nuclear Repulsion Energy =   171.8469696690 hartrees
 There are       19 alpha and       19 beta electrons
 Requested basis set is G3large
 There are 98 shells and 290 basis functions

Total QAlloc Memory Limit   2000 MB
Mega-Array Size       759 MB
MEM_STATIC part       760 MB

                       Distance Matrix (Angstroms)
             C (  1)   C (  2)   C (  3)   C (  4)   C (  5)   H (  6)
   C (  2)  1.463878
   C (  3)  1.463878  1.507760
   C (  4)  1.463878  2.726734  2.726734
   C (  5)  1.463878  2.726734  2.726734  1.507760
   H (  6)  2.203761  1.091546  2.234072  3.506103  3.085886
   H (  7)  2.203761  1.091546  2.234072  3.085886  3.506103  1.837204
   H (  8)  2.203761  2.234072  1.091546  3.506103  3.085886  2.520032
   H (  9)  2.203761  2.234072  1.091546  3.085886  3.506103  3.118634
   H ( 10)  2.203761  3.506103  3.085886  1.091546  2.234072  4.380995
   H ( 11)  2.203761  3.085886  3.506103  1.091546  2.234072  3.816190
   H ( 12)  2.203761  3.506103  3.085886  2.234072  1.091546  3.816190
   H ( 13)  2.203761  3.085886  3.506103  2.234072  1.091546  3.151745
             H (  7)   H (  8)   H (  9)   H ( 10)   H ( 11)   H ( 12)
   H (  8)  3.118634
   H (  9)  2.520032  1.837204
   H ( 10)  3.816190  3.816190  3.151745
   H ( 11)  3.151745  4.380995  3.816190  1.837204
   H ( 12)  4.380995  3.151745  3.816190  2.520032  3.118634
   H ( 13)  3.816190  3.816190  4.380995  3.118634  2.520032  1.837204

 
 A cutoff of  1.0D-11 yielded   4591 shell pairs
 There are  40493 function pairs ( 49523 Cartesian)
Evaluating contribution to one-electron hamiltonian from nuclear
 Smallest overlap matrix eigenvalue = 2.46E-05
 Multipole matrices computed through 2nd order
 Guess MOs from SCF MO coefficient file
Reading MOs from coefficient file
Reading MOs from coefficient file
 A restricted hybrid HF-DFT SCF calculation will be
 performed using Pulay DIIS extrapolation
 Exchange:     1.0000 Hartree-Fock + 1.0000 BNL
 Correlation:  1.0000 LYP
 Using SG-1 standard quadrature grid
 SCF converges when DIIS error is below 1.0E-08
 ---------------------------------------
  Cycle       Energy         DIIS Error
 ---------------------------------------
    1    -192.9478358216      1.15E-09
    2    -192.9478358178      9.63E-10 Convergence criterion met
 ---------------------------------------
 One-Electron    Energy =  -601.1525096772
 Total Coulomb   Energy =   264.0058641273
 Alpha Exchange  Energy =    -3.5980588663
 Beta  Exchange  Energy =    -3.5980588663
 DFT   Exchange  Energy =   -19.2147812603
 DFT Correlation Energy =    -1.2372609439
 Nuclear Repu.   Energy =   171.8469696690
 Nuclear Attr.   Energy =  -792.9513917494
 Kinetic         Energy =   191.7988820721
 SCF time:  CPU 105.75 s  wall 105.93 s
 Final Alpha MO Eigenvalues
            1           2           3           4           5           6
    1  -9.9725966  -9.9601130  -9.9601001  -9.9599760  -9.9599760  -1.0189002
            7           8           9          10          11          12
    1  -0.9313697  -0.7234310  -0.7234310  -0.6603044  -0.6042155  -0.5915518
           13          14          15          16          17          18
    1  -0.5915518  -0.4746540  -0.4690802  -0.4576878  -0.3947037  -0.3947037
           19          20          21          22          23          24
    1  -0.3848652   0.0356295   0.0475441   0.0475441   0.0516047   0.0715935
 Analysis of SCF Wavefunction
 
 --------------------------------------------------------------
                    Orbital Energies (a.u.)
 --------------------------------------------------------------
 
 Alpha MOs
 -- Occupied --
 -9.973  -9.960  -9.960  -9.960  -9.960  -1.019  -0.931  -0.723
 -0.723  -0.660  -0.604  -0.592  -0.592  -0.475  -0.469  -0.458
 -0.395  -0.395  -0.385
 -- Virtual --
  0.036   0.048   0.048   0.052   0.072   0.072   0.077   0.092
  0.095   0.111   0.141   0.141   0.150   0.154   0.158   0.158
  0.176   0.178   0.178   0.189   0.201   0.201   0.208   0.226
  0.227   0.229   0.229   0.244   0.244   0.252   0.298   0.308
  0.308   0.329   0.353   0.353   0.365   0.406   0.431   0.431
  0.437   0.440   0.487   0.540   0.561   0.561   0.561   0.590
  0.590   0.629   0.643   0.643   0.668   0.681   0.685   0.689
  0.689   0.713   0.713   0.727   0.742   0.751   0.753   0.753
  0.777   0.806   0.861   0.899   0.899   0.907   0.920   0.952
  0.975   1.003   1.006   1.006   1.085   1.135   1.135   1.165
  1.195   1.208   1.208   1.229   1.245   1.245   1.267   1.289
  1.289   1.351   1.351   1.405   1.412   1.412   1.440   1.458
  1.458   1.484   1.490   1.501   1.519   1.524   1.552   1.552
[...]
               X      Y      Z        X      Y      Z        X      Y      Z
 C          0.000  0.000 -0.001    0.000  0.173 -0.162    0.000  0.162  0.173
 C          0.000  0.000 -0.129    0.116  0.001  0.055    0.108  0.000 -0.059
 C          0.000  0.000  0.129   -0.116  0.001  0.054   -0.108  0.001 -0.058
 C          0.000  0.129  0.000   -0.108 -0.059  0.000    0.116 -0.054  0.001
 C          0.000 -0.129  0.000    0.108 -0.058  0.000   -0.116 -0.055  0.001
 H          0.081  0.198 -0.266   -0.023 -0.024  0.114    0.431 -0.073 -0.125
 H         -0.081 -0.198 -0.266    0.428 -0.075  0.117   -0.051 -0.019 -0.122
 H         -0.083  0.198  0.267   -0.428 -0.076  0.116    0.050 -0.018 -0.121
 H          0.083 -0.198  0.267    0.022 -0.022  0.113   -0.430 -0.074 -0.123
 H         -0.083  0.266 -0.198    0.051 -0.122  0.019    0.428 -0.116 -0.076
 H          0.081  0.266  0.198   -0.431 -0.125  0.073   -0.022 -0.113 -0.023
 H          0.083 -0.266 -0.198    0.430 -0.123  0.074    0.023 -0.114 -0.024
 H         -0.081 -0.266  0.198   -0.050 -0.120  0.018   -0.428 -0.117 -0.075
 TransDip   0.000  0.000  0.000    0.000 -0.011  0.010    0.000 -0.010 -0.011

 Mode:                 4                      5                      6
 Frequency:       636.32                 789.06                 789.11
 Force Cnst:      0.7785                 0.3762                 0.3763
 Red. Mass:       3.2634                 1.0257                 1.0256
 IR Active:          YES                    YES                    YES
 IR Intens:        0.000                  1.015                  1.015
 Raman Active:       YES                    YES                    YES
               X      Y      Z        X      Y      Z        X      Y      Z
 C          0.000  0.000  0.000    0.000  0.001  0.004    0.000 -0.004  0.001
 C         -0.217  0.064  0.000    0.005  0.003  0.018   -0.017 -0.011  0.006
 C         -0.217 -0.064  0.000   -0.005  0.003  0.018    0.017 -0.011  0.006
 C          0.217  0.000 -0.064    0.017  0.006  0.011    0.005 -0.018  0.003
 C          0.217  0.000  0.064   -0.017  0.006  0.011   -0.005 -0.018  0.003
 H         -0.304  0.082  0.015   -0.096  0.425 -0.183   -0.075  0.134 -0.056
 H         -0.304  0.082 -0.015    0.122 -0.424 -0.181   -0.006 -0.135 -0.060
 H         -0.304 -0.082  0.015   -0.121 -0.424 -0.182    0.007 -0.135 -0.060
 H         -0.304 -0.082 -0.015    0.095  0.425 -0.183    0.075  0.134 -0.056
 H          0.304 -0.015 -0.081    0.006 -0.059  0.135    0.121  0.181 -0.424
 H          0.304  0.015 -0.082    0.076 -0.056 -0.134   -0.096  0.183  0.425
 H          0.304 -0.015  0.082   -0.075 -0.056 -0.134    0.096  0.183  0.425
 H          0.304  0.015  0.082   -0.007 -0.060  0.135   -0.122  0.181 -0.424
 TransDip   0.000  0.000  0.000    0.000 -0.010 -0.031    0.000  0.031 -0.010

 Mode:                 7                      8                      9
 Frequency:       834.27                 917.66                 917.66
 Force Cnst:      0.4522                 0.8814                 0.8814
 Red. Mass:       1.1028                 1.7765                 1.7765
 IR Active:          YES                    YES                    YES
 IR Intens:        0.000                  5.603                  5.603
 Raman Active:       YES                    YES                    YES
               X      Y      Z        X      Y      Z        X      Y      Z
 C          0.000  0.000  0.000    0.000 -0.081  0.068    0.000 -0.068 -0.081
 C          0.000  0.000 -0.046    0.088  0.080  0.047    0.074  0.067 -0.056
 C          0.000  0.000  0.046   -0.088  0.080  0.047   -0.074  0.067 -0.056
 C          0.000 -0.046  0.000   -0.074 -0.056 -0.067    0.088 -0.047  0.080
 C          0.000  0.046  0.000    0.074 -0.056 -0.067   -0.088 -0.047  0.080
 H         -0.325 -0.082  0.106    0.442  0.078 -0.065   -0.126 -0.064  0.082
 H          0.325  0.082  0.106   -0.046 -0.049 -0.070    0.458  0.088  0.079
 H          0.326 -0.081 -0.106    0.046 -0.049 -0.069   -0.457  0.088  0.078
 H         -0.326  0.081 -0.106   -0.442  0.078 -0.065    0.126 -0.064  0.082
 H         -0.326  0.106 -0.081   -0.457  0.078 -0.088   -0.046  0.070 -0.049
 H          0.326  0.106  0.081    0.126  0.082  0.064    0.442  0.065  0.078
 H          0.326 -0.106 -0.082   -0.126  0.082  0.064   -0.442  0.065  0.078
 H         -0.325 -0.106  0.082    0.457  0.078 -0.088    0.046  0.069 -0.049
 TransDip   0.000  0.000  0.000    0.000 -0.058  0.049    0.000 -0.049 -0.058

 Mode:                10                     11                     12
 Frequency:       961.18                1007.54                1024.33
 Force Cnst:      1.0263                 0.6985                 1.1407
 Red. Mass:       1.8854                 1.1678                 1.8453
 IR Active:          YES                    YES                    YES
 IR Intens:       42.436                  0.000                  5.884
 Raman Active:       YES                    YES                    YES
               X      Y      Z        X      Y      Z        X      Y      Z
 C          0.124  0.000  0.000    0.000  0.000  0.000   -0.057  0.000  0.000
 C          0.005  0.127  0.000    0.000  0.000  0.060    0.069 -0.116  0.000
 C          0.005 -0.127  0.000    0.000  0.000 -0.060    0.069  0.116  0.000
 C          0.005  0.000  0.127    0.000 -0.060  0.000    0.069  0.000 -0.116
 C          0.005  0.000 -0.127    0.000  0.060  0.000    0.069  0.000  0.116
 H         -0.213  0.264  0.002    0.346  0.011 -0.060   -0.323  0.104  0.003
 H         -0.213  0.264 -0.002   -0.346 -0.011 -0.060   -0.323  0.104 -0.003
 H         -0.213 -0.264  0.002   -0.346  0.011  0.060   -0.324 -0.104  0.003
 H         -0.213 -0.264 -0.002    0.346 -0.011  0.060   -0.323 -0.104 -0.003
 H         -0.213  0.002  0.264   -0.345  0.060 -0.011   -0.324  0.003  0.104
 H         -0.213 -0.002  0.264    0.346  0.060  0.011   -0.323 -0.003  0.104
 H         -0.213  0.002 -0.264    0.346 -0.060 -0.011   -0.323  0.003 -0.104
 H         -0.213 -0.002 -0.264   -0.345 -0.060  0.011   -0.324 -0.003 -0.104
 TransDip  -0.209  0.000  0.000    0.000  0.000  0.000   -0.078  0.000  0.000

 Mode:                13                     14                     15
 Frequency:      1052.57                1088.04                1088.06
 Force Cnst:      0.8338                 1.0515                 1.0515
 Red. Mass:       1.2773                 1.5075                 1.5075
 IR Active:          YES                    YES                    YES
 IR Intens:        0.000                  2.013                  2.031
 Raman Active:       YES                    YES                    YES
               X      Y      Z        X      Y      Z        X      Y      Z
 C          0.000  0.000  0.000    0.000  0.014  0.001    0.000 -0.001  0.014
 C          0.077  0.015  0.000    0.144 -0.041 -0.001   -0.006  0.002 -0.013
 C          0.077 -0.015  0.000   -0.144 -0.041 -0.001    0.006  0.002 -0.013
 C         -0.077  0.000 -0.015    0.006 -0.013 -0.002    0.144  0.001 -0.041
 C         -0.077  0.000  0.015   -0.006 -0.013 -0.002   -0.144  0.001 -0.041
 H         -0.242  0.251 -0.018   -0.405  0.269  0.011   -0.045 -0.011  0.007
 H         -0.242  0.252  0.018   -0.400  0.269 -0.010    0.080 -0.012  0.008
 H         -0.242 -0.252 -0.018    0.399  0.269 -0.010   -0.080 -0.012  0.008
 H         -0.242 -0.252  0.018    0.405  0.269  0.011    0.045 -0.011  0.007
 H          0.242  0.018 -0.251   -0.080  0.008  0.012   -0.399  0.010  0.269
 H          0.241 -0.018 -0.251    0.045  0.007  0.011   -0.405 -0.011  0.269
 H          0.241  0.018  0.251   -0.045  0.007  0.011    0.405 -0.011  0.269
 H          0.242 -0.018  0.251    0.080  0.008  0.012    0.399  0.010  0.269
 TransDip   0.000  0.000  0.000    0.000  0.045  0.002    0.000 -0.002  0.046

 Mode:                16                     17                     18
 Frequency:      1132.01                1155.37                1165.67
 Force Cnst:      2.4655                 0.9878                 1.0854
 Red. Mass:       3.2656                 1.2560                 1.3558
 IR Active:          YES                    YES                    YES
 IR Intens:        0.000                  0.000                  0.000
 Raman Active:       YES                    YES                    YES
               X      Y      Z        X      Y      Z        X      Y      Z
 C          0.000  0.000  0.000    0.000  0.000  0.000    0.000  0.000  0.000
 C         -0.012 -0.226  0.000    0.000  0.000 -0.075    0.000  0.000 -0.089
 C         -0.012  0.226  0.000    0.000  0.000  0.075    0.000  0.000  0.089
 C          0.012  0.000  0.226    0.000 -0.075  0.000    0.000  0.089  0.000
 C          0.012  0.000 -0.226    0.000  0.075  0.000    0.000 -0.089  0.000
 H         -0.272 -0.156  0.033    0.155 -0.311  0.041    0.111 -0.326  0.049
 H         -0.272 -0.156 -0.033   -0.155  0.311  0.041   -0.111  0.326  0.049
 H         -0.272  0.156  0.033   -0.155 -0.311 -0.041   -0.111 -0.326 -0.049
 H         -0.272  0.156 -0.033    0.155  0.311 -0.041    0.111  0.326 -0.049
 H          0.272 -0.033  0.157    0.155  0.041 -0.310   -0.111 -0.049  0.326
 H          0.272  0.033  0.156   -0.155  0.041  0.311    0.111 -0.049 -0.326
 H          0.272 -0.033 -0.156   -0.155 -0.041 -0.311    0.111  0.049  0.326
 H          0.271  0.033 -0.157    0.155 -0.041  0.310   -0.111  0.049 -0.326
 TransDip   0.000  0.000  0.000    0.000  0.000  0.000    0.000  0.000  0.000

 Mode:                19                     20                     21
 Frequency:      1200.46                1200.47                1414.25
 Force Cnst:      2.1276                 2.1278                 1.3448
 Red. Mass:       2.5058                 2.5059                 1.1412
 IR Active:          YES                    YES                    YES
 IR Intens:        2.566                  2.559                  2.113
 Raman Active:       YES                    YES                    YES
               X      Y      Z        X      Y      Z        X      Y      Z
 C          0.000  0.201  0.233    0.000  0.233 -0.201    0.102  0.000  0.000
 C         -0.059 -0.046 -0.067   -0.068 -0.053  0.057    0.000  0.021  0.000
 C          0.059 -0.046 -0.066    0.068 -0.053  0.057    0.000 -0.021  0.000
 C         -0.068 -0.057 -0.053    0.059 -0.067  0.046    0.000  0.000  0.021
 C          0.068 -0.057 -0.053   -0.059 -0.066  0.046    0.000  0.000 -0.021
 H         -0.383 -0.057  0.046    0.244 -0.021 -0.065   -0.152 -0.254  0.189
 H          0.298 -0.012  0.071   -0.342 -0.059 -0.036   -0.152 -0.254 -0.189
 H         -0.298 -0.012  0.071    0.342 -0.059 -0.036   -0.152  0.255  0.189
 H          0.383 -0.057  0.046   -0.244 -0.021 -0.065   -0.152  0.255 -0.189
 H         -0.342  0.036 -0.059   -0.298  0.071  0.012   -0.152  0.189 -0.254
 H          0.244  0.065 -0.021    0.383  0.046  0.057   -0.152 -0.189 -0.254
 H         -0.244  0.065 -0.021   -0.383  0.046  0.057   -0.152  0.189  0.254
 H          0.342  0.036 -0.059    0.298  0.071  0.012   -0.152 -0.189  0.254
 TransDip   0.000  0.033  0.039    0.000  0.039 -0.033   -0.047  0.000  0.000

 Mode:                22                     23                     24
 Frequency:      1428.64                1428.66                1470.01
 Force Cnst:      1.3212                 1.3212                 1.5821
 Red. Mass:       1.0987                 1.0986                 1.2427
 IR Active:          YES                    YES                    YES
 IR Intens:        7.655                  7.676                  0.000
 Raman Active:       YES                    YES                    YES
               X      Y      Z        X      Y      Z        X      Y      Z
 C          0.000 -0.007 -0.005    0.000  0.005 -0.007    0.000  0.000  0.000
 C         -0.024 -0.046  0.001    0.017  0.033  0.002   -0.042 -0.060  0.000
 C          0.024 -0.046  0.001   -0.017  0.033  0.002   -0.042  0.060  0.000
 C         -0.017  0.002 -0.033   -0.024 -0.001 -0.046    0.042  0.000  0.060
 C          0.017  0.002 -0.033    0.024 -0.001 -0.046    0.042  0.000 -0.060
 H          0.167  0.286 -0.237   -0.106 -0.206  0.167    0.152  0.227 -0.218
 H          0.156  0.290  0.237   -0.122 -0.201 -0.167    0.152  0.227  0.218
 H         -0.156  0.290  0.237    0.122 -0.201 -0.167    0.152 -0.227 -0.218
 H         -0.167  0.286 -0.237    0.106 -0.206  0.167    0.152 -0.227  0.218
 H          0.122 -0.168  0.201    0.156 -0.237  0.290   -0.152  0.218 -0.227
 H          0.106  0.168  0.206    0.167  0.237  0.286   -0.152 -0.218 -0.227
 H         -0.106  0.167  0.206   -0.167  0.237  0.287   -0.152  0.218  0.227
 H         -0.122 -0.167  0.201   -0.156 -0.237  0.290   -0.152 -0.218  0.227
 TransDip   0.000  0.072  0.051    0.000 -0.051  0.072    0.000  0.000  0.000

 Mode:                25                     26                     27
 Frequency:      1655.37                3099.99                3100.01
 Force Cnst:     11.0523                 5.9559                 5.9559
 Red. Mass:       6.8456                 1.0519                 1.0519
 IR Active:          YES                    YES                    YES
 IR Intens:        0.014                 10.678                 10.673
 Raman Active:       YES                    YES                    YES
               X      Y      Z        X      Y      Z        X      Y      Z
 C          0.582  0.000  0.000    0.000 -0.001  0.000    0.000  0.000  0.001
 C         -0.150 -0.160  0.000    0.023  0.038  0.000   -0.003 -0.005  0.000
 C         -0.150  0.160  0.000   -0.023  0.038  0.000    0.003 -0.005  0.000
 C         -0.150  0.000 -0.160   -0.003  0.000 -0.005   -0.023  0.000 -0.038
 C         -0.150  0.000  0.160    0.003  0.000 -0.005    0.023  0.000 -0.038
 H          0.026  0.088 -0.224   -0.133 -0.223 -0.420    0.020  0.032  0.059
 H          0.026  0.088  0.224   -0.134 -0.223  0.420    0.017  0.029 -0.056
 H          0.026 -0.088 -0.224    0.134 -0.224  0.421   -0.017  0.029 -0.056
 H          0.026 -0.088  0.224    0.134 -0.223 -0.421   -0.020  0.032  0.059
 H          0.026 -0.224  0.088    0.017  0.056  0.029    0.134  0.420  0.223
 H          0.026  0.224  0.088    0.020 -0.059  0.032    0.133 -0.420  0.223
 H          0.026 -0.224 -0.088   -0.020 -0.059  0.032   -0.134 -0.420  0.223
 H          0.026  0.224 -0.088   -0.017  0.056  0.029   -0.134  0.421  0.223
 TransDip  -0.004  0.000  0.000    0.000  0.104 -0.014    0.000 -0.014 -0.104

 Mode:                28                     29                     30
 Frequency:      3105.21                3106.76                3180.17
 Force Cnst:      6.0241                 6.0430                 6.6825
 Red. Mass:       1.0604                 1.0626                 1.1215
 IR Active:          YES                    YES                    YES
 IR Intens:        0.001                 14.424                  0.000
 Raman Active:       YES                    YES                    YES
               X      Y      Z        X      Y      Z        X      Y      Z
 C          0.000  0.000  0.000   -0.007  0.000  0.000    0.000  0.000  0.000
 C          0.018  0.030  0.000    0.018  0.030  0.000    0.000  0.000  0.050
 C          0.018 -0.030  0.000    0.017 -0.030  0.000    0.000  0.000 -0.050
 C         -0.018  0.000 -0.029    0.018  0.000  0.031    0.000 -0.051  0.000
 C         -0.018  0.000  0.029    0.018  0.000 -0.031    0.000  0.051  0.000
 H         -0.097 -0.159 -0.303   -0.093 -0.157 -0.300   -0.098 -0.159 -0.294
 H         -0.098 -0.159  0.303   -0.093 -0.157  0.299    0.098  0.159 -0.294
 H         -0.097  0.158 -0.302   -0.093  0.156 -0.299    0.098 -0.159  0.294
 H         -0.097  0.158  0.302   -0.093  0.156  0.299   -0.098  0.159  0.294
 H          0.096  0.299  0.156   -0.095 -0.304 -0.159    0.100  0.300  0.162
 H          0.096 -0.298  0.156   -0.095  0.304 -0.159   -0.100  0.299 -0.162
 H          0.096  0.298 -0.156   -0.095 -0.303  0.159   -0.100 -0.299  0.162
 H          0.096 -0.298 -0.156   -0.095  0.303  0.158    0.100 -0.300 -0.162
 TransDip   0.001  0.000  0.000    0.122  0.000  0.000    0.000  0.000  0.000

 Mode:                31                     32                     33
 Frequency:      3180.84                3191.24                3191.25
 Force Cnst:      6.6706                 6.7013                 6.7013
 Red. Mass:       1.1190                 1.1168                 1.1168
 IR Active:          YES                    YES                    YES
 IR Intens:        0.000                  5.927                  5.928
 Raman Active:       YES                    YES                    YES
               X      Y      Z        X      Y      Z        X      Y      Z
 C          0.000  0.000  0.000    0.000  0.000  0.000    0.000  0.000  0.000
 C          0.000  0.000 -0.051    0.001  0.000  0.017    0.000  0.000 -0.068
 C          0.000  0.000  0.051   -0.001  0.000  0.017    0.000  0.000 -0.068
 C          0.000 -0.050  0.000    0.000 -0.068  0.000    0.001 -0.017  0.000
 C          0.000  0.050  0.000    0.000 -0.068  0.000   -0.001 -0.017  0.000
 H          0.100  0.163  0.299   -0.033 -0.057 -0.104    0.133  0.225  0.405
 H         -0.100 -0.163  0.299    0.034  0.056 -0.099   -0.133 -0.225  0.406
 H         -0.100  0.163 -0.299   -0.034  0.056 -0.099    0.133 -0.225  0.406
 H          0.100 -0.163 -0.299    0.033 -0.057 -0.104   -0.133  0.225  0.405
 H          0.098  0.294  0.160    0.133  0.406  0.225    0.034  0.099  0.056
 H         -0.098  0.294 -0.160   -0.133  0.405 -0.225   -0.033  0.104 -0.057
 H         -0.098 -0.294  0.160    0.133  0.405 -0.225    0.033  0.104 -0.057
 H          0.098 -0.294 -0.160   -0.133  0.406  0.225   -0.034  0.099  0.056
 TransDip   0.000  0.000  0.000    0.000 -0.076  0.019    0.000 -0.019 -0.076

 STANDARD THERMODYNAMIC QUANTITIES AT   298.18 K  AND     1.00 ATM

   This Molecule has  0 Imaginary Frequencies
   Zero point vibrational energy:       72.098 kcal/mol

   Atom    1 Element C  Has Mass   12.00000
   Atom    2 Element C  Has Mass   12.00000
   Atom    3 Element C  Has Mass   12.00000
   Atom    4 Element C  Has Mass   12.00000
   Atom    5 Element C  Has Mass   12.00000
   Atom    6 Element H  Has Mass    1.00783
   Atom    7 Element H  Has Mass    1.00783
   Atom    8 Element H  Has Mass    1.00783
   Atom    9 Element H  Has Mass    1.00783
   Atom   10 Element H  Has Mass    1.00783
   Atom   11 Element H  Has Mass    1.00783
   Atom   12 Element H  Has Mass    1.00783
   Atom   13 Element H  Has Mass    1.00783
   Molecular Mass:    68.062640 amu
   Principal axes and moments of inertia in atomic units:
                             1           2           3
    Eigenvalues --      167.42634   423.44126   423.44126
          X               1.00000     0.00000     0.00000
          Y               0.00000     0.99972    -0.02370
          Z               0.00000     0.02370     0.99972
   Rotational Symmetry Number is   1
   The Molecule is a Symmetric Top
   Translational Enthalpy:        0.889 kcal/mol
   Rotational Enthalpy:           0.889 kcal/mol
   Vibrational Enthalpy:         73.370 kcal/mol
   gas constant (RT):             0.593 kcal/mol
   Translational Entropy:        38.572  cal/mol.K
   Rotational Entropy:           24.910  cal/mol.K
   Vibrational Entropy:           6.198  cal/mol.K

   Total Enthalpy:               75.740 kcal/mol
   Total Entropy:                69.680  cal/mol.K
 Total job time:  47305.18s(wall), 46927.39s(cpu) 
 Sun Apr 24 07:39:48 2011

        *************************************************************
        *                                                           *
        *  Thank you very much for using Q-Chem.  Have a nice day.  *
        *                                                           *
        *************************************************************


0 sent ACK to 0 
now end server 0 ... 
