Process 0 of 1 is on cl193.stfx.acenet.ca - thread support 1
initial socket setup ...start
initial socket setup ...done 
now start server 0 ... 

cmd = /usr/bin/ssh clhead /usr/local/qchem/bin/get_hostid 1807688770 > /scratch/tmp/4825291.1.medium.q/qchem14035/lic.dat
                  Welcome to Q-Chem
     A Quantum Leap Into The Future Of Chemistry

 Y. Shao, L. Fusti-Molnar, Y. Jung, J. Kussmann, C. Ochsenfeld,
 S. T. Brown, A. T. B. Gilbert, L. V. Slipchenko,S. V. Levchenko,
 D. P. O'Neill, R. A. DiStasio Jr., R. C. Lochan, T. Wang,
 G. J. O. Beran, N. A. Besley, J. M. Herbert, C. Y. Lin,
 T. Van Voorhis, S. H. Chien, A. Sodt, R. P. Steele, 
 V. A. Rassolov, P. E. Maslen, P. P. Korambath, R. D. Adamson,
 B. Austin, J. Baker, E. F. C. Byrd, H. Dachsel, R. J. Doerksen,
 A. Dreuw, B. D. Dunietz, A. D. Dutoi, T. R. Furlani,
 S. R. Gwaltney, A. Heyden, S. Hirata, C.-P. Hsu, G. Kedziora,
 R. Z. Khaliullin, P. Klunzinger, A. M. Lee, M. S. Lee, W. Liang,
 I. Lotan, N. Nair, B. Peters, E. I. Proynov, P. A. Pieniazek, 
 Y. M. Rhee, J. Ritchie, E. Rosta, C. D. Sherrill, 
 A. C. Simmonett, J. E. Subotnik, H. L. Woodcock III,
 W. Zhang, A. T. Bell, A. K. Chakraborty, D. M. Chipman,
 F. J. Keil, A. Warshel, W. J. Hehre, H. F. Schaefer III,
 J. Kong, A. I. Krylov, P. M. W. Gill, M. Head-Gordon,
 Q-Chem, Version 3.1, Q-Chem, Inc., Pittsburgh, PA (2007).

 Additional authors for Version 3.1: 
 Z. Gan, Y. Zhao, N. E. Schultz, D. Truhlar, E. Epifanovsky and M. Oana.

 Additional authors for Version 3.2: 
 R. Baer, B. R. Brooks, D. Casanova, J.-D. Chai, C.-L. Cheng, 
 C. Cramer, D. Crittenden, A. Ghysels, G. Hawkins, E. G. Hohenstein, 
 C. Kelley, W. Kurlancheek, D. Liotard, E. Livshits, P. Manohar, 
 A. Marenich, D. Neuhauser, R. Olson, M. A. Rohrdanz, K. S. Thanthiriwatte, 
 A. J. W. Thom, V. Vanovschi, C. F. Williams, Q. Wu and Z.-Q. You. 


 Intel X86 Linux Version

 Q-chem begins on Mon Nov 14 14:59:13 2011  

 Parallel job on  1  processors
Processing $rem in /usr/local/qchem/config/preferences.

theFileMan(): MAXOPENFILES=974 MAX_SUB_FILE_NUM=16
Maximum size of a physical file is 2.0 GB, maximum size of a tmp-file is 32.0 GB


--------------------------------------------------------------
User input:
--------------------------------------------------------------

$molecule
-1,1
S
H,1,R

R=1.35543613

$end


$comment
spin check
$end

$rem
   EXCHANGE B3LYP
   UNRESTRICTED TRUE
   BASIS G3large 
   SCF_PRINT 1
   PDB_PRINT 2
   INCDFT false
   VARTHRESH 0
   MAX_SCF_CYCLES 1000
   MEM_STATIC 256
   MEM_TOTAL 3000
   THRESH 140
   ITHRSH 14
   XC_GRID 75000302
   SCF_CONVERGENCE 6
$end

--------------------------------------------------------------
 Writing REM_CC_EA            0
 ----------------------------------------------------
       Standard Nuclear Orientation (Angstroms)
    I     Atom         X            Y            Z
 ----------------------------------------------------
    1      S       0.000000     0.000000    -0.079732
    2      H       0.000000     0.000000     1.275705
 ----------------------------------------------------
 Molecular Point Group                 C*v   NOp =***
 Largest Abelian Subgroup              C2v   NOp =  1
 Nuclear Repulsion Energy =     6.2465764232 hartrees
 There are        9 alpha and        9 beta electrons
 Requested basis set is G3large
 There are 25 shells and 76 basis functions

Total QAlloc Memory Limit   3000 MB
Mega-Array Size       251 MB
MEM_STATIC part       256 MB

                       Distance Matrix (Angstroms)
             S (  1)
   H (  2)  1.355436
 
 A cutoff of  1.0D-14 yielded    325 shell pairs
 There are   3056 function pairs (  4227 Cartesian)
Evaluating contribution to one-electron hamiltonian from nuclear
 Smallest overlap matrix eigenvalue = 3.71E-03
 Multipole matrices computed through 2nd order

  Scale SEOQF with 1.000000e-01/1.000000e-01/1.000000e-01

 Standard Electronic Orientation quadrupole field applied
 Nucleus-field energy     =    -0.0000000002 hartrees
 Guess from superposition of atomic densities
 Warning:  Energy on first SCF cycle will be non-variational
 An unrestricted hybrid HF-DFT SCF calculation will be
 performed using Pulay DIIS extrapolation
 Exchange:     0.2000 Hartree-Fock + 0.0800 Slater + 0.7200 Becke88
 Correlation:  0.8100 LYP + 0.1900 VWN1RPA
 Using Euler-Maclaurin-Lebedev (75,302) quadrature formula
 SCF converges when DIIS error is below 1.0E-06
 Maximum number of SCF iterations = 1000

NRad = 75 NAng = 302
 Warning!  Inaccurate integrated density:
   Number of electrons =    18
   Numerical integral  =    17.000001262880
   Relative error      =    -5.5555485396 %
 ---------------------------------------
  Cycle       Energy         DIIS Error
 ---------------------------------------
    1    -398.7157126775      2.51E-02

NRad = 75 NAng = 302
    2    -398.7867957806      8.04E-03

NRad = 75 NAng = 302
    3    -398.7510272967      1.12E-02

NRad = 75 NAng = 302
    4    -398.8632613963      4.74E-04

NRad = 75 NAng = 302
    5    -398.8633799095      2.49E-04

NRad = 75 NAng = 302
    6    -398.8634242775      5.01E-05

NRad = 75 NAng = 302
    7    -398.8634262491      8.87E-06

NRad = 75 NAng = 302
    8    -398.8634263285      8.44E-07 Convergence criterion met
 ---------------------------------------
 One-Electron    Energy =  -568.0207746520
 Total Coulomb   Energy =   189.1516816833
 Alpha Exchange  Energy =    -2.5507441305
 Beta  Exchange  Energy =    -2.5507441305
 DFT   Exchange  Energy =   -20.2535531231
 DFT Correlation Energy =    -0.8858683986
 Nuclear Repu.   Energy =     6.2465764230
 Nuclear Attr.   Energy =  -966.2595010031
 Kinetic         Energy =   398.2387263511
 <S^2> = 0.0000
 SCF time:  CPU 12.24 s  wall 19.32 s
 Analysis of SCF Wavefunction
 
 --------------------------------------------------------------
                    Orbital Energies (a.u.)
 --------------------------------------------------------------
 
 Alpha MOs
 -- Occupied --
-88.564  -7.649  -5.612  -5.606  -5.606  -0.425  -0.130   0.006
  0.006
 -- Virtual --
  0.145   0.204   0.214   0.214   0.248   0.298   0.457   0.457
  0.478   0.484   0.484   0.602   0.621   0.621   0.761   1.004
  1.004   1.027   1.100   1.122   1.122   1.138   1.138   1.219
  1.219   1.250   1.250   1.388   1.452   1.452   1.724   2.042
  2.042   2.264   2.956   3.547   3.658   3.658   3.747   3.747
  3.758   3.758   4.202   4.202   4.515   4.806   4.806   4.822
  4.822   5.502   8.279  17.371  17.371  17.520  23.812  23.812
 23.812  23.813  24.073  31.258  31.258  31.260  31.260  31.262
 31.262  31.281 189.402
 
 Beta MOs
 -- Occupied --
-88.564  -7.649  -5.612  -5.606  -5.606  -0.425  -0.130   0.006
  0.006
 -- Virtual --
  0.145   0.204   0.214   0.214   0.248   0.298   0.457   0.457
  0.478   0.484   0.484   0.602   0.621   0.621   0.761   1.004
  1.004   1.027   1.100   1.122   1.122   1.138   1.138   1.219
  1.219   1.250   1.250   1.388   1.452   1.452   1.724   2.042
  2.042   2.264   2.956   3.547   3.658   3.658   3.747   3.747
  3.758   3.758   4.202   4.202   4.515   4.806   4.806   4.822
  4.822   5.502   8.279  17.371  17.371  17.520  23.812  23.812
 23.812  23.813  24.073  31.258  31.258  31.260  31.260  31.262
 31.262  31.281 189.402
 --------------------------------------------------------------
 
          Ground-State Mulliken Net Atomic Charges

     Atom                 Charge (a.u.)    Spin (a.u.)
  --------------------------------------------------------
      1 S                    -1.022202       0.000000
      2 H                     0.022202       0.000000
  --------------------------------------------------------
  Sum of atomic charges =    -1.000000
  Sum of spin   charges =     0.000000

 -----------------------------------------------------------------
                    Cartesian Multipole Moments
 -----------------------------------------------------------------
    Charge (ESU x 10^10)
                -4.8032
    Dipole Moment (Debye)
         X       0.0000      Y       0.0000      Z       0.6131
       Tot       0.6131
    Quadrupole Moments (Debye-Ang)
        XX     -22.0413     XY       0.0000     YY     -22.0413
        XZ       0.0000     YZ       0.0000     ZZ     -17.5437
    Octapole Moments (Debye-Ang^2)
       XXX       0.0000    XXY       0.0000    XYY       0.0000
       YYY       0.0000    XXZ       0.4208    XYZ       0.0000
       YYZ       0.4208    XZZ       0.0000    YZZ       0.0000
       ZZZ       0.3155
    Hexadecapole Moments (Debye-Ang^3)
      XXXX     -55.3796   XXXY      -0.0002   XXYY     -18.4599
      XYYY      -0.0002   YYYY     -55.3796   XXXZ       0.0000
      XXYZ       0.0000   XYYZ       0.0000   YYYZ       0.0000
      XXZZ     -16.5303   XYZZ      -0.0001   YYZZ     -16.5303
      XZZZ       0.0000   YZZZ       0.0000   ZZZZ     -41.9101
 -----------------------------------------------------------------
 Total job time:  20.02s(wall), 12.54s(cpu) 
 Mon Nov 14 14:59:33 2011

        *************************************************************
        *                                                           *
        *  Thank you very much for using Q-Chem.  Have a nice day.  *
        *                                                           *
        *************************************************************


0 sent ACK to 0 
now end server 0 ... 
