Process 0 of 1 is on cl162.stfx.acenet.ca - thread support 1
initial socket setup ...start
initial socket setup ...done 
now start server 0 ... 

cmd = /usr/bin/ssh clhead /usr/local/qchem/bin/get_hostid 1486553712 > /scratch/tmp/4503882.1.medium.q/qchem6342/lic.dat
                  Welcome to Q-Chem
     A Quantum Leap Into The Future Of Chemistry

 Y. Shao, L. Fusti-Molnar, Y. Jung, J. Kussmann, C. Ochsenfeld,
 S. T. Brown, A. T. B. Gilbert, L. V. Slipchenko,S. V. Levchenko,
 D. P. O'Neill, R. A. DiStasio Jr., R. C. Lochan, T. Wang,
 G. J. O. Beran, N. A. Besley, J. M. Herbert, C. Y. Lin,
 T. Van Voorhis, S. H. Chien, A. Sodt, R. P. Steele, 
 V. A. Rassolov, P. E. Maslen, P. P. Korambath, R. D. Adamson,
 B. Austin, J. Baker, E. F. C. Byrd, H. Dachsel, R. J. Doerksen,
 A. Dreuw, B. D. Dunietz, A. D. Dutoi, T. R. Furlani,
 S. R. Gwaltney, A. Heyden, S. Hirata, C.-P. Hsu, G. Kedziora,
 R. Z. Khaliullin, P. Klunzinger, A. M. Lee, M. S. Lee, W. Liang,
 I. Lotan, N. Nair, B. Peters, E. I. Proynov, P. A. Pieniazek, 
 Y. M. Rhee, J. Ritchie, E. Rosta, C. D. Sherrill, 
 A. C. Simmonett, J. E. Subotnik, H. L. Woodcock III,
 W. Zhang, A. T. Bell, A. K. Chakraborty, D. M. Chipman,
 F. J. Keil, A. Warshel, W. J. Hehre, H. F. Schaefer III,
 J. Kong, A. I. Krylov, P. M. W. Gill, M. Head-Gordon,
 Q-Chem, Version 3.1, Q-Chem, Inc., Pittsburgh, PA (2007).

 Additional authors for Version 3.1: 
 Z. Gan, Y. Zhao, N. E. Schultz, D. Truhlar, E. Epifanovsky and M. Oana.

 Additional authors for Version 3.2: 
 R. Baer, B. R. Brooks, D. Casanova, J.-D. Chai, C.-L. Cheng, 
 C. Cramer, D. Crittenden, A. Ghysels, G. Hawkins, E. G. Hohenstein, 
 C. Kelley, W. Kurlancheek, D. Liotard, E. Livshits, P. Manohar, 
 A. Marenich, D. Neuhauser, R. Olson, M. A. Rohrdanz, K. S. Thanthiriwatte, 
 A. J. W. Thom, V. Vanovschi, C. F. Williams, Q. Wu and Z.-Q. You. 


 Intel X86 Linux Version

 Q-chem begins on Sun Apr 17 19:55:45 2011  

 Parallel job on  1  processors
Processing $rem in /usr/local/qchem/config/preferences.

theFileMan(): MAXOPENFILES=974 MAX_SUB_FILE_NUM=16
Maximum size of a physical file is 2.0 GB, maximum size of a tmp-file is 32.0 GB


--------------------------------------------------------------
User input:
--------------------------------------------------------------

$molecule
0,1
Cl
H,1,R

 R=1.28991833

$end

$comment
neutral
$end

$xc_functional
   X HF 1.0
   X BNL 1.0
   C LYP 1.0
$end

$rem
SYMMETRY_DECOMPOSITION	0
exchange 		general
BASIS                   g3large
omega			500 
JOBTYPE                 opt
separate_jk		true
mem_static              760
max_scf_cycles          200
scf_final_print         1
sym_ignore              true
$end


--------------------------------------------------------------
 Writing REM_CC_EA            2
 ----------------------------------------------------
       Standard Nuclear Orientation (Angstroms)
    I     Atom         X            Y            Z
 ----------------------------------------------------
    1      Cl      0.000000     0.000000     0.000000
    2      H       0.000000     0.000000     1.289918
 ----------------------------------------------------
 Nuclear Repulsion Energy =     6.9740946961 hartrees
 There are        9 alpha and        9 beta electrons
 Requested basis set is G3large
 There are 25 shells and 76 basis functions

Total QAlloc Memory Limit   2000 MB
Mega-Array Size       743 MB
MEM_STATIC part       760 MB
 A cutoff of  1.0D-11 yielded    325 shell pairs
 There are   3056 function pairs (  4227 Cartesian)
Evaluating contribution to one-electron hamiltonian from nuclear
 Smallest overlap matrix eigenvalue = 3.76E-03
 Multipole matrices computed through 2nd order

  Scale SEOQF with 1.000000e-01/1.000000e-01/1.000000e-01

 Standard Electronic Orientation quadrupole field applied
 Nucleus-field energy     =    -0.0000000002 hartrees
 Guess from superposition of atomic densities
 Warning:  Energy on first SCF cycle will be non-variational
 A restricted hybrid HF-DFT SCF calculation will be
 performed using Pulay DIIS extrapolation
 Exchange:     1.0000 Hartree-Fock + 1.0000 BNL
 Correlation:  1.0000 LYP
 Using SG-1 standard quadrature grid
 SCF converges when DIIS error is below 1.0E-08
 ---------------------------------------
  Cycle       Energy         DIIS Error
 ---------------------------------------
    1    -458.9199232103      3.53E-02
    2    -458.9670491802      4.07E-03
    3    -458.9796787144      2.39E-03
    4    -458.9824831808      3.28E-04
    5    -458.9825640119      9.46E-05
    6    -458.9825799944      2.99E-05
    7    -458.9825817503      8.12E-06
    8    -458.9825818759      2.00E-06
    9    -458.9825818871      5.23E-07
   10    -458.9825818879      1.03E-07
   11    -458.9825818879      1.87E-08
   12    -458.9825818879      4.08E-09 Convergence criterion met
 ---------------------------------------
 One-Electron    Energy =  -649.6021182525
 Total Coulomb   Energy =   210.3483182644
 Alpha Exchange  Energy =    -2.2552775104
 Beta  Exchange  Energy =    -2.2552775104
 DFT   Exchange  Energy =   -21.4650624364
 DFT Correlation Energy =    -0.7272591384
 Nuclear Repu.   Energy =     6.9740946959
 Nuclear Attr.   Energy = -1107.7721775841
 Kinetic         Energy =   458.1700593316
 SCF time:  CPU 14.95 s  wall 16.41 s
 Final Alpha MO Eigenvalues
            1           2           3           4           5           6
    1-100.5515074  -9.4075528  -7.2569240  -7.2468403  -7.2468403  -1.0220245
            7           8           9          10          11          12
    1  -0.6069877  -0.4704063  -0.4704063   0.0282468   0.1085309   0.1180015
           13          14
    1   0.1180015   0.1318946
 Analysis of SCF Wavefunction
 
 --------------------------------------------------------------
                    Orbital Energies (a.u.)
 --------------------------------------------------------------
 
 Alpha MOs
 -- Occupied --
*******  -9.408  -7.257  -7.247  -7.247  -1.022  -0.607  -0.470
 -0.470
 -- Virtual --
  0.028   0.109   0.118   0.118   0.132   0.182   0.344   0.344
  0.376   0.381   0.381   0.546   0.581   0.581   0.679   0.947
  0.947   1.037   1.091   1.185   1.185   1.210   1.211   1.240
  1.240   1.264   1.264   1.492   1.538   1.538   1.689   2.266
  2.266   2.614   2.818   3.823   3.875   3.875   4.469   4.469
  4.486   4.486   4.579   4.579   4.870   5.123   5.126   5.138
  5.138   5.884   9.543  20.589  20.589  20.840  27.168  27.270
 27.270  27.273  27.433  36.927  36.927  36.928  36.929  36.935
 36.935  36.944 215.941
 --------------------------------------------------------------
 
          Ground-State Mulliken Net Atomic Charges

     Atom                 Charge (a.u.)
  ----------------------------------------
      1 Cl                   -0.235629
      2 H                     0.235629
  ----------------------------------------
  Sum of atomic charges =     0.000000

 -----------------------------------------------------------------
                    Cartesian Multipole Moments
 -----------------------------------------------------------------
    Charge (ESU x 10^10)
                 0.0000
    Dipole Moment (Debye)
         X       0.0000      Y       0.0000      Z       1.2392
       Tot       1.2392
    Quadrupole Moments (Debye-Ang)
        XX     -14.1725     XY       0.0000     YY     -14.1725
        XZ       0.0000     YZ       0.0000     ZZ     -10.2531
    Octapole Moments (Debye-Ang^2)
       XXX       0.0000    XXY       0.0000    XYY       0.0000
       YYY       0.0000    XXZ      -0.9568    XYZ       0.0000
       YYZ      -0.9568    XZZ       0.0000    YZZ       0.0000
       ZZZ       0.6237
    Hexadecapole Moments (Debye-Ang^3)
      XXXX     -17.1086   XXXY       0.0000   XXYY      -5.7029
      XYYY       0.0000   YYYY     -17.1086   XXXZ       0.0000
      XXYZ       0.0000   XYYZ       0.0000   YYYZ       0.0000
      XXZZ      -6.1235   XYZZ       0.0000   YYZZ      -6.1235
      XZZZ       0.0000   YZZZ       0.0000   ZZZZ     -13.6842
 -----------------------------------------------------------------
 Calculating analytic gradient of the SCF energy
 Gradient of AOints
            1           2
    1  -0.0000001   0.0000001
    2   0.0000002  -0.0000002
    3   4.6877584  -4.6877584
 Gradient of XC Energy
            1           2
    1   0.0000000  -0.0000000
    2  -0.0000000   0.0000000
    3  -0.1693592   0.1693592
 Gradient of SCF Energy
            1           2
    1   0.0000000  -0.0000000
    2  -0.0000000   0.0000000
    3  -0.0079725   0.0079725
 Max gradient component =       7.973E-03
 RMS gradient           =       4.603E-03
 Gradient time:  CPU 4.15 s  wall 5.48 s
 Geometry Optimization Parameters
   NAtoms,    NIC,     NZ,  NCons,   NDum,   NFix, NCnnct, MaxDiis
        2       5       2       0       0       0       0       0


** GEOMETRY OPTIMIZATION IN DELOCALIZED INTERNAL COORDINATES **
   Searching for a Minimum

   Optimization Cycle:   1

                       Coordinates (Angstroms)
     ATOM              X           Y           Z
    1  Cl          0.000000    0.000000    0.000000
    2  H           0.000000    0.000000    1.289918
   Point Group: c1    Number of degrees of freedom:   0


   Energy is   -458.982581888


 Attempting to Generate Delocalized Internal Coordinates

  ***ERROR*** Wrong Number of Internal Coordinates
              Should be:   0  Found:   1
**WARNING** Problems with Internal Coordinates
  Switching to Cartesian Coordinates

 Translations and Rotations Projected Out of Hessian

  1 Hessian modes will be used to form the next step
  Hessian Eigenvalues:
     1.000000

 Minimum Search - Taking Simple RFO Step
 Searching for Lamda that Minimizes Along All modes
 Value Taken    Lamda =  -0.00012712
 Step Taken.  Stepsize is  0.011273

                             Maximum     Tolerance    Cnvgd?
         Gradient           0.007973      0.000300      NO
         Displacement       0.007972      0.001200      NO
         Energy change     *********      0.000001      NO

 Writing REM_CC_EA            2
 ----------------------------------------------------
       Standard Nuclear Orientation (Angstroms)
    I     Atom         X            Y            Z
 ----------------------------------------------------
    1      Cl      0.000000     0.000000     0.004218
    2      H       0.000000     0.000000     1.285700
 ----------------------------------------------------
 Nuclear Repulsion Energy =     7.0200090069 hartrees
 There are        9 alpha and        9 beta electrons
 Applying Cartesian multipole field
    Component          Value
    ---------          -----
     (2,0,0)        1.00000E-11
     (0,2,0)        2.00000E-11
     (0,0,2)       -3.00000E-11
 Nucleus-field energy     =    -0.0000000002 hartrees
 Requested basis set is G3large
 There are 25 shells and 76 basis functions
 A cutoff of  1.0D-11 yielded    325 shell pairs
 There are   3056 function pairs (  4227 Cartesian)
Evaluating contribution to one-electron hamiltonian from nuclear
 Smallest overlap matrix eigenvalue = 3.66E-03
 Multipole matrices computed through 2nd order
 Guess MOs from SCF MO coefficient file
Reading MOs from coefficient file
Reading MOs from coefficient file
 A restricted hybrid HF-DFT SCF calculation will be
 performed using Pulay DIIS extrapolation
 Exchange:     1.0000 Hartree-Fock + 1.0000 BNL
 Correlation:  1.0000 LYP
 Using SG-1 standard quadrature grid
 SCF converges when DIIS error is below 1.0E-08
 ---------------------------------------
  Cycle       Energy         DIIS Error
 ---------------------------------------
    1    -458.9880475850      4.44E-04
    2    -458.9826628345      6.81E-05
    3    -458.9826655876      3.76E-05
    4    -458.9826660644      3.50E-06
    5    -458.9826660738      6.42E-07
    6    -458.9826660746      1.08E-07
    7    -458.9826660746      2.50E-08
    8    -458.9826660746      1.22E-08
    9    -458.9826660746      2.16E-09 Convergence criterion met
 ---------------------------------------
 One-Electron    Energy =  -649.6884741750
 Total Coulomb   Energy =   210.3916298981
 Alpha Exchange  Energy =    -2.2556249530
 Beta  Exchange  Energy =    -2.2556249530
 DFT   Exchange  Energy =   -21.4672090499
 DFT Correlation Energy =    -0.7273718486
 Nuclear Repu.   Energy =     7.0200090067
 Nuclear Attr.   Energy = -1107.8710529485
 Kinetic         Energy =   458.1825787735
 SCF time:  CPU 11.05 s  wall 12.03 s
 Final Alpha MO Eigenvalues
            1           2           3           4           5           6
    1-100.5511544  -9.4074091  -7.2567245  -7.2466871  -7.2466871  -1.0233366
            7           8           9          10          11          12
    1  -0.6083452  -0.4706670  -0.4706670   0.0286769   0.1084830   0.1179737
           13          14
    1   0.1179737   0.1332875
 Analysis of SCF Wavefunction
 
 --------------------------------------------------------------
                    Orbital Energies (a.u.)
 --------------------------------------------------------------
 
 Alpha MOs
 -- Occupied --
*******  -9.407  -7.257  -7.247  -7.247  -1.023  -0.608  -0.471
 -0.471
 -- Virtual --
  0.029   0.108   0.118   0.118   0.133   0.182   0.344   0.344
  0.376   0.381   0.381   0.546   0.581   0.581   0.682   0.949
  0.949   1.039   1.090   1.184   1.184   1.210   1.210   1.240
  1.240   1.264   1.264   1.494   1.540   1.540   1.693   2.266
  2.266   2.615   2.817   3.825   3.870   3.870   4.468   4.468
  4.486   4.486   4.584   4.584   4.882   5.123   5.126   5.140
  5.140   5.904   9.547  20.590  20.590  20.841  27.168  27.270
 27.270  27.274  27.442  36.927  36.927  36.929  36.929  36.935
 36.935  36.946 215.944
 --------------------------------------------------------------
 
          Ground-State Mulliken Net Atomic Charges

     Atom                 Charge (a.u.)
  ----------------------------------------
      1 Cl                   -0.234665
      2 H                     0.234665
  ----------------------------------------
  Sum of atomic charges =     0.000000

 -----------------------------------------------------------------
                    Cartesian Multipole Moments
 -----------------------------------------------------------------
    Charge (ESU x 10^10)
                 0.0000
    Dipole Moment (Debye)
         X       0.0000      Y       0.0000      Z       1.2284
       Tot       1.2284
    Quadrupole Moments (Debye-Ang)
        XX     -14.1614     XY       0.0000     YY     -14.1614
        XZ       0.0000     YZ       0.0000     ZZ     -10.2707
    Octapole Moments (Debye-Ang^2)
       XXX       0.0000    XXY       0.0000    XYY       0.0000
       YYY       0.0000    XXZ      -1.0023    XYZ       0.0000
       YYZ      -1.0023    XZZ       0.0000    YZZ       0.0000
       ZZZ       0.4508
    Hexadecapole Moments (Debye-Ang^3)
      XXXX     -17.0867   XXXY       0.0000   XXYY      -5.6956
      XYYY       0.0000   YYYY     -17.0867   XXXZ       0.0000
      XXYZ       0.0000   XYYZ       0.0000   YYYZ       0.0000
      XXZZ      -6.1033   XYZZ       0.0000   YYZZ      -6.1033
      XZZZ       0.0000   YZZZ       0.0000   ZZZZ     -13.6947
 -----------------------------------------------------------------
 Calculating analytic gradient of the SCF energy
 Gradient of AOints
            1           2
    1  -0.0000000   0.0000000
    2   0.0000000  -0.0000000
    3   4.7090440  -4.7090440
 Gradient of XC Energy
            1           2
    1   0.0000000  -0.0000000
    2  -0.0000000   0.0000000
    3  -0.1704608   0.1704608
 Gradient of SCF Energy
            1           2
    1   0.0000000  -0.0000000
    2   0.0000000  -0.0000000
    3  -0.0025554   0.0025554
 Max gradient component =       2.555E-03
 RMS gradient           =       1.475E-03
 Gradient time:  CPU 4.26 s  wall 4.52 s
 Geometry Optimization Parameters
   NAtoms,    NIC,     NZ,  NCons,   NDum,   NFix, NCnnct, MaxDiis
        2       5       2       0       0       0       0       0

 Cartesian Hessian Update
 Hessian Updated using BFGS Update


** GEOMETRY OPTIMIZATION IN CARTESIAN COORDINATES **
   Searching for a Minimum

   Optimization Cycle:   2

                       Coordinates (Angstroms)
     ATOM              X           Y           Z
    1  Cl          0.000000    0.000000    0.004218
    2  H           0.000000    0.000000    1.285700
   Point Group: c1    Number of degrees of freedom:   0


   Energy is   -458.982666075


 Translations and Rotations Projected Out of Hessian

  1 Hessian modes will be used to form the next step
  Hessian Eigenvalues:
     0.679567

 Minimum Search - Taking Simple RFO Step
 Searching for Lamda that Minimizes Along All modes
 Value Taken    Lamda =  -0.00001922
 Step Taken.  Stepsize is  0.005318

                             Maximum     Tolerance    Cnvgd?
         Gradient           0.002555      0.000300      NO
         Displacement       0.003760      0.001200      NO
         Energy change     -0.000084      0.000001      NO

 Writing REM_CC_EA            2
 ----------------------------------------------------
       Standard Nuclear Orientation (Angstroms)
    I     Atom         X            Y            Z
 ----------------------------------------------------
    1      Cl      0.000000     0.000000     0.006208
    2      H       0.000000     0.000000     1.283710
 ----------------------------------------------------
 Nuclear Repulsion Energy =     7.0418772610 hartrees
 There are        9 alpha and        9 beta electrons
 Applying Cartesian multipole field
    Component          Value
    ---------          -----
     (2,0,0)        1.00000E-11
     (0,2,0)        2.00000E-11
     (0,0,2)       -3.00000E-11
 Nucleus-field energy     =    -0.0000000002 hartrees
 Requested basis set is G3large
 There are 25 shells and 76 basis functions
 A cutoff of  1.0D-11 yielded    325 shell pairs
 There are   3056 function pairs (  4227 Cartesian)
Evaluating contribution to one-electron hamiltonian from nuclear
 Smallest overlap matrix eigenvalue = 3.62E-03
 Multipole matrices computed through 2nd order
 Guess MOs from SCF MO coefficient file
Reading MOs from coefficient file
Reading MOs from coefficient file
 A restricted hybrid HF-DFT SCF calculation will be
 performed using Pulay DIIS extrapolation
 Exchange:     1.0000 Hartree-Fock + 1.0000 BNL
 Correlation:  1.0000 LYP
 Using SG-1 standard quadrature grid
 SCF converges when DIIS error is below 1.0E-08
 ---------------------------------------
  Cycle       Energy         DIIS Error
 ---------------------------------------
    1    -458.9852049980      2.11E-04
    2    -458.9826747298      3.22E-05
    3    -458.9826753435      1.78E-05
    4    -458.9826754500      1.65E-06
    5    -458.9826754521      3.02E-07
    6    -458.9826754522      5.08E-08
    7    -458.9826754522      1.23E-08
    8    -458.9826754523      6.01E-09 Convergence criterion met
 ---------------------------------------
 One-Electron    Energy =  -649.7295641599
 Total Coulomb   Energy =   210.4122475023
 Alpha Exchange  Energy =    -2.2557889443
 Beta  Exchange  Energy =    -2.2557889443
 DFT   Exchange  Energy =   -21.4682328999
 DFT Correlation Energy =    -0.7274252670
 Nuclear Repu.   Energy =     7.0418772609
 Nuclear Attr.   Energy = -1107.9181558306
 Kinetic         Energy =   458.1885916707
 SCF time:  CPU 9.85 s  wall 11.01 s
 Final Alpha MO Eigenvalues
            1           2           3           4           5           6
    1-100.5509848  -9.4073401  -7.2566292  -7.2466133  -7.2466133  -1.0239637
            7           8           9          10          11          12
    1  -0.6089844  -0.4707904  -0.4707904   0.0288734   0.1084601   0.1179605
           13          14
    1   0.1179605   0.1339347
 Analysis of SCF Wavefunction
 
 --------------------------------------------------------------
                    Orbital Energies (a.u.)
 --------------------------------------------------------------
 
 Alpha MOs
 -- Occupied --
*******  -9.407  -7.257  -7.247  -7.247  -1.024  -0.609  -0.471
 -0.471
 -- Virtual --
  0.029   0.108   0.118   0.118   0.134   0.182   0.344   0.344
  0.376   0.381   0.381   0.546   0.581   0.581   0.683   0.950
  0.950   1.040   1.089   1.184   1.184   1.210   1.210   1.240
  1.240   1.264   1.264   1.495   1.541   1.541   1.694   2.266
  2.266   2.616   2.816   3.827   3.867   3.867   4.468   4.468
  4.485   4.485   4.586   4.586   4.888   5.123   5.126   5.141
  5.141   5.913   9.549  20.590  20.590  20.841  27.168  27.271
 27.271  27.274  27.446  36.927  36.927  36.929  36.929  36.935
 36.935  36.946 215.945
 --------------------------------------------------------------
 
          Ground-State Mulliken Net Atomic Charges

     Atom                 Charge (a.u.)
  ----------------------------------------
      1 Cl                   -0.234223
      2 H                     0.234223
  ----------------------------------------
  Sum of atomic charges =     0.000000

 -----------------------------------------------------------------
                    Cartesian Multipole Moments
 -----------------------------------------------------------------
    Charge (ESU x 10^10)
                 0.0000
    Dipole Moment (Debye)
         X       0.0000      Y       0.0000      Z       1.2233
       Tot       1.2233
    Quadrupole Moments (Debye-Ang)
        XX     -14.1562     XY       0.0000     YY     -14.1562
        XZ       0.0000     YZ       0.0000     ZZ     -10.2789
    Octapole Moments (Debye-Ang^2)
       XXX       0.0000    XXY       0.0000    XYY       0.0000
       YYY       0.0000    XXZ      -1.0238    XYZ       0.0000
       YYZ      -1.0238    XZZ       0.0000    YZZ       0.0000
       ZZZ       0.3694
    Hexadecapole Moments (Debye-Ang^3)
      XXXX     -17.0764   XXXY       0.0000   XXYY      -5.6922
      XYYY       0.0000   YYYY     -17.0764   XXXZ       0.0000
      XXYZ       0.0000   XYYZ       0.0000   YYYZ       0.0000
      XXZZ      -6.0939   XYZZ       0.0000   YYZZ      -6.0939
      XZZZ       0.0000   YZZZ       0.0000   ZZZZ     -13.7001
 -----------------------------------------------------------------
 Calculating analytic gradient of the SCF energy
 Gradient of AOints
            1           2
    1   0.0000000  -0.0000000
    2   0.0000000  -0.0000000
    3   4.7188197  -4.7188197
 Gradient of XC Energy
            1           2
    1  -0.0000000   0.0000000
    2   0.0000000  -0.0000000
    3  -0.1709844   0.1709844
 Gradient of SCF Energy
            1           2
    1   0.0000000  -0.0000000
    2   0.0000000  -0.0000000
    3   0.0000687  -0.0000687
 Max gradient component =       6.869E-05
 RMS gradient           =       3.966E-05
 Gradient time:  CPU 4.18 s  wall 4.43 s
 Geometry Optimization Parameters
   NAtoms,    NIC,     NZ,  NCons,   NDum,   NFix, NCnnct, MaxDiis
        2       5       2       0       0       0       0       0

 Cartesian Hessian Update
 Hessian Updated using BFGS Update


** GEOMETRY OPTIMIZATION IN CARTESIAN COORDINATES **
   Searching for a Minimum

   Optimization Cycle:   3

                       Coordinates (Angstroms)
     ATOM              X           Y           Z
    1  Cl          0.000000    0.000000    0.006208
    2  H           0.000000    0.000000    1.283710
   Point Group: c1    Number of degrees of freedom:   0


   Energy is   -458.982675452


 Translations and Rotations Projected Out of Hessian

  1 Hessian modes will be used to form the next step
  Hessian Eigenvalues:
     0.697855

 Minimum Search - Taking Simple RFO Step
 Searching for Lamda that Minimizes Along All modes
 Value Taken    Lamda =   0.00000000
 Step Taken.  Stepsize is  0.000139

                             Maximum     Tolerance    Cnvgd?
         Gradient           0.000069      0.000300     YES
         Displacement       0.000098      0.001200     YES
         Energy change     -0.000009      0.000001      NO


                       Distance Matrix (Angstroms)
             Cl(  1)
   H (  2)  1.277502
 


 ******************************
 **  OPTIMIZATION CONVERGED  **
 ******************************
 Analysis of SCF Wavefunction
 
 --------------------------------------------------------------
                    Orbital Energies (a.u.)
 --------------------------------------------------------------
 
 Alpha MOs
 -- Occupied --
*******  -9.407  -7.257  -7.247  -7.247  -1.024  -0.609  -0.471
 -0.471
 -- Virtual --
  0.029   0.108   0.118   0.118   0.134   0.182   0.344   0.344
  0.376   0.381   0.381   0.546   0.581   0.581   0.683   0.950
  0.950   1.040   1.089   1.184   1.184   1.210   1.210   1.240
  1.240   1.264   1.264   1.495   1.541   1.541   1.694   2.266
  2.266   2.616   2.816   3.827   3.867   3.867   4.468   4.468
  4.485   4.485   4.586   4.586   4.888   5.123   5.126   5.141
  5.141   5.913   9.549  20.590  20.590  20.841  27.168  27.271
 27.271  27.274  27.446  36.927  36.927  36.929  36.929  36.935
 36.935  36.946 215.945
 --------------------------------------------------------------
 
          Ground-State Mulliken Net Atomic Charges

     Atom                 Charge (a.u.)
  ----------------------------------------
      1 Cl                   -0.234223
      2 H                     0.234223
  ----------------------------------------
  Sum of atomic charges =     0.000000

 -----------------------------------------------------------------
                    Cartesian Multipole Moments
 -----------------------------------------------------------------
    Charge (ESU x 10^10)
                 0.0000
    Dipole Moment (Debye)
         X       0.0000      Y       0.0000      Z       1.2233
       Tot       1.2233
    Quadrupole Moments (Debye-Ang)
        XX     -14.1562     XY       0.0000     YY     -14.1562
        XZ       0.0000     YZ       0.0000     ZZ     -10.2789
    Octapole Moments (Debye-Ang^2)
       XXX       0.0000    XXY       0.0000    XYY       0.0000
       YYY       0.0000    XXZ      -1.0238    XYZ       0.0000
       YYZ      -1.0238    XZZ       0.0000    YZZ       0.0000
       ZZZ       0.3694
    Hexadecapole Moments (Debye-Ang^3)
      XXXX     -17.0764   XXXY       0.0000   XXYY      -5.6922
      XYYY       0.0000   YYYY     -17.0764   XXXZ       0.0000
      XXYZ       0.0000   XYYZ       0.0000   YYYZ       0.0000
      XXZZ      -6.0939   XYZZ       0.0000   YYZZ      -6.0939
      XZZZ       0.0000   YZZZ       0.0000   ZZZZ     -13.7001
 -----------------------------------------------------------------
 Total job time:  54.17s(wall), 48.66s(cpu) 
 Sun Apr 17 19:56:39 2011

        *************************************************************
        *                                                           *
        *  Thank you very much for using Q-Chem.  Have a nice day.  *
        *                                                           *
        *************************************************************


0 sent ACK to 0 
now end server 0 ... 
 
**********************************************************************
Job 2 of 2 
**********************************************************************
 
Process 0 of 1 is on cl162.stfx.acenet.ca - thread support 1
initial socket setup ...start
initial socket setup ...done 
now start server 0 ... 

cmd = /usr/bin/ssh clhead /usr/local/qchem/bin/get_hostid 248119883 > /scratch/tmp/4503882.1.medium.q/qchem6342/lic.dat
                  Welcome to Q-Chem
     A Quantum Leap Into The Future Of Chemistry

 Y. Shao, L. Fusti-Molnar, Y. Jung, J. Kussmann, C. Ochsenfeld,
 S. T. Brown, A. T. B. Gilbert, L. V. Slipchenko,S. V. Levchenko,
 D. P. O'Neill, R. A. DiStasio Jr., R. C. Lochan, T. Wang,
 G. J. O. Beran, N. A. Besley, J. M. Herbert, C. Y. Lin,
 T. Van Voorhis, S. H. Chien, A. Sodt, R. P. Steele, 
 V. A. Rassolov, P. E. Maslen, P. P. Korambath, R. D. Adamson,
 B. Austin, J. Baker, E. F. C. Byrd, H. Dachsel, R. J. Doerksen,
 A. Dreuw, B. D. Dunietz, A. D. Dutoi, T. R. Furlani,
 S. R. Gwaltney, A. Heyden, S. Hirata, C.-P. Hsu, G. Kedziora,
 R. Z. Khaliullin, P. Klunzinger, A. M. Lee, M. S. Lee, W. Liang,
 I. Lotan, N. Nair, B. Peters, E. I. Proynov, P. A. Pieniazek, 
 Y. M. Rhee, J. Ritchie, E. Rosta, C. D. Sherrill, 
 A. C. Simmonett, J. E. Subotnik, H. L. Woodcock III,
 W. Zhang, A. T. Bell, A. K. Chakraborty, D. M. Chipman,
 F. J. Keil, A. Warshel, W. J. Hehre, H. F. Schaefer III,
 J. Kong, A. I. Krylov, P. M. W. Gill, M. Head-Gordon,
 Q-Chem, Version 3.1, Q-Chem, Inc., Pittsburgh, PA (2007).

 Additional authors for Version 3.1: 
 Z. Gan, Y. Zhao, N. E. Schultz, D. Truhlar, E. Epifanovsky and M. Oana.

 Additional authors for Version 3.2: 
 R. Baer, B. R. Brooks, D. Casanova, J.-D. Chai, C.-L. Cheng, 
 C. Cramer, D. Crittenden, A. Ghysels, G. Hawkins, E. G. Hohenstein, 
 C. Kelley, W. Kurlancheek, D. Liotard, E. Livshits, P. Manohar, 
 A. Marenich, D. Neuhauser, R. Olson, M. A. Rohrdanz, K. S. Thanthiriwatte, 
 A. J. W. Thom, V. Vanovschi, C. F. Williams, Q. Wu and Z.-Q. You. 


 Intel X86 Linux Version

 Q-chem begins on Sun Apr 17 19:56:42 2011  

 Parallel job on  1  processors
Processing $rem in /usr/local/qchem/config/preferences.

theFileMan(): MAXOPENFILES=974 MAX_SUB_FILE_NUM=16
Maximum size of a physical file is 2.0 GB, maximum size of a tmp-file is 32.0 GB


--------------------------------------------------------------
User input:
--------------------------------------------------------------

$molecule 
READ 
$end 

$xc_functional
   X HF 1.0
   X BNL 1.0
   C LYP 1.0
$end

$rem
SYMMETRY_DECOMPOSITION	0
exchange 		general
BASIS                   g3large
omega			500 
JOBTYPE                 freq
IDERIV 0
SCF_GUESS READ
separate_jk		true
mem_static              760
max_scf_cycles          200
scf_final_print         1
sym_ignore              true
$end

--------------------------------------------------------------
 Writing REM_CC_EA            2
 ----------------------------------------------------
       Standard Nuclear Orientation (Angstroms)
    I     Atom         X            Y            Z
 ----------------------------------------------------
    1      Cl      0.000000     0.000000     0.006208
    2      H       0.000000     0.000000     1.283710
 ----------------------------------------------------
 Nuclear Repulsion Energy =     7.0418772610 hartrees
 There are        9 alpha and        9 beta electrons
 Requested basis set is G3large
 There are 25 shells and 76 basis functions

Total QAlloc Memory Limit   2000 MB
Mega-Array Size       759 MB
MEM_STATIC part       760 MB

                       Distance Matrix (Angstroms)
             Cl(  1)
   H (  2)  1.277502
 
 A cutoff of  1.0D-11 yielded    325 shell pairs
 There are   3056 function pairs (  4227 Cartesian)
Evaluating contribution to one-electron hamiltonian from nuclear
 Smallest overlap matrix eigenvalue = 3.62E-03
 Multipole matrices computed through 2nd order
 Guess MOs from SCF MO coefficient file
Reading MOs from coefficient file
Reading MOs from coefficient file
 A restricted hybrid HF-DFT SCF calculation will be
 performed using Pulay DIIS extrapolation
 Exchange:     1.0000 Hartree-Fock + 1.0000 BNL
 Correlation:  1.0000 LYP
 Using SG-1 standard quadrature grid
 SCF converges when DIIS error is below 1.0E-08
 ---------------------------------------
  Cycle       Energy         DIIS Error
 ---------------------------------------
    1    -458.9826754521      9.79E-10
    2    -458.9826754522      3.68E-10 Convergence criterion met
 ---------------------------------------
 One-Electron    Energy =  -649.7295625555
 Total Coulomb   Energy =   210.4122457595
 Alpha Exchange  Energy =    -2.2557889336
 Beta  Exchange  Energy =    -2.2557889336
 DFT   Exchange  Energy =   -21.4682327860
 DFT Correlation Energy =    -0.7274252641
 Nuclear Repu.   Energy =     7.0418772610
 Nuclear Attr.   Energy = -1107.9181525602
 Kinetic         Energy =   458.1885900047
 SCF time:  CPU 2.47 s  wall 2.69 s
 Final Alpha MO Eigenvalues
            1           2           3           4           5           6
    1-100.5509848  -9.4073401  -7.2566292  -7.2466133  -7.2466133  -1.0239637
            7           8           9          10          11          12
    1  -0.6089844  -0.4707904  -0.4707904   0.0288734   0.1084601   0.1179605
           13          14
    1   0.1179605   0.1339347
 Analysis of SCF Wavefunction
 
 --------------------------------------------------------------
                    Orbital Energies (a.u.)
 --------------------------------------------------------------
 
 Alpha MOs
 -- Occupied --
*******  -9.407  -7.257  -7.247  -7.247  -1.024  -0.609  -0.471
 -0.471
 -- Virtual --
  0.029   0.108   0.118   0.118   0.134   0.182   0.344   0.344
  0.376   0.381   0.381   0.546   0.581   0.581   0.683   0.950
  0.950   1.040   1.089   1.184   1.184   1.210   1.210   1.240
  1.240   1.264   1.264   1.495   1.541   1.541   1.694   2.266
  2.266   2.616   2.816   3.827   3.867   3.867   4.468   4.468
  4.485   4.485   4.586   4.586   4.888   5.123   5.126   5.141
  5.141   5.913   9.549  20.590  20.590  20.841  27.168  27.271
 27.271  27.274  27.446  36.927  36.927  36.929  36.929  36.935
 36.935  36.946 215.945
 --------------------------------------------------------------
 
          Ground-State Mulliken Net Atomic Charges

     Atom                 Charge (a.u.)
  ----------------------------------------
      1 Cl                   -0.234223
      2 H                     0.234223
  ----------------------------------------
  Sum of atomic charges =     0.000000

 -----------------------------------------------------------------
                    Cartesian Multipole Moments
 -----------------------------------------------------------------
    Charge (ESU x 10^10)
                 0.0000
    Dipole Moment (Debye)
         X       0.0000      Y       0.0000      Z       1.2233
       Tot       1.2233
    Quadrupole Moments (Debye-Ang)
        XX     -14.1562     XY       0.0000     YY     -14.1562
        XZ       0.0000     YZ       0.0000     ZZ     -10.2789
    Octapole Moments (Debye-Ang^2)
       XXX       0.0000    XXY       0.0000    XYY       0.0000
       YYY       0.0000    XXZ      -1.0238    XYZ       0.0000
       YYZ      -1.0238    XZZ       0.0000    YZZ       0.0000
       ZZZ       0.3694
    Hexadecapole Moments (Debye-Ang^3)
      XXXX     -17.0764   XXXY       0.0000   XXYY      -5.6922
      XYYY       0.0000   YYYY     -17.0764   XXXZ       0.0000
      XXYZ       0.0000   XYYZ       0.0000   YYYZ       0.0000
      XXZZ      -6.0939   XYZZ       0.0000   YYZZ      -6.0939
      XZZZ       0.0000   YZZZ       0.0000   ZZZZ     -13.7001
 -----------------------------------------------------------------
 No analytic derivatives required
 ######################################################
 ######################################################
 # Starting finite difference calculation for IDERIV  #
 Finite diff step size: 1.89e-03 a.u.
 Writing REM_CC_EA            2
 ----------------------------------------------------
       Standard Nuclear Orientation (Angstroms)
    I     Atom         X            Y            Z
 ----------------------------------------------------
    1      Cl      0.002000     0.000000     0.006208
    2      H       0.000000     0.000000     1.283710
 ----------------------------------------------------
 Nuclear Repulsion Energy =     7.0418686314 hartrees
 There are        9 alpha and        9 beta electrons

                       Distance Matrix (Angstroms)
             Cl(  1)
   H (  2)  1.277504
 
 Requested basis set is G3large
 There are 25 shells and 76 basis functions
 A cutoff of  1.0D-11 yielded    325 shell pairs
 There are   3056 function pairs (  4227 Cartesian)
Evaluating contribution to one-electron hamiltonian from nuclear
 Smallest overlap matrix eigenvalue = 3.62E-03
 Multipole matrices computed through 2nd order
 Guess MOs from SCF MO coefficient file
Reading MOs from coefficient file
Reading MOs from coefficient file
 A restricted hybrid HF-DFT SCF calculation will be
 performed using Pulay DIIS extrapolation
 Exchange:     1.0000 Hartree-Fock + 1.0000 BNL
 Correlation:  1.0000 LYP
 Using SG-1 standard quadrature grid
 SCF converges when DIIS error is below 1.0E-08
 ---------------------------------------
  Cycle       Energy         DIIS Error
 ---------------------------------------
    1    -458.9826736357      2.28E-05
    2    -458.9826754039      4.74E-06
    3    -458.9826754397      1.33E-06
    4    -458.9826754455      5.95E-07
    5    -458.9826754463      1.39E-07
    6    -458.9826754464      2.44E-08
    7    -458.9826754463      3.17E-09 Convergence criterion met
 ---------------------------------------
 One-Electron    Energy =  -649.7295461464
 Total Coulomb   Energy =   210.4122374078
 Alpha Exchange  Energy =    -2.2557888674
 Beta  Exchange  Energy =    -2.2557888674
 DFT   Exchange  Energy =   -21.4682323636
 DFT Correlation Energy =    -0.7274252405
 Nuclear Repu.   Energy =     7.0418686314
 Nuclear Attr.   Energy = -1107.9181335665
 Kinetic         Energy =   458.1885874200
 SCF time:  CPU 8.62 s  wall 9.57 s
 Final Alpha MO Eigenvalues
            1           2           3           4           5           6
    1-100.5509849  -9.4073402  -7.2566292  -7.2466134  -7.2466134  -1.0239635
            7           8           9          10          11          12
    1  -0.6089842  -0.4707904  -0.4707904   0.0288733   0.1084601   0.1179605
           13          14
    1   0.1179605   0.1339345
 Analysis of SCF Wavefunction
 
 --------------------------------------------------------------
                    Orbital Energies (a.u.)
 --------------------------------------------------------------
 
 Alpha MOs
 -- Occupied --
*******  -9.407  -7.257  -7.247  -7.247  -1.024  -0.609  -0.471
 -0.471
 -- Virtual --
  0.029   0.108   0.118   0.118   0.134   0.182   0.344   0.344
  0.376   0.381   0.381   0.546   0.581   0.581   0.683   0.950
  0.950   1.040   1.089   1.184   1.184   1.210   1.210   1.240
  1.240   1.264   1.264   1.495   1.541   1.541   1.694   2.266
  2.266   2.616   2.816   3.827   3.867   3.867   4.468   4.468
  4.485   4.485   4.586   4.586   4.888   5.123   5.126   5.141
  5.141   5.913   9.549  20.590  20.590  20.841  27.168  27.271
 27.271  27.274  27.446  36.927  36.927  36.929  36.929  36.935
 36.935  36.946 215.945
 --------------------------------------------------------------
 
          Ground-State Mulliken Net Atomic Charges

     Atom                 Charge (a.u.)
  ----------------------------------------
      1 Cl                   -0.234223
      2 H                     0.234223
  ----------------------------------------
  Sum of atomic charges =     0.000000

 -----------------------------------------------------------------
                    Cartesian Multipole Moments
 -----------------------------------------------------------------
    Charge (ESU x 10^10)
                 0.0000
    Dipole Moment (Debye)
         X      -0.0019      Y       0.0000      Z       1.2233
       Tot       1.2233
    Quadrupole Moments (Debye-Ang)
        XX     -14.1562     XY       0.0000     YY     -14.1562
        XZ      -0.0036     YZ       0.0000     ZZ     -10.2789
    Octapole Moments (Debye-Ang^2)
       XXX      -0.0805    XXY       0.0000    XYY      -0.0268
       YYY       0.0000    XXZ      -1.0238    XYZ       0.0000
       YYZ      -1.0238    XZZ      -0.0244    YZZ       0.0000
       ZZZ       0.3694
    Hexadecapole Moments (Debye-Ang^3)
      XXXX     -17.0767   XXXY       0.0000   XXYY      -5.6922
      XYYY       0.0000   YYYY     -17.0764   XXXZ      -0.0043
      XXYZ       0.0000   XYYZ      -0.0014   YYYZ       0.0000
      XXZZ      -6.0940   XYZZ       0.0000   YYZZ      -6.0939
      XZZZ      -0.0064   YZZZ       0.0000   ZZZZ     -13.7001
 -----------------------------------------------------------------
 Writing REM_CC_EA            2
 ----------------------------------------------------
       Standard Nuclear Orientation (Angstroms)
    I     Atom         X            Y            Z
 ----------------------------------------------------
    1      Cl      0.000000     0.000000     0.006208
    2      H       0.000000     0.000000     1.283710
 ----------------------------------------------------
 Nuclear Repulsion Energy =     7.0418772610 hartrees
 There are        9 alpha and        9 beta electrons

                       Distance Matrix (Angstroms)
             Cl(  1)
   H (  2)  1.277502
 
 Requested basis set is G3large
 There are 25 shells and 76 basis functions
 A cutoff of  1.0D-11 yielded    325 shell pairs
 There are   3056 function pairs (  4227 Cartesian)
Evaluating contribution to one-electron hamiltonian from nuclear
 Smallest overlap matrix eigenvalue = 3.62E-03
 Multipole matrices computed through 2nd order
 Guess MOs from SCF MO coefficient file
Reading MOs from coefficient file
Reading MOs from coefficient file
 A restricted hybrid HF-DFT SCF calculation will be
 performed using Pulay DIIS extrapolation
 Exchange:     1.0000 Hartree-Fock + 1.0000 BNL
 Correlation:  1.0000 LYP
 Using SG-1 standard quadrature grid
 SCF converges when DIIS error is below 1.0E-08
 ---------------------------------------
  Cycle       Energy         DIIS Error
 ---------------------------------------
    1    -458.9826756253      2.28E-05
    2    -458.9826754096      4.74E-06
    3    -458.9826754454      1.33E-06
    4    -458.9826754513      5.95E-07
    5    -458.9826754521      1.39E-07
    6    -458.9826754522      2.44E-08
    7    -458.9826754521      3.14E-09 Convergence criterion met
 ---------------------------------------
 One-Electron    Energy =  -649.7295623626
 Total Coulomb   Energy =   210.4122455483
 Alpha Exchange  Energy =    -2.2557889323
 Beta  Exchange  Energy =    -2.2557889323
 DFT   Exchange  Energy =   -21.4682327706
 DFT Correlation Energy =    -0.7274252637
 Nuclear Repu.   Energy =     7.0418772610
 Nuclear Attr.   Energy = -1107.9181521116
 Kinetic         Energy =   458.1885897490
 SCF time:  CPU 8.60 s  wall 9.40 s
 Final Alpha MO Eigenvalues
            1           2           3           4           5           6
    1-100.5509848  -9.4073401  -7.2566292  -7.2466133  -7.2466133  -1.0239637
            7           8           9          10          11          12
    1  -0.6089844  -0.4707904  -0.4707904   0.0288734   0.1084601   0.1179605
           13          14
    1   0.1179605   0.1339347
 Analysis of SCF Wavefunction
 
 --------------------------------------------------------------
                    Orbital Energies (a.u.)
 --------------------------------------------------------------
 
 Alpha MOs
 -- Occupied --
*******  -9.407  -7.257  -7.247  -7.247  -1.024  -0.609  -0.471
 -0.471
 -- Virtual --
  0.029   0.108   0.118   0.118   0.134   0.182   0.344   0.344
  0.376   0.381   0.381   0.546   0.581   0.581   0.683   0.950
  0.950   1.040   1.089   1.184   1.184   1.210   1.210   1.240
  1.240   1.264   1.264   1.495   1.541   1.541   1.694   2.266
  2.266   2.616   2.816   3.827   3.867   3.867   4.468   4.468
  4.485   4.485   4.586   4.586   4.888   5.123   5.126   5.141
  5.141   5.913   9.549  20.590  20.590  20.841  27.168  27.271
 27.271  27.274  27.446  36.927  36.927  36.929  36.929  36.935
 36.935  36.946 215.945
 --------------------------------------------------------------
 
          Ground-State Mulliken Net Atomic Charges

     Atom                 Charge (a.u.)
  ----------------------------------------
      1 Cl                   -0.234223
      2 H                     0.234223
  ----------------------------------------
  Sum of atomic charges =     0.000000

 -----------------------------------------------------------------
                    Cartesian Multipole Moments
 -----------------------------------------------------------------
    Charge (ESU x 10^10)
                 0.0000
    Dipole Moment (Debye)
         X       0.0000      Y       0.0000      Z       1.2233
       Tot       1.2233
    Quadrupole Moments (Debye-Ang)
        XX     -14.1562     XY       0.0000     YY     -14.1562
        XZ       0.0000     YZ       0.0000     ZZ     -10.2789
    Octapole Moments (Debye-Ang^2)
       XXX       0.0000    XXY       0.0000    XYY       0.0000
       YYY       0.0000    XXZ      -1.0238    XYZ       0.0000
       YYZ      -1.0238    XZZ       0.0000    YZZ       0.0000
       ZZZ       0.3694
    Hexadecapole Moments (Debye-Ang^3)
      XXXX     -17.0764   XXXY       0.0000   XXYY      -5.6922
      XYYY       0.0000   YYYY     -17.0764   XXXZ       0.0000
      XXYZ       0.0000   XYYZ       0.0000   YYYZ       0.0000
      XXZZ      -6.0939   XYZZ       0.0000   YYZZ      -6.0939
      XZZZ       0.0000   YZZZ       0.0000   ZZZZ     -13.7001
 -----------------------------------------------------------------
 Writing REM_CC_EA            2
 ----------------------------------------------------
       Standard Nuclear Orientation (Angstroms)
    I     Atom         X            Y            Z
 ----------------------------------------------------
    1      Cl      0.001000     0.001000     0.006208
    2      H       0.000000     0.000000     1.283710
 ----------------------------------------------------
 Nuclear Repulsion Energy =     7.0418729462 hartrees
 There are        9 alpha and        9 beta electrons

                       Distance Matrix (Angstroms)
             Cl(  1)
   H (  2)  1.277503
 
 Requested basis set is G3large
 There are 25 shells and 76 basis functions
 A cutoff of  1.0D-11 yielded    325 shell pairs
 There are   3056 function pairs (  4227 Cartesian)
Evaluating contribution to one-electron hamiltonian from nuclear
 Smallest overlap matrix eigenvalue = 3.62E-03
 Multipole matrices computed through 2nd order
 Guess MOs from SCF MO coefficient file
Reading MOs from coefficient file
Reading MOs from coefficient file
 A restricted hybrid HF-DFT SCF calculation will be
 performed using Pulay DIIS extrapolation
 Exchange:     1.0000 Hartree-Fock + 1.0000 BNL
 Correlation:  1.0000 LYP
 Using SG-1 standard quadrature grid
 SCF converges when DIIS error is below 1.0E-08
 ---------------------------------------
  Cycle       Energy         DIIS Error
 ---------------------------------------
    1    -458.9826745439      1.62E-05
    2    -458.9826754280      3.35E-06
    3    -458.9826754459      9.40E-07
    4    -458.9826754488      4.21E-07
    5    -458.9826754493      9.81E-08
    6    -458.9826754493      1.72E-08
    7    -458.9826754494      2.20E-09 Convergence criterion met
 ---------------------------------------
 One-Electron    Energy =  -649.7295543201
 Total Coulomb   Energy =   210.4122415496
 Alpha Exchange  Energy =    -2.2557889001
 Beta  Exchange  Energy =    -2.2557889001
 DFT   Exchange  Energy =   -21.4682325727
 DFT Correlation Energy =    -0.7274252522
 Nuclear Repu.   Energy =     7.0418729462
 Nuclear Attr.   Energy = -1107.9181430051
 Kinetic         Energy =   458.1885886850
 SCF time:  CPU 8.65 s  wall 9.58 s
 Final Alpha MO Eigenvalues
            1           2           3           4           5           6
    1-100.5509848  -9.4073401  -7.2566292  -7.2466133  -7.2466133  -1.0239636
            7           8           9          10          11          12
    1  -0.6089843  -0.4707904  -0.4707904   0.0288734   0.1084601   0.1179605
           13          14
    1   0.1179605   0.1339346
 Analysis of SCF Wavefunction
 
 --------------------------------------------------------------
                    Orbital Energies (a.u.)
 --------------------------------------------------------------
 
 Alpha MOs
 -- Occupied --
*******  -9.407  -7.257  -7.247  -7.247  -1.024  -0.609  -0.471
 -0.471
 -- Virtual --
  0.029   0.108   0.118   0.118   0.134   0.182   0.344   0.344
  0.376   0.381   0.381   0.546   0.581   0.581   0.683   0.950
  0.950   1.040   1.089   1.184   1.184   1.210   1.210   1.240
  1.240   1.264   1.264   1.495   1.541   1.541   1.694   2.266
  2.266   2.616   2.816   3.827   3.867   3.867   4.468   4.468
  4.485   4.485   4.586   4.586   4.888   5.123   5.126   5.141
  5.141   5.913   9.549  20.590  20.590  20.841  27.168  27.271
 27.271  27.274  27.446  36.927  36.927  36.929  36.929  36.935
 36.935  36.946 215.945
 --------------------------------------------------------------
 
          Ground-State Mulliken Net Atomic Charges

     Atom                 Charge (a.u.)
  ----------------------------------------
      1 Cl                   -0.234223
      2 H                     0.234223
  ----------------------------------------
  Sum of atomic charges =     0.000000

 -----------------------------------------------------------------
                    Cartesian Multipole Moments
 -----------------------------------------------------------------
    Charge (ESU x 10^10)
                 0.0000
    Dipole Moment (Debye)
         X      -0.0010      Y      -0.0010      Z       1.2233
       Tot       1.2233
    Quadrupole Moments (Debye-Ang)
        XX     -14.1562     XY       0.0000     YY     -14.1562
        XZ      -0.0018     YZ      -0.0018     ZZ     -10.2789
    Octapole Moments (Debye-Ang^2)
       XXX      -0.0403    XXY      -0.0134    XYY      -0.0134
       YYY      -0.0403    XXZ      -1.0238    XYZ       0.0000
       YYZ      -1.0238    XZZ      -0.0122    YZZ      -0.0122
       ZZZ       0.3694
    Hexadecapole Moments (Debye-Ang^3)
      XXXX     -17.0764   XXXY       0.0000   XXYY      -5.6922
      XYYY       0.0000   YYYY     -17.0764   XXXZ      -0.0021
      XXYZ      -0.0007   XYYZ      -0.0007   YYYZ      -0.0021
      XXZZ      -6.0939   XYZZ       0.0000   YYZZ      -6.0939
      XZZZ      -0.0032   YZZZ      -0.0032   ZZZZ     -13.7001
 -----------------------------------------------------------------
 Writing REM_CC_EA            2
 ----------------------------------------------------
       Standard Nuclear Orientation (Angstroms)
    I     Atom         X            Y            Z
 ----------------------------------------------------
    1      Cl      0.001000    -0.001000     0.006208
    2      H       0.000000     0.000000     1.283710
 ----------------------------------------------------
 Nuclear Repulsion Energy =     7.0418729462 hartrees
 There are        9 alpha and        9 beta electrons

                       Distance Matrix (Angstroms)
             Cl(  1)
   H (  2)  1.277503
 
 Requested basis set is G3large
 There are 25 shells and 76 basis functions
 A cutoff of  1.0D-11 yielded    325 shell pairs
 There are   3056 function pairs (  4227 Cartesian)
Evaluating contribution to one-electron hamiltonian from nuclear
 Smallest overlap matrix eigenvalue = 3.62E-03
 Multipole matrices computed through 2nd order
 Guess MOs from SCF MO coefficient file
Reading MOs from coefficient file
Reading MOs from coefficient file
 A restricted hybrid HF-DFT SCF calculation will be
 performed using Pulay DIIS extrapolation
 Exchange:     1.0000 Hartree-Fock + 1.0000 BNL
 Correlation:  1.0000 LYP
 Using SG-1 standard quadrature grid
 SCF converges when DIIS error is below 1.0E-08
 ---------------------------------------
  Cycle       Energy         DIIS Error
 ---------------------------------------
    1    -458.9826746305      2.28E-05
    2    -458.9826754068      4.74E-06
    3    -458.9826754425      1.33E-06
    4    -458.9826754483      5.95E-07
    5    -458.9826754492      1.39E-07
    6    -458.9826754493      2.44E-08
    7    -458.9826754493      3.17E-09 Convergence criterion met
 ---------------------------------------
 One-Electron    Energy =  -649.7295542470
 Total Coulomb   Energy =   210.4122414696
 Alpha Exchange  Energy =    -2.2557888998
 Beta  Exchange  Energy =    -2.2557888998
 DFT   Exchange  Energy =   -21.4682325665
 DFT Correlation Energy =    -0.7274252521
 Nuclear Repu.   Energy =     7.0418729462
 Nuclear Attr.   Energy = -1107.9181428189
 Kinetic         Energy =   458.1885885719
 SCF time:  CPU 8.62 s  wall 9.40 s
 Final Alpha MO Eigenvalues
            1           2           3           4           5           6
    1-100.5509849  -9.4073401  -7.2566292  -7.2466133  -7.2466133  -1.0239636
            7           8           9          10          11          12
    1  -0.6089843  -0.4707904  -0.4707904   0.0288734   0.1084601   0.1179605
           13          14
    1   0.1179605   0.1339346
 Analysis of SCF Wavefunction
 
 --------------------------------------------------------------
                    Orbital Energies (a.u.)
 --------------------------------------------------------------
 
 Alpha MOs
 -- Occupied --
*******  -9.407  -7.257  -7.247  -7.247  -1.024  -0.609  -0.471
 -0.471
 -- Virtual --
  0.029   0.108   0.118   0.118   0.134   0.182   0.344   0.344
  0.376   0.381   0.381   0.546   0.581   0.581   0.683   0.950
  0.950   1.040   1.089   1.184   1.184   1.210   1.210   1.240
  1.240   1.264   1.264   1.495   1.541   1.541   1.694   2.266
  2.266   2.616   2.816   3.827   3.867   3.867   4.468   4.468
  4.485   4.485   4.586   4.586   4.888   5.123   5.126   5.141
  5.141   5.913   9.549  20.590  20.590  20.841  27.168  27.271
 27.271  27.274  27.446  36.927  36.927  36.929  36.929  36.935
 36.935  36.946 215.945
 --------------------------------------------------------------
 
          Ground-State Mulliken Net Atomic Charges

     Atom                 Charge (a.u.)
  ----------------------------------------
      1 Cl                   -0.234223
      2 H                     0.234223
  ----------------------------------------
  Sum of atomic charges =     0.000000

 -----------------------------------------------------------------
                    Cartesian Multipole Moments
 -----------------------------------------------------------------
    Charge (ESU x 10^10)
                 0.0000
    Dipole Moment (Debye)
         X      -0.0010      Y       0.0010      Z       1.2233
       Tot       1.2233
    Quadrupole Moments (Debye-Ang)
        XX     -14.1562     XY       0.0000     YY     -14.1562
        XZ      -0.0018     YZ       0.0018     ZZ     -10.2789
    Octapole Moments (Debye-Ang^2)
       XXX      -0.0403    XXY       0.0134    XYY      -0.0134
       YYY       0.0403    XXZ      -1.0238    XYZ       0.0000
       YYZ      -1.0238    XZZ      -0.0122    YZZ       0.0122
       ZZZ       0.3694
    Hexadecapole Moments (Debye-Ang^3)
      XXXX     -17.0764   XXXY       0.0000   XXYY      -5.6922
      XYYY       0.0000   YYYY     -17.0764   XXXZ      -0.0021
      XXYZ       0.0007   XYYZ      -0.0007   YYYZ       0.0021
      XXZZ      -6.0939   XYZZ       0.0000   YYZZ      -6.0939
      XZZZ      -0.0032   YZZZ       0.0032   ZZZZ     -13.7001
 -----------------------------------------------------------------
 Writing REM_CC_EA            2
 ----------------------------------------------------
       Standard Nuclear Orientation (Angstroms)
    I     Atom         X            Y            Z
 ----------------------------------------------------
    1      Cl      0.001000     0.000000     0.007208
    2      H       0.000000     0.000000     1.283710
 ----------------------------------------------------
 Nuclear Repulsion Energy =     7.0473916406 hartrees
 There are        9 alpha and        9 beta electrons

                       Distance Matrix (Angstroms)
             Cl(  1)
   H (  2)  1.276502
 
 Requested basis set is G3large
 There are 25 shells and 76 basis functions
 A cutoff of  1.0D-11 yielded    325 shell pairs
 There are   3056 function pairs (  4227 Cartesian)
Evaluating contribution to one-electron hamiltonian from nuclear
 Smallest overlap matrix eigenvalue = 3.61E-03
 Multipole matrices computed through 2nd order
 Guess MOs from SCF MO coefficient file
Reading MOs from coefficient file
Reading MOs from coefficient file
 A restricted hybrid HF-DFT SCF calculation will be
 performed using Pulay DIIS extrapolation
 Exchange:     1.0000 Hartree-Fock + 1.0000 BNL
 Correlation:  1.0000 LYP
 Using SG-1 standard quadrature grid
 SCF converges when DIIS error is below 1.0E-08
 ---------------------------------------
  Cycle       Energy         DIIS Error
 ---------------------------------------
    1    -458.9833089378      5.46E-05
    2    -458.9826746360      8.44E-06
    3    -458.9826746831      4.57E-06
    4    -458.9826746913      6.18E-07
    5    -458.9826746921      2.24E-07
    6    -458.9826746923      5.31E-08
    7    -458.9826746923      8.97E-09 Convergence criterion met
 ---------------------------------------
 One-Electron    Energy =  -649.7399181675
 Total Coulomb   Energy =   210.4174418138
 Alpha Exchange  Energy =    -2.2558301338
 Beta  Exchange  Energy =    -2.2558301338
 DFT   Exchange  Energy =   -21.4684910052
 DFT Correlation Energy =    -0.7274387064
 Nuclear Repu.   Energy =     7.0473916406
 Nuclear Attr.   Energy = -1107.9300277307
 Kinetic         Energy =   458.1901095632
 SCF time:  CPU 8.69 s  wall 9.47 s
 Final Alpha MO Eigenvalues
            1           2           3           4           5           6
    1-100.5509421  -9.4073228  -7.2566053  -7.2465948  -7.2465948  -1.0241221
            7           8           9          10          11          12
    1  -0.6091449  -0.4708215  -0.4708215   0.0289221   0.1084543   0.1179572
           13          14
    1   0.1179572   0.1340962
 Analysis of SCF Wavefunction
 
 --------------------------------------------------------------
                    Orbital Energies (a.u.)
 --------------------------------------------------------------
 
 Alpha MOs
 -- Occupied --
*******  -9.407  -7.257  -7.247  -7.247  -1.024  -0.609  -0.471
 -0.471
 -- Virtual --
  0.029   0.108   0.118   0.118   0.134   0.183   0.344   0.344
  0.376   0.381   0.381   0.546   0.581   0.581   0.683   0.951
  0.951   1.040   1.089   1.184   1.184   1.210   1.210   1.240
  1.240   1.264   1.264   1.496   1.542   1.542   1.695   2.266
  2.266   2.616   2.816   3.827   3.867   3.867   4.468   4.468
  4.485   4.485   4.587   4.587   4.890   5.123   5.126   5.141
  5.141   5.916   9.549  20.590  20.590  20.841  27.168  27.271
 27.271  27.274  27.447  36.927  36.927  36.929  36.929  36.935
 36.935  36.947 215.945
 --------------------------------------------------------------
 
          Ground-State Mulliken Net Atomic Charges

     Atom                 Charge (a.u.)
  ----------------------------------------
      1 Cl                   -0.234113
      2 H                     0.234113
  ----------------------------------------
  Sum of atomic charges =     0.000000

 -----------------------------------------------------------------
                    Cartesian Multipole Moments
 -----------------------------------------------------------------
    Charge (ESU x 10^10)
                 0.0000
    Dipole Moment (Debye)
         X      -0.0010      Y       0.0000      Z       1.2220
       Tot       1.2220
    Quadrupole Moments (Debye-Ang)
        XX     -14.1549     XY       0.0000     YY     -14.1549
        XZ      -0.0018     YZ       0.0000     ZZ     -10.2797
    Octapole Moments (Debye-Ang^2)
       XXX      -0.0403    XXY       0.0000    XYY      -0.0134
       YYY       0.0000    XXZ      -1.0362    XYZ       0.0000
       YYZ      -1.0362    XZZ      -0.0122    YZZ       0.0000
       ZZZ       0.3336
    Hexadecapole Moments (Debye-Ang^3)
      XXXX     -17.0738   XXXY       0.0000   XXYY      -5.6913
      XYYY       0.0000   YYYY     -17.0738   XXXZ      -0.0022
      XXYZ       0.0000   XYYZ      -0.0007   YYYZ       0.0000
      XXZZ      -6.0926   XYZZ       0.0000   YYZZ      -6.0926
      XZZZ      -0.0033   YZZZ       0.0000   ZZZZ     -13.7009
 -----------------------------------------------------------------
 Writing REM_CC_EA            2
 ----------------------------------------------------
       Standard Nuclear Orientation (Angstroms)
    I     Atom         X            Y            Z
 ----------------------------------------------------
    1      Cl      0.001000     0.000000     0.005208
    2      H       0.000000     0.000000     1.283710
 ----------------------------------------------------
 Nuclear Repulsion Energy =     7.0363671963 hartrees
 There are        9 alpha and        9 beta electrons

                       Distance Matrix (Angstroms)
             Cl(  1)
   H (  2)  1.278502
 
 Requested basis set is G3large
 There are 25 shells and 76 basis functions
 A cutoff of  1.0D-11 yielded    325 shell pairs
 There are   3056 function pairs (  4227 Cartesian)
Evaluating contribution to one-electron hamiltonian from nuclear
 Smallest overlap matrix eigenvalue = 3.63E-03
 Multipole matrices computed through 2nd order
 Guess MOs from SCF MO coefficient file
Reading MOs from coefficient file
Reading MOs from coefficient file
 A restricted hybrid HF-DFT SCF calculation will be
 performed using Pulay DIIS extrapolation
 Exchange:     1.0000 Hartree-Fock + 1.0000 BNL
 Correlation:  1.0000 LYP
 Using SG-1 standard quadrature grid
 SCF converges when DIIS error is below 1.0E-08
 ---------------------------------------
  Cycle       Energy         DIIS Error
 ---------------------------------------
    1    -458.9814083760      1.07E-04
    2    -458.9826747699      1.62E-05
    3    -458.9826749252      8.93E-06
    4    -458.9826749521      8.28E-07
    5    -458.9826749527      1.52E-07
    6    -458.9826749527      2.56E-08
    7    -458.9826749527      6.35E-09 Convergence criterion met
 ---------------------------------------
 One-Electron    Energy =  -649.7192133903
 Total Coulomb   Energy =   210.4070532889
 Alpha Exchange  Energy =    -2.2557477048
 Beta  Exchange  Energy =    -2.2557477048
 DFT   Exchange  Energy =   -21.4679748161
 DFT Correlation Energy =    -0.7274118220
 Nuclear Repu.   Energy =     7.0363671963
 Nuclear Attr.   Energy = -1107.9062868254
 Kinetic         Energy =   458.1870734351
 SCF time:  CPU 8.62 s  wall 9.76 s
 Final Alpha MO Eigenvalues
            1           2           3           4           5           6
    1-100.5510275  -9.4073574  -7.2566531  -7.2466318  -7.2466318  -1.0238055
            7           8           9          10          11          12
    1  -0.6088238  -0.4707594  -0.4707594   0.0288244   0.1084659   0.1179638
           13          14
    1   0.1179638   0.1337727
 Analysis of SCF Wavefunction
 
 --------------------------------------------------------------
                    Orbital Energies (a.u.)
 --------------------------------------------------------------
 
 Alpha MOs
 -- Occupied --
*******  -9.407  -7.257  -7.247  -7.247  -1.024  -0.609  -0.471
 -0.471
 -- Virtual --
  0.029   0.108   0.118   0.118   0.134   0.182   0.344   0.344
  0.376   0.381   0.381   0.546   0.581   0.581   0.683   0.950
  0.950   1.039   1.089   1.184   1.184   1.210   1.210   1.240
  1.240   1.264   1.264   1.495   1.541   1.541   1.694   2.266
  2.266   2.616   2.816   3.826   3.868   3.868   4.468   4.468
  4.485   4.485   4.586   4.586   4.887   5.123   5.126   5.141
  5.141   5.911   9.548  20.590  20.590  20.841  27.168  27.270
 27.270  27.274  27.445  36.927  36.927  36.929  36.929  36.935
 36.935  36.946 215.945
 --------------------------------------------------------------
 
          Ground-State Mulliken Net Atomic Charges

     Atom                 Charge (a.u.)
  ----------------------------------------
      1 Cl                   -0.234333
      2 H                     0.234333
  ----------------------------------------
  Sum of atomic charges =     0.000000

 -----------------------------------------------------------------
                    Cartesian Multipole Moments
 -----------------------------------------------------------------
    Charge (ESU x 10^10)
                 0.0000
    Dipole Moment (Debye)
         X      -0.0010      Y       0.0000      Z       1.2246
       Tot       1.2246
    Quadrupole Moments (Debye-Ang)
        XX     -14.1575     XY       0.0000     YY     -14.1575
        XZ      -0.0018     YZ       0.0000     ZZ     -10.2781
    Octapole Moments (Debye-Ang^2)
       XXX      -0.0403    XXY       0.0000    XYY      -0.0134
       YYY       0.0000    XXZ      -1.0113    XYZ       0.0000
       YYZ      -1.0113    XZZ      -0.0122    YZZ       0.0000
       ZZZ       0.4053
    Hexadecapole Moments (Debye-Ang^3)
      XXXX     -17.0790   XXXY       0.0000   XXYY      -5.6930
      XYYY       0.0000   YYYY     -17.0790   XXXZ      -0.0021
      XXYZ       0.0000   XYYZ      -0.0007   YYYZ       0.0000
      XXZZ      -6.0953   XYZZ       0.0000   YYZZ      -6.0953
      XZZZ      -0.0032   YZZZ       0.0000   ZZZZ     -13.6995
 -----------------------------------------------------------------
 Writing REM_CC_EA            2
 ----------------------------------------------------
       Standard Nuclear Orientation (Angstroms)
    I     Atom         X            Y            Z
 ----------------------------------------------------
    1      Cl      0.001000     0.000000     0.006208
    2      H       0.001000     0.000000     1.283710
 ----------------------------------------------------
 Nuclear Repulsion Energy =     7.0418772610 hartrees
 There are        9 alpha and        9 beta electrons

                       Distance Matrix (Angstroms)
             Cl(  1)
   H (  2)  1.277502
 
 Requested basis set is G3large
 There are 25 shells and 76 basis functions
 A cutoff of  1.0D-11 yielded    325 shell pairs
 There are   3056 function pairs (  4227 Cartesian)
Evaluating contribution to one-electron hamiltonian from nuclear
 Smallest overlap matrix eigenvalue = 3.62E-03
 Multipole matrices computed through 2nd order
 Guess MOs from SCF MO coefficient file
Reading MOs from coefficient file
Reading MOs from coefficient file
 A restricted hybrid HF-DFT SCF calculation will be
 performed using Pulay DIIS extrapolation
 Exchange:     1.0000 Hartree-Fock + 1.0000 BNL
 Correlation:  1.0000 LYP
 Using SG-1 standard quadrature grid
 SCF converges when DIIS error is below 1.0E-08
 ---------------------------------------
  Cycle       Energy         DIIS Error
 ---------------------------------------
    1    -458.9833098860      5.45E-05
    2    -458.9826753959      8.44E-06
    3    -458.9826754430      4.57E-06
    4    -458.9826754512      6.19E-07
    5    -458.9826754520      2.24E-07
    6    -458.9826754522      5.31E-08
    7    -458.9826754522      9.01E-09 Convergence criterion met
 ---------------------------------------
 One-Electron    Energy =  -649.7295615299
 Total Coulomb   Energy =   210.4122446683
 Alpha Exchange  Energy =    -2.2557889350
 Beta  Exchange  Energy =    -2.2557889350
 DFT   Exchange  Energy =   -21.4682327192
 DFT Correlation Energy =    -0.7274252623
 Nuclear Repu.   Energy =     7.0418772610
 Nuclear Attr.   Energy = -1107.9181505117
 Kinetic         Energy =   458.1885889818
 SCF time:  CPU 8.68 s  wall 9.60 s
 Final Alpha MO Eigenvalues
            1           2           3           4           5           6
    1-100.5509850  -9.4073402  -7.2566293  -7.2466135  -7.2466135  -1.0239638
            7           8           9          10          11          12
    1  -0.6089845  -0.4707905  -0.4707905   0.0288734   0.1084601   0.1179605
           13          14
    1   0.1179605   0.1339347
 Analysis of SCF Wavefunction
 
 --------------------------------------------------------------
                    Orbital Energies (a.u.)
 --------------------------------------------------------------
 
 Alpha MOs
 -- Occupied --
*******  -9.407  -7.257  -7.247  -7.247  -1.024  -0.609  -0.471
 -0.471
 -- Virtual --
  0.029   0.108   0.118   0.118   0.134   0.182   0.344   0.344
  0.376   0.381   0.381   0.546   0.581   0.581   0.683   0.950
  0.950   1.040   1.089   1.184   1.184   1.210   1.210   1.240
  1.240   1.264   1.264   1.495   1.541   1.541   1.694   2.266
  2.266   2.616   2.816   3.827   3.867   3.867   4.468   4.468
  4.485   4.485   4.586   4.586   4.888   5.123   5.126   5.141
  5.141   5.913   9.549  20.590  20.590  20.841  27.168  27.271
 27.271  27.274  27.446  36.927  36.927  36.929  36.929  36.935
 36.935  36.946 215.945
 --------------------------------------------------------------
 
          Ground-State Mulliken Net Atomic Charges

     Atom                 Charge (a.u.)
  ----------------------------------------
      1 Cl                   -0.234223
      2 H                     0.234223
  ----------------------------------------
  Sum of atomic charges =     0.000000

 -----------------------------------------------------------------
                    Cartesian Multipole Moments
 -----------------------------------------------------------------
    Charge (ESU x 10^10)
                 0.0000
    Dipole Moment (Debye)
         X       0.0000      Y       0.0000      Z       1.2233
       Tot       1.2233
    Quadrupole Moments (Debye-Ang)
        XX     -14.1562     XY       0.0000     YY     -14.1562
        XZ       0.0012     YZ       0.0000     ZZ     -10.2789
    Octapole Moments (Debye-Ang^2)
       XXX      -0.0425    XXY       0.0000    XYY      -0.0142
       YYY       0.0000    XXZ      -1.0238    XYZ       0.0000
       YYZ      -1.0238    XZZ      -0.0103    YZZ       0.0000
       ZZZ       0.3694
    Hexadecapole Moments (Debye-Ang^3)
      XXXX     -17.0764   XXXY       0.0000   XXYY      -5.6922
      XYYY       0.0000   YYYY     -17.0764   XXXZ      -0.0031
      XXYZ       0.0000   XYYZ      -0.0010   YYYZ       0.0000
      XXZZ      -6.0939   XYZZ       0.0000   YYZZ      -6.0939
      XZZZ       0.0004   YZZZ       0.0000   ZZZZ     -13.7001
 -----------------------------------------------------------------
 Writing REM_CC_EA            2
 ----------------------------------------------------
       Standard Nuclear Orientation (Angstroms)
    I     Atom         X            Y            Z
 ----------------------------------------------------
    1      Cl      0.001000     0.000000     0.006208
    2      H      -0.001000     0.000000     1.283710
 ----------------------------------------------------
 Nuclear Repulsion Energy =     7.0418686314 hartrees
 There are        9 alpha and        9 beta electrons

                       Distance Matrix (Angstroms)
             Cl(  1)
   H (  2)  1.277504
 
 Requested basis set is G3large
 There are 25 shells and 76 basis functions
 A cutoff of  1.0D-11 yielded    325 shell pairs
 There are   3056 function pairs (  4227 Cartesian)
Evaluating contribution to one-electron hamiltonian from nuclear
 Smallest overlap matrix eigenvalue = 3.62E-03
 Multipole matrices computed through 2nd order
 Guess MOs from SCF MO coefficient file
Reading MOs from coefficient file
Reading MOs from coefficient file
 A restricted hybrid HF-DFT SCF calculation will be
 performed using Pulay DIIS extrapolation
 Exchange:     1.0000 Hartree-Fock + 1.0000 BNL
 Correlation:  1.0000 LYP
 Using SG-1 standard quadrature grid
 SCF converges when DIIS error is below 1.0E-08
 ---------------------------------------
  Cycle       Energy         DIIS Error
 ---------------------------------------
    1    -458.9826736358      2.28E-05
    2    -458.9826754039      4.74E-06
    3    -458.9826754397      1.33E-06
    4    -458.9826754455      5.95E-07
    5    -458.9826754463      1.39E-07
    6    -458.9826754464      2.44E-08
    7    -458.9826754464      3.13E-09 Convergence criterion met
 ---------------------------------------
 One-Electron    Energy =  -649.7295461807
 Total Coulomb   Energy =   210.4122374448
 Alpha Exchange  Energy =    -2.2557888676
 Beta  Exchange  Energy =    -2.2557888676
 DFT   Exchange  Energy =   -21.4682323662
 DFT Correlation Energy =    -0.7274252405
 Nuclear Repu.   Energy =     7.0418686314
 Nuclear Attr.   Energy = -1107.9181336437
 Kinetic         Energy =   458.1885874630
 SCF time:  CPU 8.59 s  wall 9.37 s
 Final Alpha MO Eigenvalues
            1           2           3           4           5           6
    1-100.5509849  -9.4073401  -7.2566292  -7.2466134  -7.2466133  -1.0239635
            7           8           9          10          11          12
    1  -0.6089842  -0.4707904  -0.4707904   0.0288733   0.1084601   0.1179605
           13          14
    1   0.1179605   0.1339345
 Analysis of SCF Wavefunction
 
 --------------------------------------------------------------
                    Orbital Energies (a.u.)
 --------------------------------------------------------------
 
 Alpha MOs
 -- Occupied --
*******  -9.407  -7.257  -7.247  -7.247  -1.024  -0.609  -0.471
 -0.471
 -- Virtual --
  0.029   0.108   0.118   0.118   0.134   0.182   0.344   0.344
  0.376   0.381   0.381   0.546   0.581   0.581   0.683   0.950
  0.950   1.040   1.089   1.184   1.184   1.210   1.210   1.240
  1.240   1.264   1.264   1.495   1.541   1.541   1.694   2.266
  2.266   2.616   2.816   3.827   3.867   3.867   4.468   4.468
  4.485   4.485   4.586   4.586   4.888   5.123   5.126   5.141
  5.141   5.913   9.549  20.590  20.590  20.841  27.168  27.271
 27.271  27.274  27.446  36.927  36.927  36.929  36.929  36.935
 36.935  36.946 215.945
 --------------------------------------------------------------
 
          Ground-State Mulliken Net Atomic Charges

     Atom                 Charge (a.u.)
  ----------------------------------------
      1 Cl                   -0.234223
      2 H                     0.234223
  ----------------------------------------
  Sum of atomic charges =     0.000000

 -----------------------------------------------------------------
                    Cartesian Multipole Moments
 -----------------------------------------------------------------
    Charge (ESU x 10^10)
                 0.0000
    Dipole Moment (Debye)
         X      -0.0019      Y       0.0000      Z       1.2233
       Tot       1.2233
    Quadrupole Moments (Debye-Ang)
        XX     -14.1562     XY       0.0000     YY     -14.1562
        XZ      -0.0048     YZ       0.0000     ZZ     -10.2789
    Octapole Moments (Debye-Ang^2)
       XXX      -0.0381    XXY       0.0000    XYY      -0.0127
       YYY       0.0000    XXZ      -1.0238    XYZ       0.0000
       YYZ      -1.0238    XZZ      -0.0142    YZZ       0.0000
       ZZZ       0.3694
    Hexadecapole Moments (Debye-Ang^3)
      XXXX     -17.0764   XXXY       0.0000   XXYY      -5.6922
      XYYY       0.0000   YYYY     -17.0764   XXXZ      -0.0012
      XXYZ       0.0000   XYYZ      -0.0004   YYYZ       0.0000
      XXZZ      -6.0939   XYZZ       0.0000   YYZZ      -6.0939
      XZZZ      -0.0068   YZZZ       0.0000   ZZZZ     -13.7001
 -----------------------------------------------------------------
 Writing REM_CC_EA            2
 ----------------------------------------------------
       Standard Nuclear Orientation (Angstroms)
    I     Atom         X            Y            Z
 ----------------------------------------------------
    1      Cl      0.001000     0.000000     0.006208
    2      H       0.000000     0.001000     1.283710
 ----------------------------------------------------
 Nuclear Repulsion Energy =     7.0418729462 hartrees
 There are        9 alpha and        9 beta electrons

                       Distance Matrix (Angstroms)
             Cl(  1)
   H (  2)  1.277503
 
 Requested basis set is G3large
 There are 25 shells and 76 basis functions
 A cutoff of  1.0D-11 yielded    325 shell pairs
 There are   3056 function pairs (  4227 Cartesian)
Evaluating contribution to one-electron hamiltonian from nuclear
 Smallest overlap matrix eigenvalue = 3.62E-03
 Multipole matrices computed through 2nd order
 Guess MOs from SCF MO coefficient file
Reading MOs from coefficient file
Reading MOs from coefficient file
 A restricted hybrid HF-DFT SCF calculation will be
 performed using Pulay DIIS extrapolation
 Exchange:     1.0000 Hartree-Fock + 1.0000 BNL
 Correlation:  1.0000 LYP
 Using SG-1 standard quadrature grid
 SCF converges when DIIS error is below 1.0E-08
 ---------------------------------------
  Cycle       Energy         DIIS Error
 ---------------------------------------
    1    -458.9826755359      1.62E-05
    2    -458.9826754280      3.35E-06
    3    -458.9826754459      9.40E-07
    4    -458.9826754489      4.21E-07
    5    -458.9826754492      9.80E-08
    6    -458.9826754493      1.72E-08
    7    -458.9826754492      2.19E-09 Convergence criterion met
 ---------------------------------------
 One-Electron    Energy =  -649.7295543638
 Total Coulomb   Energy =   210.4122415961
 Alpha Exchange  Energy =    -2.2557889003
 Beta  Exchange  Energy =    -2.2557889003
 DFT   Exchange  Energy =   -21.4682325748
 DFT Correlation Energy =    -0.7274252523
 Nuclear Repu.   Energy =     7.0418729462
 Nuclear Attr.   Energy = -1107.9181430728
 Kinetic         Energy =   458.1885887090
 SCF time:  CPU 8.64 s  wall 9.87 s
 Final Alpha MO Eigenvalues
            1           2           3           4           5           6
    1-100.5509848  -9.4073401  -7.2566292  -7.2466133  -7.2466133  -1.0239636
            7           8           9          10          11          12
    1  -0.6089843  -0.4707904  -0.4707904   0.0288734   0.1084601   0.1179605
           13          14
    1   0.1179605   0.1339346
 Analysis of SCF Wavefunction
 
 --------------------------------------------------------------
                    Orbital Energies (a.u.)
 --------------------------------------------------------------
 
 Alpha MOs
 -- Occupied --
*******  -9.407  -7.257  -7.247  -7.247  -1.024  -0.609  -0.471
 -0.471
 -- Virtual --
  0.029   0.108   0.118   0.118   0.134   0.182   0.344   0.344
  0.376   0.381   0.381   0.546   0.581   0.581   0.683   0.950
  0.950   1.040   1.089   1.184   1.184   1.210   1.210   1.240
  1.240   1.264   1.264   1.495   1.541   1.541   1.694   2.266
  2.266   2.616   2.816   3.827   3.867   3.867   4.468   4.468
  4.485   4.485   4.586   4.586   4.888   5.123   5.126   5.141
  5.141   5.913   9.549  20.590  20.590  20.841  27.168  27.271
 27.271  27.274  27.446  36.927  36.927  36.929  36.929  36.935
 36.935  36.946 215.945
 --------------------------------------------------------------
 
          Ground-State Mulliken Net Atomic Charges

     Atom                 Charge (a.u.)
  ----------------------------------------
      1 Cl                   -0.234223
      2 H                     0.234223
  ----------------------------------------
  Sum of atomic charges =     0.000000

 -----------------------------------------------------------------
                    Cartesian Multipole Moments
 -----------------------------------------------------------------
    Charge (ESU x 10^10)
                 0.0000
    Dipole Moment (Debye)
         X      -0.0010      Y       0.0010      Z       1.2233
       Tot       1.2233
    Quadrupole Moments (Debye-Ang)
        XX     -14.1562     XY       0.0000     YY     -14.1562
        XZ      -0.0018     YZ       0.0030     ZZ     -10.2789
    Octapole Moments (Debye-Ang^2)
       XXX      -0.0403    XXY      -0.0007    XYY      -0.0134
       YYY      -0.0022    XXZ      -1.0238    XYZ       0.0000
       YYZ      -1.0238    XZZ      -0.0122    YZZ       0.0019
       ZZZ       0.3694
    Hexadecapole Moments (Debye-Ang^3)
      XXXX     -17.0764   XXXY       0.0000   XXYY      -5.6922
      XYYY       0.0000   YYYY     -17.0764   XXXZ      -0.0021
      XXYZ      -0.0003   XYYZ      -0.0007   YYYZ      -0.0009
      XXZZ      -6.0939   XYZZ       0.0000   YYZZ      -6.0939
      XZZZ      -0.0032   YZZZ       0.0036   ZZZZ     -13.7001
 -----------------------------------------------------------------
 Writing REM_CC_EA            2
 ----------------------------------------------------
       Standard Nuclear Orientation (Angstroms)
    I     Atom         X            Y            Z
[...]
    Charge (ESU x 10^10)
                 0.0000
    Dipole Moment (Debye)
         X       0.0000      Y      -0.0010      Z       1.2246
       Tot       1.2246
    Quadrupole Moments (Debye-Ang)
        XX     -14.1575     XY       0.0000     YY     -14.1575
        XZ       0.0000     YZ      -0.0030     ZZ     -10.2756
    Octapole Moments (Debye-Ang^2)
       XXX       0.0000    XXY       0.0007    XYY       0.0000
       YYY       0.0022    XXZ      -1.0255    XYZ       0.0000
       YYZ      -1.0255    XZZ       0.0000    YZZ      -0.0019
       ZZZ       0.3744
    Hexadecapole Moments (Debye-Ang^3)
      XXXX     -17.0790   XXXY       0.0000   XXYY      -5.6930
      XYYY       0.0000   YYYY     -17.0790   XXXZ       0.0000
      XXYZ       0.0003   XYYZ       0.0000   YYYZ       0.0009
      XXZZ      -6.0973   XYZZ       0.0000   YYZZ      -6.0973
      XZZZ       0.0000   YZZZ      -0.0036   ZZZZ     -13.6980
 -----------------------------------------------------------------
 Writing REM_CC_EA            2
 ----------------------------------------------------
       Standard Nuclear Orientation (Angstroms)
    I     Atom         X            Y            Z
 ----------------------------------------------------
    1      Cl      0.000000     0.000000     0.006208
    2      H       0.000000    -0.001000     1.282710
 ----------------------------------------------------
 Nuclear Repulsion Energy =     7.0473916406 hartrees
 There are        9 alpha and        9 beta electrons

                       Distance Matrix (Angstroms)
             Cl(  1)
   H (  2)  1.276502
 
 Requested basis set is G3large
 There are 25 shells and 76 basis functions
 A cutoff of  1.0D-11 yielded    325 shell pairs
 There are   3056 function pairs (  4227 Cartesian)
Evaluating contribution to one-electron hamiltonian from nuclear
 Smallest overlap matrix eigenvalue = 3.61E-03
 Multipole matrices computed through 2nd order
 Guess MOs from SCF MO coefficient file
Reading MOs from coefficient file
Reading MOs from coefficient file
 A restricted hybrid HF-DFT SCF calculation will be
 performed using Pulay DIIS extrapolation
 Exchange:     1.0000 Hartree-Fock + 1.0000 BNL
 Correlation:  1.0000 LYP
 Using SG-1 standard quadrature grid
 SCF converges when DIIS error is below 1.0E-08
 ---------------------------------------
  Cycle       Energy         DIIS Error
 ---------------------------------------
    1    -458.9839439537      1.07E-04
    2    -458.9826745097      1.62E-05
    3    -458.9826746648      8.93E-06
    4    -458.9826746917      8.28E-07
    5    -458.9826746922      1.52E-07
    6    -458.9826746923      2.55E-08
    7    -458.9826746923      6.34E-09 Convergence criterion met
 ---------------------------------------
 One-Electron    Energy =  -649.7399180203
 Total Coulomb   Energy =   210.4174416648
 Alpha Exchange  Energy =    -2.2558301323
 Beta  Exchange  Energy =    -2.2558301323
 DFT   Exchange  Energy =   -21.4684910072
 DFT Correlation Energy =    -0.7274387057
 Nuclear Repu.   Energy =     7.0473916406
 Nuclear Attr.   Energy = -1107.9300276426
 Kinetic         Energy =   458.1901096223
 SCF time:  CPU 9.07 s  wall 10.17 s
 Final Alpha MO Eigenvalues
            1           2           3           4           5           6
    1-100.5509420  -9.4073228  -7.2566052  -7.2465947  -7.2465947  -1.0241221
            7           8           9          10          11          12
    1  -0.6091449  -0.4708215  -0.4708215   0.0289222   0.1084543   0.1179572
           13          14
    1   0.1179572   0.1340963
 Analysis of SCF Wavefunction
 
 --------------------------------------------------------------
                    Orbital Energies (a.u.)
 --------------------------------------------------------------
 
 Alpha MOs
 -- Occupied --
*******  -9.407  -7.257  -7.247  -7.247  -1.024  -0.609  -0.471
 -0.471
 -- Virtual --
  0.029   0.108   0.118   0.118   0.134   0.183   0.344   0.344
  0.376   0.381   0.381   0.546   0.581   0.581   0.683   0.951
  0.951   1.040   1.089   1.184   1.184   1.210   1.210   1.240
  1.240   1.264   1.264   1.496   1.542   1.542   1.695   2.266
  2.266   2.616   2.816   3.827   3.867   3.867   4.468   4.468
  4.485   4.485   4.587   4.587   4.890   5.123   5.126   5.141
  5.141   5.916   9.549  20.590  20.590  20.841  27.168  27.271
 27.271  27.274  27.447  36.927  36.927  36.929  36.929  36.935
 36.935  36.947 215.945
 --------------------------------------------------------------
 
          Ground-State Mulliken Net Atomic Charges

     Atom                 Charge (a.u.)
  ----------------------------------------
      1 Cl                   -0.234113
      2 H                     0.234113
  ----------------------------------------
  Sum of atomic charges =     0.000000

 -----------------------------------------------------------------
                    Cartesian Multipole Moments
 -----------------------------------------------------------------
    Charge (ESU x 10^10)
                 0.0000
    Dipole Moment (Debye)
         X       0.0000      Y      -0.0010      Z       1.2220
       Tot       1.2220
    Quadrupole Moments (Debye-Ang)
        XX     -14.1549     XY       0.0000     YY     -14.1549
        XZ       0.0000     YZ      -0.0030     ZZ     -10.2822
    Octapole Moments (Debye-Ang^2)
       XXX       0.0000    XXY       0.0007    XYY       0.0000
       YYY       0.0022    XXZ      -1.0221    XYZ       0.0000
       YYZ      -1.0221    XZZ       0.0000    YZZ      -0.0019
       ZZZ       0.3644
    Hexadecapole Moments (Debye-Ang^3)
      XXXX     -17.0738   XXXY       0.0000   XXYY      -5.6913
      XYYY       0.0000   YYYY     -17.0738   XXXZ       0.0000
      XXYZ       0.0003   XYYZ       0.0000   YYYZ       0.0009
      XXZZ      -6.0906   XYZZ       0.0000   YYZZ      -6.0906
      XZZZ       0.0000   YZZZ      -0.0036   ZZZZ     -13.7023
 -----------------------------------------------------------------
 Writing REM_CC_EA            2
 ----------------------------------------------------
       Standard Nuclear Orientation (Angstroms)
    I     Atom         X            Y            Z
 ----------------------------------------------------
    1      Cl      0.000000     0.000000     0.006208
    2      H       0.000000     0.000000     1.285710
 ----------------------------------------------------
 Nuclear Repulsion Energy =     7.0308700457 hartrees
 There are        9 alpha and        9 beta electrons

                       Distance Matrix (Angstroms)
             Cl(  1)
   H (  2)  1.279502
 
 Requested basis set is G3large
 There are 25 shells and 76 basis functions
 A cutoff of  1.0D-11 yielded    325 shell pairs
 There are   3056 function pairs (  4227 Cartesian)
Evaluating contribution to one-electron hamiltonian from nuclear
 Smallest overlap matrix eigenvalue = 3.64E-03
 Multipole matrices computed through 2nd order
 Guess MOs from SCF MO coefficient file
Reading MOs from coefficient file
Reading MOs from coefficient file
 A restricted hybrid HF-DFT SCF calculation will be
 performed using Pulay DIIS extrapolation
 Exchange:     1.0000 Hartree-Fock + 1.0000 BNL
 Correlation:  1.0000 LYP
 Using SG-1 standard quadrature grid
 SCF converges when DIIS error is below 1.0E-08
 ---------------------------------------
  Cycle       Energy         DIIS Error
 ---------------------------------------
    1    -458.9807741029      1.60E-04
    2    -458.9826727838      2.44E-05
    3    -458.9826731417      1.34E-05
    4    -458.9826732038      1.33E-06
    5    -458.9826732056      3.25E-07
    6    -458.9826732059      8.83E-08
    7    -458.9826732059      2.34E-08
    8    -458.9826732059      1.00E-08
    9    -458.9826732059      2.04E-09 Convergence criterion met
 ---------------------------------------
 One-Electron    Energy =  -649.7088847797
 Total Coulomb   Energy =   210.4018703691
 Alpha Exchange  Energy =    -2.2557065147
 Beta  Exchange  Energy =    -2.2557065147
 DFT   Exchange  Energy =   -21.4677174131
 DFT Correlation Energy =    -0.7273983984
 Nuclear Repu.   Energy =     7.0308700457
 Nuclear Attr.   Energy = -1107.8944457718
 Kinetic         Energy =   458.1855609921
 SCF time:  CPU 11.67 s  wall 13.20 s
 Final Alpha MO Eigenvalues
            1           2           3           4           5           6
    1-100.5510703  -9.4073749  -7.2566771  -7.2466505  -7.2466505  -1.0236479
            7           8           9          10          11          12
    1  -0.6086633  -0.4707284  -0.4707284   0.0287752   0.1084716   0.1179671
           13          14
    1   0.1179671   0.1336103
 Analysis of SCF Wavefunction
 
 --------------------------------------------------------------
                    Orbital Energies (a.u.)
 --------------------------------------------------------------
 
 Alpha MOs
 -- Occupied --
*******  -9.407  -7.257  -7.247  -7.247  -1.024  -0.609  -0.471
 -0.471
 -- Virtual --
  0.029   0.108   0.118   0.118   0.134   0.182   0.344   0.344
  0.376   0.381   0.381   0.546   0.581   0.581   0.682   0.950
  0.950   1.039   1.089   1.184   1.184   1.210   1.210   1.240
  1.240   1.264   1.264   1.495   1.541   1.541   1.694   2.266
  2.266   2.616   2.816   3.826   3.869   3.869   4.468   4.468
  4.485   4.485   4.585   4.585   4.885   5.123   5.126   5.141
  5.141   5.909   9.548  20.590  20.590  20.841  27.168  27.270
 27.270  27.274  27.444  36.927  36.927  36.929  36.929  36.935
 36.935  36.946 215.944
 --------------------------------------------------------------
 
          Ground-State Mulliken Net Atomic Charges

     Atom                 Charge (a.u.)
  ----------------------------------------
      1 Cl                   -0.234444
      2 H                     0.234444
  ----------------------------------------
  Sum of atomic charges =     0.000000

 -----------------------------------------------------------------
                    Cartesian Multipole Moments
 -----------------------------------------------------------------
    Charge (ESU x 10^10)
                 0.0000
    Dipole Moment (Debye)
         X       0.0000      Y       0.0000      Z       1.2259
       Tot       1.2259
    Quadrupole Moments (Debye-Ang)
        XX     -14.1588     XY       0.0000     YY     -14.1588
        XZ       0.0000     YZ       0.0000     ZZ     -10.2723
    Octapole Moments (Debye-Ang^2)
       XXX       0.0000    XXY       0.0000    XYY       0.0000
       YYY       0.0000    XXZ      -1.0271    XYZ       0.0000
       YYZ      -1.0271    XZZ       0.0000    YZZ       0.0000
       ZZZ       0.3795
    Hexadecapole Moments (Debye-Ang^3)
      XXXX     -17.0816   XXXY       0.0000   XXYY      -5.6939
      XYYY       0.0000   YYYY     -17.0816   XXXZ       0.0000
      XXYZ       0.0000   XYYZ       0.0000   YYYZ       0.0000
      XXZZ      -6.1007   XYZZ       0.0000   YYZZ      -6.1007
      XZZZ       0.0000   YZZZ       0.0000   ZZZZ     -13.6958
 -----------------------------------------------------------------
 Writing REM_CC_EA            2
 ----------------------------------------------------
       Standard Nuclear Orientation (Angstroms)
    I     Atom         X            Y            Z
 ----------------------------------------------------
    1      Cl      0.000000     0.000000     0.006208
    2      H       0.000000     0.000000     1.281710
 ----------------------------------------------------
 Nuclear Repulsion Energy =     7.0529189952 hartrees
 There are        9 alpha and        9 beta electrons

                       Distance Matrix (Angstroms)
             Cl(  1)
   H (  2)  1.275502
 
 Requested basis set is G3large
 There are 25 shells and 76 basis functions
 A cutoff of  1.0D-11 yielded    325 shell pairs
 There are   3056 function pairs (  4227 Cartesian)
Evaluating contribution to one-electron hamiltonian from nuclear
 Smallest overlap matrix eigenvalue = 3.60E-03
 Multipole matrices computed through 2nd order
 Guess MOs from SCF MO coefficient file
Reading MOs from coefficient file
Reading MOs from coefficient file
 A restricted hybrid HF-DFT SCF calculation will be
 performed using Pulay DIIS extrapolation
 Exchange:     1.0000 Hartree-Fock + 1.0000 BNL
 Correlation:  1.0000 LYP
 Using SG-1 standard quadrature grid
 SCF converges when DIIS error is below 1.0E-08
 ---------------------------------------
  Cycle       Energy         DIIS Error
 ---------------------------------------
    1    -458.9852138524      2.13E-04
    2    -458.9826719427      3.24E-05
    3    -458.9826725627      1.78E-05
    4    -458.9826726704      1.66E-06
    5    -458.9826726725      3.04E-07
    6    -458.9826726727      5.09E-08
    7    -458.9826726727      1.26E-08
    8    -458.9826726727      6.09E-09 Convergence criterion met
 ---------------------------------------
 One-Electron    Energy =  -649.7503000808
 Total Coulomb   Energy =   210.4226534887
 Alpha Exchange  Energy =    -2.2558713785
 Beta  Exchange  Energy =    -2.2558713785
 DFT   Exchange  Energy =   -21.4687501406
 DFT Correlation Energy =    -0.7274521783
 Nuclear Repu.   Energy =     7.0529189952
 Nuclear Attr.   Energy = -1107.9419383980
 Kinetic         Energy =   458.1916383172
 SCF time:  CPU 10.33 s  wall 11.69 s
 Final Alpha MO Eigenvalues
            1           2           3           4           5           6
    1-100.5508988  -9.4073052  -7.2565810  -7.2465759  -7.2465759  -1.0242809
            7           8           9          10          11          12
    1  -0.6093054  -0.4708526  -0.4708526   0.0289707   0.1084485   0.1179539
           13          14
    1   0.1179539   0.1342575
 Analysis of SCF Wavefunction
 
 --------------------------------------------------------------
                    Orbital Energies (a.u.)
 --------------------------------------------------------------
 
 Alpha MOs
 -- Occupied --
*******  -9.407  -7.257  -7.247  -7.247  -1.024  -0.609  -0.471
 -0.471
 -- Virtual --
  0.029   0.108   0.118   0.118   0.134   0.183   0.344   0.344
  0.376   0.381   0.381   0.546   0.581   0.581   0.684   0.951
  0.951   1.040   1.089   1.184   1.184   1.210   1.210   1.240
  1.240   1.264   1.264   1.496   1.542   1.542   1.695   2.266
  2.266   2.616   2.816   3.827   3.866   3.866   4.468   4.468
  4.485   4.485   4.588   4.588   4.891   5.123   5.126   5.141
  5.141   5.918   9.550  20.590  20.590  20.842  27.168  27.271
 27.271  27.274  27.448  36.927  36.927  36.929  36.929  36.935
 36.935  36.947 215.946
 --------------------------------------------------------------
 
          Ground-State Mulliken Net Atomic Charges

     Atom                 Charge (a.u.)
  ----------------------------------------
      1 Cl                   -0.234004
      2 H                     0.234004
  ----------------------------------------
  Sum of atomic charges =     0.000000

 -----------------------------------------------------------------
                    Cartesian Multipole Moments
 -----------------------------------------------------------------
    Charge (ESU x 10^10)
                 0.0000
    Dipole Moment (Debye)
         X       0.0000      Y       0.0000      Z       1.2208
       Tot       1.2208
    Quadrupole Moments (Debye-Ang)
        XX     -14.1536     XY       0.0000     YY     -14.1536
        XZ       0.0000     YZ       0.0000     ZZ     -10.2855
    Octapole Moments (Debye-Ang^2)
       XXX       0.0000    XXY       0.0000    XYY       0.0000
       YYY       0.0000    XXZ      -1.0204    XYZ       0.0000
       YYZ      -1.0204    XZZ       0.0000    YZZ       0.0000
       ZZZ       0.3594
    Hexadecapole Moments (Debye-Ang^3)
      XXXX     -17.0712   XXXY       0.0000   XXYY      -5.6904
      XYYY       0.0000   YYYY     -17.0712   XXXZ       0.0000
      XXYZ       0.0000   XYYZ       0.0000   YYYZ       0.0000
      XXZZ      -6.0872   XYZZ       0.0000   YYZZ      -6.0872
      XZZZ       0.0000   YZZZ       0.0000   ZZZZ     -13.7044
 -----------------------------------------------------------------
 Writing REM_CC_EA            2
 ----------------------------------------------------
       Standard Nuclear Orientation (Angstroms)
    I     Atom         X            Y            Z
 ----------------------------------------------------
    1      Cl      0.000000     0.000000     0.006208
    2      H       0.000000     0.000000     1.283710
 ----------------------------------------------------
 Nuclear Repulsion Energy =     7.0418772610 hartrees
 There are        9 alpha and        9 beta electrons
FINAL TENSOR RESULT:
Order 2, Length 6
Order 1, Length 6
   0.0008014  -0.0000094   0.0000000  -0.0008070  -0.0000003   0.0000000
Order 1, Length 6
  -0.0000094   0.0007950  -0.0000002  -0.0000017  -0.0007965  -0.0000027
Order 1, Length 6
   0.0000000  -0.0000002   0.3518254  -0.0000011   0.0000037  -0.3518337
Order 1, Length 6
  -0.0008070  -0.0000017  -0.0000011   0.0007971   0.0000012  -0.0000001
Order 1, Length 6
  -0.0000003  -0.0007965   0.0000037   0.0000012   0.0007954   0.0000001
Order 1, Length 6
   0.0000000  -0.0000027  -0.3518337  -0.0000001   0.0000001   0.3518211


 # Finishing finite difference calculation for IDERIV #
 ######################################################
 ######################################################
 Requested basis set is G3large
 There are 25 shells and 76 basis functions
 **********************************************************************
 **                                                                  **
 **                       VIBRATIONAL ANALYSIS                       **
 **                       --------------------                       **
 **                                                                  **
 **        VIBRATIONAL FREQUENCIES (CM**-1) AND NORMAL MODES         **
 **     FORCE CONSTANTS (mDYN/ANGSTROM) AND REDUCED MASSES (AMU)     **
 **                                                                  **
 **********************************************************************
 

 Mode:                 1
 Frequency:      3080.66
 Force Cnst:      5.7930
 Red. Mass:       1.0360
 IR Active:          YES
 Raman Active:       YES
               X      Y      Z
 Cl         0.000  0.000 -0.029
 H          0.000  0.000  1.000
 TransDip   0.000  0.000  0.000

 STANDARD THERMODYNAMIC QUANTITIES AT   298.18 K  AND     1.00 ATM

   This Molecule has  0 Imaginary Frequencies
   Zero point vibrational energy:        4.404 kcal/mol

   Atom    1 Element Cl Has Mass   34.96885
   Atom    2 Element H  Has Mass    1.00783
   Molecular Mass:    35.976680 amu
   Principal axes and moments of inertia in atomic units:
                             1           2           3
    Eigenvalues --        0.00000     5.70911     5.70911
          X               0.00000     0.00000     1.00000
          Y               0.00000     1.00000     0.00000
          Z               1.00000     0.00000     0.00000
   Rotational Symmetry Number is   1
   The Molecule is a Symmetric Top
   Translational Enthalpy:        0.889 kcal/mol
   Rotational Enthalpy:           0.889 kcal/mol
   Vibrational Enthalpy:          4.404 kcal/mol
   gas constant (RT):             0.593 kcal/mol
   Translational Entropy:        36.671  cal/mol.K
   Rotational Entropy:          -42.776  cal/mol.K
   Vibrational Entropy:           0.000  cal/mol.K

   Total Enthalpy:                6.774 kcal/mol
   Total Entropy:                -6.105  cal/mol.K
 Total job time:  750.21s(wall), 673.47s(cpu) 
 Sun Apr 17 20:09:12 2011

        *************************************************************
        *                                                           *
        *  Thank you very much for using Q-Chem.  Have a nice day.  *
        *                                                           *
        *************************************************************


0 sent ACK to 0 
now end server 0 ... 
