Process 0 of 1 is on cl122 - thread support 1
initial socket setup ...start
initial socket setup ...done 
now start server 0 ... 

cmd = /usr/bin/ssh clhead /usr/local/qchem/bin/get_hostid 89865773 > /tmp/1601970.1.medium.q/qchem2000/lic.dat

cmd = /usr/bin/ssh clhead /usr/local/qchem/bin/get_hostid 89865773 > /tmp/1601970.1.medium.q/qchem2000/lic.dat

cmd = /usr/bin/ssh clhead /usr/local/qchem/bin/get_hostid 89865773 > /tmp/1601970.1.medium.q/qchem2000/lic.dat

cmd = /usr/bin/ssh clhead /usr/local/qchem/bin/get_hostid 89865773 > /tmp/1601970.1.medium.q/qchem2000/lic.dat

cmd = /usr/bin/ssh clhead /usr/local/qchem/bin/get_hostid 89865773 > /tmp/1601970.1.medium.q/qchem2000/lic.dat
                  Welcome to Q-Chem
     A Quantum Leap Into The Future Of Chemistry

 Y. Shao, L. Fusti-Molnar, Y. Jung, J. Kussmann, C. Ochsenfeld,
 S. T. Brown, A. T. B. Gilbert, L. V. Slipchenko,S. V. Levchenko,
 D. P. O'Neill, R. A. DiStasio Jr., R. C. Lochan, T. Wang,
 G. J. O. Beran, N. A. Besley, J. M. Herbert, C. Y. Lin,
 T. Van Voorhis, S. H. Chien, A. Sodt, R. P. Steele, 
 V. A. Rassolov, P. E. Maslen, P. P. Korambath, R. D. Adamson,
 B. Austin, J. Baker, E. F. C. Byrd, H. Dachsel, R. J. Doerksen,
 A. Dreuw, B. D. Dunietz, A. D. Dutoi, T. R. Furlani,
 S. R. Gwaltney, A. Heyden, S. Hirata, C.-P. Hsu, G. Kedziora,
 R. Z. Khaliullin, P. Klunzinger, A. M. Lee, M. S. Lee, W. Liang,
 I. Lotan, N. Nair, B. Peters, E. I. Proynov, P. A. Pieniazek, 
 Y. M. Rhee, J. Ritchie, E. Rosta, C. D. Sherrill, 
 A. C. Simmonett, J. E. Subotnik, H. L. Woodcock III,
 W. Zhang, A. T. Bell, A. K. Chakraborty, D. M. Chipman,
 F. J. Keil, A. Warshel, W. J. Hehre, H. F. Schaefer III,
 J. Kong, A. I. Krylov, P. M. W. Gill, M. Head-Gordon,
 Q-Chem, Version 3.1, Q-Chem, Inc., Pittsburgh, PA (2007).

 Additional authors for Version 3.1: 
 Z. Gan, Y. Zhao, N. E. Schultz, D. Truhlar, E. Epifanovsky and M. Oana.

 Additional authors for Version 3.2: 
 R. Baer, B. R. Brooks, D. Casanova, J.-D. Chai, C.-L. Cheng, 
 C. Cramer, D. Crittenden, A. Ghysels, G. Hawkins, E. G. Hohenstein, 
 C. Kelley, W. Kurlancheek, D. Liotard, E. Livshits, P. Manohar, 
 A. Marenich, D. Neuhauser, R. Olson, M. A. Rohrdanz, K. S. Thanthiriwatte, 
 A. J. W. Thom, V. Vanovschi, C. F. Williams, Q. Wu and Z.-Q. You. 


 Intel X86 Linux Version

 Q-chem begins on Thu Mar 20 03:10:59 2014  

 Parallel job on  1  processors
Processing $rem in /usr/local/qchem/config/preferences.

theFileMan(): MAXOPENFILES=974 MAX_SUB_FILE_NUM=16
Maximum size of a physical file is 2.0 GB, maximum size of a tmp-file is 32.0 GB


--------------------------------------------------------------
User input:
--------------------------------------------------------------

$molecule
-1,2
C         -0.00006        0.00015        0.99980
C          1.26532        0.76004        0.98857
C          1.26516       -0.76001        0.98799
C         -1.27231       -0.00021        0.25137
C         -1.25820        0.00027        1.77153
H          1.57504        1.26150        1.90176
H          1.55860        1.26345        0.07108
H          1.57486       -1.26190        1.90095
H          1.55826       -1.26313        0.07027
H         -1.57794       -0.91602       -0.24774
H         -1.57802        0.91521       -0.24839
H         -1.55535       -0.91513        2.27650
H         -1.55537        0.91578        2.27629
$end

$comment
negative
$end

$xc_functional
C PBE   1.00
X wPBE  1.00
$end

$rem
SYMMETRY_DECOMPOSITION	0
exchange 		general
LRC_DFT                 true
BASIS                   g3large
omega			330
mem_static              760
max_scf_cycles          200
scf_final_print         1
sym_ignore              true
$end

--------------------------------------------------------------
 Writing REM_CC_EA           13
 ----------------------------------------------------
       Standard Nuclear Orientation (Angstroms)
    I     Atom         X            Y            Z
 ----------------------------------------------------
    1      C      -0.000060     0.000150     0.999800
    2      C       1.265320     0.760040     0.988570
    3      C       1.265160    -0.760010     0.987990
    4      C      -1.272310    -0.000210     0.251370
    5      C      -1.258200     0.000270     1.771530
    6      H       1.575040     1.261500     1.901760
    7      H       1.558600     1.263450     0.071080
    8      H       1.574860    -1.261900     1.900950
    9      H       1.558260    -1.263130     0.070270
   10      H      -1.577940    -0.916020    -0.247740
   11      H      -1.578020     0.915210    -0.248390
   12      H      -1.555350    -0.915130     2.276500
   13      H      -1.555370     0.915780     2.276290
 ----------------------------------------------------
 Nuclear Repulsion Energy =   170.9200549349 hartrees
 There are       20 alpha and       19 beta electrons
 Requested basis set is G3large
 There are 98 shells and 290 basis functions

Total QAlloc Memory Limit   2000 MB
Mega-Array Size       743 MB
MEM_STATIC part       760 MB

                       Distance Matrix (Angstroms)
             C (  1)   C (  2)   C (  3)   C (  4)   C (  5)   H (  6)
   C (  2)  1.476057
   C (  3)  1.476064  1.520050
   C (  4)  1.476065  2.749729  2.749302
   C (  5)  1.475969  2.749260  2.749419  1.520226
   H (  6)  2.210311  1.086878  2.239979  3.524642  3.104015
   H (  7)  2.210852  1.086841  2.240808  3.105381  3.524417  1.830755
   H (  8)  2.210252  2.239753  1.086878  3.524110  3.104199  2.523400
   H (  9)  2.210942  2.241050  1.086852  3.104817  3.524615  3.119037
   H ( 10)  2.210301  3.524453  3.103963  1.086843  2.240373  4.393544
   H ( 11)  2.210265  3.104630  3.524013  1.086836  2.240419  3.832082
   H ( 12)  2.210572  3.524363  3.104770  2.240166  1.086853  3.831121
   H ( 13)  2.210609  3.104637  3.524681  2.240416  1.086854  3.171634
             H (  7)   H (  8)   H (  9)   H ( 10)   H ( 11)   H ( 12)
   H (  8)  3.118667
   H (  9)  2.526580  1.830756
   H ( 10)  3.832704  3.831012  3.171335
   H ( 11)  3.172021  4.393190  3.831835  1.831230
   H ( 12)  4.393947  3.171672  3.831856  2.524341  3.118610
   H ( 13)  3.831532  3.831646  4.394185  3.118770  2.524782  1.830910

 
 A cutoff of  1.0D-08 yielded   4435 shell pairs
 There are  39245 function pairs ( 48051 Cartesian)
Evaluating contribution to one-electron hamiltonian from nuclear
 Smallest overlap matrix eigenvalue = 2.59E-05

 Q-Chem warning in module mkSTV.C, line 194:

 Overlap eigenvalue is smaller than square root of threshold

 Multipole matrices computed through 2nd order

  Scale SEOQF with 1.000000e-01/1.000000e-01/1.000000e-01

 Standard Electronic Orientation quadrupole field applied
 Nucleus-field energy     =    -0.0000000026 hartrees
 Guess from superposition of atomic densities
 Warning:  Energy on first SCF cycle will be non-variational
 Long-range K will be added via erf
 Coulomb attenuation parameter = 0.33 bohr**(-1)
 An unrestricted Kohn-Sham SCF calculation will be
 performed using Pulay DIIS extrapolation
 Exchange:  wPBE + LR-HF      Correlation:  PBE
 Using SG-1 standard quadrature grid
 SCF converges when DIIS error is below 1.0E-05
 Requested basis set is G3large
 There are 98 shells and 290 basis functions
 A cutoff of  1.0D-08 yielded   4435 shell pairs
 There are  39245 function pairs ( 48051 Cartesian)
 Warning!  Inaccurate integrated density:
   Number of electrons =    39
   Numerical integral  =    37.999764099938
   Relative error      =    -2.5647074361 %
 ---------------------------------------
  Cycle       Energy         DIIS Error
 ---------------------------------------
    1    -197.0662326263      2.90E-02
    2    -194.9702334391      3.10E-03
    3    -195.0542463503      2.75E-03
    4    -195.1347565436      3.19E-04
    5    -195.1392403837      1.83E-04
    6    -195.1406337936      5.93E-05
    7    -195.1411034598      2.55E-05
    8    -195.1413011357      1.66E-05
    9    -195.1414281356      1.31E-05
   10    -195.1415412427      9.47E-06 Convergence criterion met
 ---------------------------------------
 One-Electron    Energy =  -604.2603818348
 Total Coulomb   Energy =   268.2948605514
 Alpha Exchange  Energy =    -3.2647694355
 Beta  Exchange  Energy =    -3.2046909869
 DFT   Exchange  Energy =   -22.3738307530
 DFT Correlation Energy =    -1.2527837164
 Nuclear Repu.   Energy =   170.9200549324
 Nuclear Attr.   Energy =  -798.5116856002
 Kinetic         Energy =   194.2513037654
 <S^2> = 0.7501
 SCF time:  CPU 454.72 s  wall 458.02 s
 Final Alpha MO Eigenvalues
            1           2           3           4           5           6
    1  -9.9555383  -9.9473452  -9.9400054  -9.9392848  -9.9387883  -0.8772851
            7           8           9          10          11          12
    1  -0.7924599  -0.5964942  -0.5920585  -0.5308857  -0.4713037  -0.4616776
           13          14          15          16          17          18
    1  -0.4570491  -0.3498672  -0.3355064  -0.3338152  -0.2658164  -0.2643356
           19          20          21          22          23          24
    1  -0.2533644   0.0334275   0.1286659   0.1287947   0.1304014   0.1584171
           25
    1   0.1585452
 Final Beta MO Eigenvalues
            1           2           3           4           5           6
    1  -9.9555502  -9.9472583  -9.9397532  -9.9390529  -9.9385406  -0.8771722
            7           8           9          10          11          12
    1  -0.7922515  -0.5958607  -0.5912336  -0.5301176  -0.4706986  -0.4614162
           13          14          15          16          17          18
    1  -0.4564649  -0.3495599  -0.3349299  -0.3334999  -0.2655410  -0.2641113
           19          20          21          22          23          24
    1  -0.2528462   0.1260689   0.1396036   0.1414123   0.1454577   0.1600621
 Analysis of SCF Wavefunction
 
 --------------------------------------------------------------
                    Orbital Energies (a.u.)
 --------------------------------------------------------------
 
 Alpha MOs
 -- Occupied --
 -9.956  -9.947  -9.940  -9.939  -9.939  -0.877  -0.792  -0.596
 -0.592  -0.531  -0.471  -0.462  -0.457  -0.350  -0.336  -0.334
 -0.266  -0.264  -0.253   0.033
 -- Virtual --
  0.129   0.129   0.130   0.158   0.159   0.163   0.180   0.190
  0.219   0.245   0.248   0.255   0.263   0.266   0.266   0.282
  0.285   0.290   0.301   0.312   0.312   0.323   0.335   0.337
  0.341   0.343   0.355   0.357   0.372   0.415   0.420   0.422
  0.450   0.466   0.473   0.480   0.506   0.536   0.537   0.547
  0.555   0.609   0.658   0.674   0.676   0.680   0.704   0.708
  0.739   0.761   0.763   0.781   0.792   0.799   0.809   0.811
  0.827   0.827   0.842   0.854   0.862   0.865   0.869   0.887
  0.919   0.973   1.014   1.014   1.021   1.039   1.066   1.093
  1.120   1.126   1.128   1.198   1.250   1.251   1.276   1.304
  1.323   1.324   1.333   1.349   1.353   1.387   1.399   1.400
  1.457   1.459   1.513   1.518   1.522   1.545   1.566   1.570
  1.590   1.595   1.618   1.625   1.629   1.665   1.668   1.685
  1.691   1.714   1.763   1.777   1.780   1.793   1.803   1.808
  1.811   1.869   1.977   2.010   2.011   2.038   2.676   2.681
  2.760   2.799   2.828   2.830   2.851   2.862   2.895   2.895
  2.901   2.951   2.988   2.989   3.036   3.092   3.105   3.106
  3.112   3.141   3.197   3.198   3.215   3.221   3.272   3.274
  3.290   3.291   3.303   3.335   3.340   3.380   3.404   3.435
  3.436   3.457   3.486   3.552   3.552   3.561   3.593   3.596
  3.647   3.649   3.658   3.676   3.707   3.707   3.753   3.753
  3.768   3.808   3.808   3.822   3.896   3.992   4.022   4.072
  4.088   4.090   4.146   4.148   4.175   4.262   4.309   4.311
  4.313   4.317   4.346   4.350   4.438   4.463   4.470   4.473
  4.551   4.554   4.558   4.566   4.569   4.609   4.611   4.700
  4.702   4.730   4.733   4.738   4.770   4.810   4.915   4.933
  5.106   5.109   5.178   5.180   5.299   5.466   5.593   5.652
  5.655   5.696   5.803   5.811   5.814   5.847   5.956   5.959
  5.989  24.240  24.262  24.514  24.518  24.588  27.615  27.675
 27.728  27.729  28.113  28.205  28.232  28.234  28.250  28.275
 28.275  28.289  28.675  28.680  29.116  40.996  41.014  41.034
 41.096  41.104  41.108  41.109  41.148  41.150  41.154  41.267
 41.273  41.273  41.279  41.281  41.292  41.314  41.327  41.373
 41.379  41.385  41.388  41.408  41.478  41.479
 
 Beta MOs
 -- Occupied --
 -9.956  -9.947  -9.940  -9.939  -9.939  -0.877  -0.792  -0.596
 -0.591  -0.530  -0.471  -0.461  -0.456  -0.350  -0.335  -0.333
 -0.266  -0.264  -0.253
 -- Virtual --
  0.126   0.140   0.141   0.145   0.160   0.166   0.168   0.183
  0.189   0.218   0.242   0.244   0.249   0.258   0.261   0.261
  0.282   0.282   0.290   0.299   0.310   0.311   0.320   0.330
  0.333   0.335   0.337   0.352   0.354   0.371   0.413   0.419
  0.421   0.448   0.465   0.472   0.476   0.504   0.533   0.534
  0.545   0.553   0.608   0.657   0.672   0.674   0.678   0.702
  0.706   0.737   0.760   0.762   0.780   0.790   0.797   0.809
  0.811   0.826   0.826   0.841   0.853   0.860   0.863   0.867
  0.886   0.918   0.973   1.014   1.014   1.021   1.039   1.066
  1.093   1.120   1.126   1.128   1.198   1.250   1.252   1.277
  1.303   1.323   1.324   1.333   1.349   1.353   1.387   1.399
  1.400   1.456   1.459   1.513   1.518   1.522   1.544   1.566
  1.570   1.590   1.594   1.617   1.625   1.629   1.665   1.667
  1.685   1.691   1.714   1.763   1.777   1.780   1.793   1.803
  1.808   1.811   1.869   1.977   2.010   2.011   2.038   2.676
  2.680   2.760   2.799   2.828   2.830   2.852   2.862   2.894
  2.895   2.901   2.951   2.988   2.989   3.036   3.092   3.105
  3.107   3.112   3.141   3.197   3.198   3.215   3.221   3.272
  3.274   3.290   3.292   3.303   3.335   3.340   3.380   3.404
  3.436   3.437   3.457   3.486   3.552   3.552   3.562   3.594
  3.596   3.647   3.649   3.658   3.677   3.707   3.707   3.753
  3.754   3.768   3.808   3.808   3.822   3.897   3.993   4.022
  4.072   4.088   4.090   4.147   4.149   4.175   4.262   4.309
  4.311   4.314   4.317   4.347   4.350   4.438   4.463   4.470
  4.473   4.551   4.555   4.559   4.567   4.570   4.610   4.611
  4.701   4.702   4.730   4.734   4.738   4.771   4.810   4.915
  4.933   5.107   5.110   5.178   5.180   5.299   5.466   5.593
  5.653   5.656   5.697   5.803   5.811   5.814   5.847   5.956
  5.959   5.989  24.240  24.262  24.514  24.518  24.588  27.615
 27.675  27.728  27.729  28.114  28.205  28.232  28.234  28.250
 28.275  28.275  28.289  28.676  28.680  29.116  40.996  41.014
 41.035  41.096  41.104  41.108  41.109  41.148  41.150  41.154
 41.267  41.273  41.273  41.279  41.281  41.292  41.314  41.327
 41.373  41.379  41.385  41.388  41.408  41.478  41.479
 --------------------------------------------------------------
 
          Ground-State Mulliken Net Atomic Charges

     Atom                 Charge (a.u.)    Spin (a.u.)
  --------------------------------------------------------
      1 C                    -3.624097       4.193722
      2 C                     3.132179      -3.482195
      3 C                    -0.315943       0.018601
      4 C                     1.612804      -1.930671
      5 C                     1.385224      -1.702882
      6 H                    -0.550522       0.651313
      7 H                    -0.599712       0.702509
      8 H                    -0.029275       0.100794
      9 H                    -0.042550       0.115720
     10 H                    -0.110282       0.181777
     11 H                    -0.915203       1.027862
     12 H                    -0.088958       0.158816
     13 H                    -0.853665       0.964636
  --------------------------------------------------------
  Sum of atomic charges =    -1.000000
  Sum of spin   charges =     1.000000

 -----------------------------------------------------------------
                    Cartesian Multipole Moments
 -----------------------------------------------------------------
    Charge (ESU x 10^10)
                -4.8032
    Dipole Moment (Debye)
         X       2.3512      Y      -7.3882      Z      -4.4290
       Tot       8.9292
    Quadrupole Moments (Debye-Ang)
        XX     -72.9889     XY       2.9030     YY     -66.2269
        XZ       2.2945     YZ      -6.9491     ZZ     -64.6192
    Octapole Moments (Debye-Ang^2)
       XXX      35.6084    XXY     -45.6741    XYY      15.4396
       YYY    -100.5484    XXZ     -70.6210    XYZ       2.8395
       YYZ     -64.0741    XZZ      13.8953    YZZ     -46.8482
       ZZZ    -180.2979
    Hexadecapole Moments (Debye-Ang^3)
      XXXX   -1046.4088   XXXY      22.1031   XXYY    -291.6759
      XYYY      27.9789   YYYY    -615.1193   XXXZ      35.0992
      XXYZ     -43.3756   XYYZ      15.4866   YYYZ     -95.8634
      XXZZ    -334.7932   XYZZ      16.1898   YYZZ    -264.5961
      XZZZ      37.5266   YZZZ    -122.4647   ZZZZ    -859.2183
 -----------------------------------------------------------------
 Total job time:  458.47s(wall), 455.12s(cpu) 
 Thu Mar 20 03:18:37 2014

        *************************************************************
        *                                                           *
        *  Thank you very much for using Q-Chem.  Have a nice day.  *
        *                                                           *
        *************************************************************


0 sent ACK to 0 
now end server 0 ... 
 
**********************************************************************
Job 2 of 3 
**********************************************************************
 
Process 0 of 1 is on cl122 - thread support 1
initial socket setup ...start
initial socket setup ...done 
now start server 0 ... 

cmd = /usr/bin/ssh clhead /usr/local/qchem/bin/get_hostid 1472525662 > /tmp/1601970.1.medium.q/qchem2000/lic.dat

cmd = /usr/bin/ssh clhead /usr/local/qchem/bin/get_hostid 1472525662 > /tmp/1601970.1.medium.q/qchem2000/lic.dat

cmd = /usr/bin/ssh clhead /usr/local/qchem/bin/get_hostid 1472525662 > /tmp/1601970.1.medium.q/qchem2000/lic.dat

cmd = /usr/bin/ssh clhead /usr/local/qchem/bin/get_hostid 1472525662 > /tmp/1601970.1.medium.q/qchem2000/lic.dat

cmd = /usr/bin/ssh clhead /usr/local/qchem/bin/get_hostid 1472525662 > /tmp/1601970.1.medium.q/qchem2000/lic.dat
                  Welcome to Q-Chem
     A Quantum Leap Into The Future Of Chemistry

 Y. Shao, L. Fusti-Molnar, Y. Jung, J. Kussmann, C. Ochsenfeld,
 S. T. Brown, A. T. B. Gilbert, L. V. Slipchenko,S. V. Levchenko,
 D. P. O'Neill, R. A. DiStasio Jr., R. C. Lochan, T. Wang,
 G. J. O. Beran, N. A. Besley, J. M. Herbert, C. Y. Lin,
 T. Van Voorhis, S. H. Chien, A. Sodt, R. P. Steele, 
 V. A. Rassolov, P. E. Maslen, P. P. Korambath, R. D. Adamson,
 B. Austin, J. Baker, E. F. C. Byrd, H. Dachsel, R. J. Doerksen,
 A. Dreuw, B. D. Dunietz, A. D. Dutoi, T. R. Furlani,
 S. R. Gwaltney, A. Heyden, S. Hirata, C.-P. Hsu, G. Kedziora,
 R. Z. Khaliullin, P. Klunzinger, A. M. Lee, M. S. Lee, W. Liang,
 I. Lotan, N. Nair, B. Peters, E. I. Proynov, P. A. Pieniazek, 
 Y. M. Rhee, J. Ritchie, E. Rosta, C. D. Sherrill, 
 A. C. Simmonett, J. E. Subotnik, H. L. Woodcock III,
 W. Zhang, A. T. Bell, A. K. Chakraborty, D. M. Chipman,
 F. J. Keil, A. Warshel, W. J. Hehre, H. F. Schaefer III,
 J. Kong, A. I. Krylov, P. M. W. Gill, M. Head-Gordon,
 Q-Chem, Version 3.1, Q-Chem, Inc., Pittsburgh, PA (2007).

 Additional authors for Version 3.1: 
 Z. Gan, Y. Zhao, N. E. Schultz, D. Truhlar, E. Epifanovsky and M. Oana.

 Additional authors for Version 3.2: 
 R. Baer, B. R. Brooks, D. Casanova, J.-D. Chai, C.-L. Cheng, 
 C. Cramer, D. Crittenden, A. Ghysels, G. Hawkins, E. G. Hohenstein, 
 C. Kelley, W. Kurlancheek, D. Liotard, E. Livshits, P. Manohar, 
 A. Marenich, D. Neuhauser, R. Olson, M. A. Rohrdanz, K. S. Thanthiriwatte, 
 A. J. W. Thom, V. Vanovschi, C. F. Williams, Q. Wu and Z.-Q. You. 


 Intel X86 Linux Version

 Q-chem begins on Thu Mar 20 03:18:45 2014  

 Parallel job on  1  processors
Processing $rem in /usr/local/qchem/config/preferences.

theFileMan(): MAXOPENFILES=974 MAX_SUB_FILE_NUM=16
Maximum size of a physical file is 2.0 GB, maximum size of a tmp-file is 32.0 GB


--------------------------------------------------------------
User input:
--------------------------------------------------------------

$molecule
0,1
C         -0.00006        0.00015        0.99980
C          1.26532        0.76004        0.98857
C          1.26516       -0.76001        0.98799
C         -1.27231       -0.00021        0.25137
C         -1.25820        0.00027        1.77153
H          1.57504        1.26150        1.90176
H          1.55860        1.26345        0.07108
H          1.57486       -1.26190        1.90095
H          1.55826       -1.26313        0.07027
H         -1.57794       -0.91602       -0.24774
H         -1.57802        0.91521       -0.24839
H         -1.55535       -0.91513        2.27650
H         -1.55537        0.91578        2.27629
$end

$comment
neutral
$end

$xc_functional
C PBE   1.00
X wPBE  1.00
$end


$rem
SYMMETRY_DECOMPOSITION	0
LRC_DFT                 true
exchange 		general
BASIS                   g3large
omega			330
mem_static              760
max_scf_cycles          200
scf_final_print         1
sym_ignore              true
$end

--------------------------------------------------------------
 Writing REM_CC_EA           13
 ----------------------------------------------------
       Standard Nuclear Orientation (Angstroms)
    I     Atom         X            Y            Z
 ----------------------------------------------------
    1      C      -0.000060     0.000150     0.999800
    2      C       1.265320     0.760040     0.988570
    3      C       1.265160    -0.760010     0.987990
    4      C      -1.272310    -0.000210     0.251370
    5      C      -1.258200     0.000270     1.771530
    6      H       1.575040     1.261500     1.901760
    7      H       1.558600     1.263450     0.071080
    8      H       1.574860    -1.261900     1.900950
    9      H       1.558260    -1.263130     0.070270
   10      H      -1.577940    -0.916020    -0.247740
   11      H      -1.578020     0.915210    -0.248390
   12      H      -1.555350    -0.915130     2.276500
   13      H      -1.555370     0.915780     2.276290
 ----------------------------------------------------
 Nuclear Repulsion Energy =   170.9200549349 hartrees
 There are       19 alpha and       19 beta electrons
 Requested basis set is G3large
 There are 98 shells and 290 basis functions

Total QAlloc Memory Limit   2000 MB
Mega-Array Size       743 MB
MEM_STATIC part       760 MB

                       Distance Matrix (Angstroms)
             C (  1)   C (  2)   C (  3)   C (  4)   C (  5)   H (  6)
   C (  2)  1.476057
   C (  3)  1.476064  1.520050
   C (  4)  1.476065  2.749729  2.749302
   C (  5)  1.475969  2.749260  2.749419  1.520226
   H (  6)  2.210311  1.086878  2.239979  3.524642  3.104015
   H (  7)  2.210852  1.086841  2.240808  3.105381  3.524417  1.830755
   H (  8)  2.210252  2.239753  1.086878  3.524110  3.104199  2.523400
   H (  9)  2.210942  2.241050  1.086852  3.104817  3.524615  3.119037
   H ( 10)  2.210301  3.524453  3.103963  1.086843  2.240373  4.393544
   H ( 11)  2.210265  3.104630  3.524013  1.086836  2.240419  3.832082
   H ( 12)  2.210572  3.524363  3.104770  2.240166  1.086853  3.831121
   H ( 13)  2.210609  3.104637  3.524681  2.240416  1.086854  3.171634
             H (  7)   H (  8)   H (  9)   H ( 10)   H ( 11)   H ( 12)
   H (  8)  3.118667
   H (  9)  2.526580  1.830756
   H ( 10)  3.832704  3.831012  3.171335
   H ( 11)  3.172021  4.393190  3.831835  1.831230
   H ( 12)  4.393947  3.171672  3.831856  2.524341  3.118610
   H ( 13)  3.831532  3.831646  4.394185  3.118770  2.524782  1.830910

 
 A cutoff of  1.0D-08 yielded   4435 shell pairs
 There are  39245 function pairs ( 48051 Cartesian)
Evaluating contribution to one-electron hamiltonian from nuclear
 Smallest overlap matrix eigenvalue = 2.59E-05

 Q-Chem warning in module mkSTV.C, line 194:

 Overlap eigenvalue is smaller than square root of threshold

 Multipole matrices computed through 2nd order

  Scale SEOQF with 1.000000e-01/1.000000e-01/1.000000e-01

 Standard Electronic Orientation quadrupole field applied
 Nucleus-field energy     =    -0.0000000026 hartrees
 Guess from superposition of atomic densities
 Warning:  Energy on first SCF cycle will be non-variational
 Long-range K will be added via erf
 Coulomb attenuation parameter = 0.33 bohr**(-1)
 A restricted Kohn-Sham SCF calculation will be
 performed using Pulay DIIS extrapolation
 Exchange:  wPBE + LR-HF      Correlation:  PBE
 Using SG-1 standard quadrature grid
 SCF converges when DIIS error is below 1.0E-05
 Requested basis set is G3large
 There are 98 shells and 290 basis functions
 A cutoff of  1.0D-08 yielded   4435 shell pairs
 There are  39245 function pairs ( 48051 Cartesian)
 ---------------------------------------
  Cycle       Energy         DIIS Error
 ---------------------------------------
    1    -197.0662326263      2.90E-02
    2    -195.0926931066      2.63E-03
    3    -195.1421366737      1.92E-03
    4    -195.1779769185      2.50E-04
    5    -195.1788305001      1.16E-04
    6    -195.1789775566      2.92E-05
    7    -195.1789921670      7.22E-06 Convergence criterion met
 ---------------------------------------
 One-Electron    Energy =  -599.6725068508
 Total Coulomb   Energy =   263.5972445228
 Alpha Exchange  Energy =    -3.2057661856
 Beta  Exchange  Energy =    -3.2057661856
 DFT   Exchange  Energy =   -22.3664660689
 DFT Correlation Energy =    -1.2457863312
 Nuclear Repu.   Energy =   170.9200549324
 Nuclear Attr.   Energy =  -793.8561719901
 Kinetic         Energy =   194.1836651393
 SCF time:  CPU 238.02 s  wall 240.35 s
 Final Alpha MO Eigenvalues
            1           2           3           4           5           6
    1 -10.0770942 -10.0638023 -10.0636259 -10.0635081 -10.0632943  -0.9988521
            7           8           9          10          11          12
    1  -0.9139419  -0.7154926  -0.7154579  -0.6518165  -0.5920232  -0.5810485
           13          14          15          16          17          18
    1  -0.5809958  -0.4709459  -0.4566953  -0.4559812  -0.3866190  -0.3865073
           19          20          21          22          23          24
    1  -0.3747270   0.0416741   0.0532250   0.0532378   0.0579286   0.0765671
 Analysis of SCF Wavefunction
 
 --------------------------------------------------------------
                    Orbital Energies (a.u.)
 --------------------------------------------------------------
 
 Alpha MOs
 -- Occupied --
-10.077 -10.064 -10.064 -10.064 -10.063  -0.999  -0.914  -0.715
 -0.715  -0.652  -0.592  -0.581  -0.581  -0.471  -0.457  -0.456
 -0.387  -0.387  -0.375
 -- Virtual --
  0.042   0.053   0.053   0.058   0.077   0.077   0.081   0.098
  0.101   0.123   0.149   0.149   0.160   0.165   0.166   0.167
  0.184   0.185   0.185   0.197   0.208   0.208   0.219   0.234
  0.236   0.238   0.239   0.246   0.246   0.260   0.305   0.305
  0.305   0.335   0.355   0.355   0.371   0.391   0.424   0.424
  0.438   0.439   0.494   0.544   0.562   0.562   0.563   0.589
  0.590   0.623   0.646   0.646   0.666   0.676   0.681   0.693
  0.693   0.709   0.709   0.726   0.736   0.747   0.747   0.752
  0.767   0.802   0.853   0.894   0.894   0.901   0.917   0.945
  0.973   0.999   1.006   1.007   1.078   1.130   1.130   1.156
  1.183   1.203   1.203   1.213   1.232   1.232   1.267   1.280
  1.280   1.338   1.338   1.393   1.400   1.400   1.425   1.448
  1.448   1.470   1.475   1.498   1.504   1.511   1.547   1.547
  1.567   1.569   1.595   1.643   1.659   1.659   1.672   1.686
  1.687   1.690   1.748   1.856   1.889   1.890   1.917   2.557
  2.558   2.639   2.679   2.708   2.709   2.730   2.740   2.773
  2.773   2.780   2.830   2.867   2.868   2.915   2.970   2.984
  2.984   2.990   3.020   3.076   3.076   3.094   3.100   3.151
  3.152   3.169   3.169   3.181   3.214   3.218   3.259   3.283
  3.314   3.314   3.335   3.365   3.431   3.431   3.440   3.473
  3.473   3.527   3.527   3.537   3.555   3.585   3.586   3.632
  3.632   3.647   3.686   3.686   3.701   3.775   3.871   3.900
  3.950   3.968   3.968   4.026   4.026   4.053   4.141   4.189
  4.189   4.192   4.195   4.227   4.227   4.317   4.342   4.349
  4.351   4.429   4.435   4.436   4.446   4.446   4.489   4.489
  4.580   4.580   4.609   4.614   4.614   4.649   4.689   4.794
  4.811   4.986   4.987   5.057   5.057   5.177   5.344   5.472
  5.532   5.533   5.575   5.687   5.687   5.691   5.725   5.836
  5.836   5.868  24.119  24.140  24.394  24.394  24.465  27.493
 27.553  27.607  27.607  27.991  28.082  28.111  28.111  28.128
 28.153  28.153  28.166  28.555  28.556  28.994  40.875  40.892
 40.912  40.976  40.984  40.984  40.986  41.027  41.030  41.030
 41.145  41.151  41.151  41.157  41.157  41.169  41.191  41.205
 41.255  41.255  41.263  41.264  41.285  41.357  41.357
 --------------------------------------------------------------
 
          Ground-State Mulliken Net Atomic Charges

     Atom                 Charge (a.u.)
  ----------------------------------------
      1 C                     0.511567
      2 C                    -0.305579
      3 C                    -0.306101
      4 C                    -0.305721
      5 C                    -0.306068
      6 H                     0.089024
      7 H                     0.088953
      8 H                     0.088978
      9 H                     0.089000
     10 H                     0.088900
     11 H                     0.089026
     12 H                     0.088979
     13 H                     0.089043
  ----------------------------------------
  Sum of atomic charges =     0.000000

 -----------------------------------------------------------------
                    Cartesian Multipole Moments
 -----------------------------------------------------------------
    Charge (ESU x 10^10)
                 0.0000
    Dipole Moment (Debye)
         X       0.0002      Y      -0.0012      Z       0.0001
       Tot       0.0012
    Quadrupole Moments (Debye-Ang)
        XX     -32.8285     XY       0.0026     YY     -30.6967
        XZ       0.0193     YZ       0.0001     ZZ     -30.7005
    Octapole Moments (Debye-Ang^2)
       XXX       0.0035    XXY       0.0011    XYY      -0.6434
       YYY      -0.0005    XXZ     -32.8090    XYZ       0.0030
       YYZ     -30.6956    XZZ       0.6829    YZZ       0.0033
       ZZZ     -92.1079
    Hexadecapole Moments (Debye-Ang^3)
      XXXX    -349.0201   XXXY       0.0152   XXYY     -67.2948
      XYYY       0.0081   YYYY    -114.9816   XXXZ       1.3342
      XXYZ      -0.0010   XYYZ      -0.3392   YYYZ      -0.0150
      XXZZ    -100.1012   XYZZ       0.0116   YYZZ     -63.4492
      XZZZ       2.7858   YZZZ      -0.0072   ZZZZ    -299.2334
 -----------------------------------------------------------------
 Total job time:  240.78s(wall), 238.40s(cpu) 
 Thu Mar 20 03:22:45 2014

        *************************************************************
        *                                                           *
        *  Thank you very much for using Q-Chem.  Have a nice day.  *
        *                                                           *
        *************************************************************


0 sent ACK to 0 
now end server 0 ... 
 
**********************************************************************
Job 3 of 3 
**********************************************************************
 
Process 0 of 1 is on cl122 - thread support 1
initial socket setup ...start
initial socket setup ...done 
now start server 0 ... 

cmd = /usr/bin/ssh clhead /usr/local/qchem/bin/get_hostid 1200983143 > /tmp/1601970.1.medium.q/qchem2000/lic.dat

cmd = /usr/bin/ssh clhead /usr/local/qchem/bin/get_hostid 1200983143 > /tmp/1601970.1.medium.q/qchem2000/lic.dat

cmd = /usr/bin/ssh clhead /usr/local/qchem/bin/get_hostid 1200983143 > /tmp/1601970.1.medium.q/qchem2000/lic.dat

cmd = /usr/bin/ssh clhead /usr/local/qchem/bin/get_hostid 1200983143 > /tmp/1601970.1.medium.q/qchem2000/lic.dat

cmd = /usr/bin/ssh clhead /usr/local/qchem/bin/get_hostid 1200983143 > /tmp/1601970.1.medium.q/qchem2000/lic.dat
                  Welcome to Q-Chem
     A Quantum Leap Into The Future Of Chemistry

 Y. Shao, L. Fusti-Molnar, Y. Jung, J. Kussmann, C. Ochsenfeld,
 S. T. Brown, A. T. B. Gilbert, L. V. Slipchenko,S. V. Levchenko,
 D. P. O'Neill, R. A. DiStasio Jr., R. C. Lochan, T. Wang,
 G. J. O. Beran, N. A. Besley, J. M. Herbert, C. Y. Lin,
 T. Van Voorhis, S. H. Chien, A. Sodt, R. P. Steele, 
 V. A. Rassolov, P. E. Maslen, P. P. Korambath, R. D. Adamson,
 B. Austin, J. Baker, E. F. C. Byrd, H. Dachsel, R. J. Doerksen,
 A. Dreuw, B. D. Dunietz, A. D. Dutoi, T. R. Furlani,
 S. R. Gwaltney, A. Heyden, S. Hirata, C.-P. Hsu, G. Kedziora,
 R. Z. Khaliullin, P. Klunzinger, A. M. Lee, M. S. Lee, W. Liang,
 I. Lotan, N. Nair, B. Peters, E. I. Proynov, P. A. Pieniazek, 
 Y. M. Rhee, J. Ritchie, E. Rosta, C. D. Sherrill, 
 A. C. Simmonett, J. E. Subotnik, H. L. Woodcock III,
 W. Zhang, A. T. Bell, A. K. Chakraborty, D. M. Chipman,
 F. J. Keil, A. Warshel, W. J. Hehre, H. F. Schaefer III,
 J. Kong, A. I. Krylov, P. M. W. Gill, M. Head-Gordon,
 Q-Chem, Version 3.1, Q-Chem, Inc., Pittsburgh, PA (2007).

 Additional authors for Version 3.1: 
 Z. Gan, Y. Zhao, N. E. Schultz, D. Truhlar, E. Epifanovsky and M. Oana.

 Additional authors for Version 3.2: 
 R. Baer, B. R. Brooks, D. Casanova, J.-D. Chai, C.-L. Cheng, 
 C. Cramer, D. Crittenden, A. Ghysels, G. Hawkins, E. G. Hohenstein, 
 C. Kelley, W. Kurlancheek, D. Liotard, E. Livshits, P. Manohar, 
 A. Marenich, D. Neuhauser, R. Olson, M. A. Rohrdanz, K. S. Thanthiriwatte, 
 A. J. W. Thom, V. Vanovschi, C. F. Williams, Q. Wu and Z.-Q. You. 


 Intel X86 Linux Version

 Q-chem begins on Thu Mar 20 03:22:50 2014  

 Parallel job on  1  processors
Processing $rem in /usr/local/qchem/config/preferences.

theFileMan(): MAXOPENFILES=974 MAX_SUB_FILE_NUM=16
Maximum size of a physical file is 2.0 GB, maximum size of a tmp-file is 32.0 GB


--------------------------------------------------------------
User input:
--------------------------------------------------------------

$molecule
1,2
C         -0.00006        0.00015        0.99980
C          1.26532        0.76004        0.98857
C          1.26516       -0.76001        0.98799
C         -1.27231       -0.00021        0.25137
C         -1.25820        0.00027        1.77153
H          1.57504        1.26150        1.90176
H          1.55860        1.26345        0.07108
H          1.57486       -1.26190        1.90095
H          1.55826       -1.26313        0.07027
H         -1.57794       -0.91602       -0.24774
H         -1.57802        0.91521       -0.24839
H         -1.55535       -0.91513        2.27650
H         -1.55537        0.91578        2.27629
$end

$comment
positive
$end

$xc_functional
C PBE   1.00
X wPBE  1.00
$end

$rem
SYMMETRY_DECOMPOSITION	0
LRC_DFT                 true
exchange 		general
BASIS                   g3large
omega			330
mem_static              760
max_scf_cycles          200
scf_final_print         1
sym_ignore              true
$end

--------------------------------------------------------------
 Writing REM_CC_EA           13
 ----------------------------------------------------
       Standard Nuclear Orientation (Angstroms)
    I     Atom         X            Y            Z
 ----------------------------------------------------
    1      C      -0.000060     0.000150     0.999800
    2      C       1.265320     0.760040     0.988570
    3      C       1.265160    -0.760010     0.987990
    4      C      -1.272310    -0.000210     0.251370
    5      C      -1.258200     0.000270     1.771530
    6      H       1.575040     1.261500     1.901760
    7      H       1.558600     1.263450     0.071080
    8      H       1.574860    -1.261900     1.900950
    9      H       1.558260    -1.263130     0.070270
   10      H      -1.577940    -0.916020    -0.247740
   11      H      -1.578020     0.915210    -0.248390
   12      H      -1.555350    -0.915130     2.276500
   13      H      -1.555370     0.915780     2.276290
 ----------------------------------------------------
 Nuclear Repulsion Energy =   170.9200549349 hartrees
 There are       19 alpha and       18 beta electrons
 Requested basis set is G3large
 There are 98 shells and 290 basis functions

Total QAlloc Memory Limit   2000 MB
Mega-Array Size       743 MB
MEM_STATIC part       760 MB

                       Distance Matrix (Angstroms)
             C (  1)   C (  2)   C (  3)   C (  4)   C (  5)   H (  6)
   C (  2)  1.476057
   C (  3)  1.476064  1.520050
   C (  4)  1.476065  2.749729  2.749302
   C (  5)  1.475969  2.749260  2.749419  1.520226
   H (  6)  2.210311  1.086878  2.239979  3.524642  3.104015
   H (  7)  2.210852  1.086841  2.240808  3.105381  3.524417  1.830755
   H (  8)  2.210252  2.239753  1.086878  3.524110  3.104199  2.523400
   H (  9)  2.210942  2.241050  1.086852  3.104817  3.524615  3.119037
   H ( 10)  2.210301  3.524453  3.103963  1.086843  2.240373  4.393544
   H ( 11)  2.210265  3.104630  3.524013  1.086836  2.240419  3.832082
   H ( 12)  2.210572  3.524363  3.104770  2.240166  1.086853  3.831121
   H ( 13)  2.210609  3.104637  3.524681  2.240416  1.086854  3.171634
             H (  7)   H (  8)   H (  9)   H ( 10)   H ( 11)   H ( 12)
   H (  8)  3.118667
   H (  9)  2.526580  1.830756
   H ( 10)  3.832704  3.831012  3.171335
   H ( 11)  3.172021  4.393190  3.831835  1.831230
   H ( 12)  4.393947  3.171672  3.831856  2.524341  3.118610
   H ( 13)  3.831532  3.831646  4.394185  3.118770  2.524782  1.830910

 
 A cutoff of  1.0D-08 yielded   4435 shell pairs
 There are  39245 function pairs ( 48051 Cartesian)
Evaluating contribution to one-electron hamiltonian from nuclear
 Smallest overlap matrix eigenvalue = 2.59E-05

 Q-Chem warning in module mkSTV.C, line 194:

 Overlap eigenvalue is smaller than square root of threshold

 Multipole matrices computed through 2nd order

  Scale SEOQF with 1.000000e-01/1.000000e-01/1.000000e-01

 Standard Electronic Orientation quadrupole field applied
 Nucleus-field energy     =    -0.0000000026 hartrees
 Guess from superposition of atomic densities
 Warning:  Energy on first SCF cycle will be non-variational
 Long-range K will be added via erf
 Coulomb attenuation parameter = 0.33 bohr**(-1)
 An unrestricted Kohn-Sham SCF calculation will be
 performed using Pulay DIIS extrapolation
 Exchange:  wPBE + LR-HF      Correlation:  PBE
 Using SG-1 standard quadrature grid
 SCF converges when DIIS error is below 1.0E-05
 Requested basis set is G3large
 There are 98 shells and 290 basis functions
 A cutoff of  1.0D-08 yielded   4435 shell pairs
 There are  39245 function pairs ( 48051 Cartesian)
 Warning!  Inaccurate integrated density:
   Number of electrons =    37
   Numerical integral  =    37.999764099938
   Relative error      =     2.7020651350 %
 ---------------------------------------
  Cycle       Energy         DIIS Error
 ---------------------------------------
    1    -197.0662326263      2.90E-02
    2    -194.7088209788      2.44E-03
    3    -194.7545003491      2.04E-03
    4    -194.7964579589      2.99E-04
    5    -194.7993001975      1.21E-04
    6    -194.8001292755      5.98E-05
    7    -194.8007072321      4.78E-05
    8    -194.8011558338      3.76E-05
    9    -194.8016565926      3.74E-05
   10    -194.8019549238      3.48E-05
   11    -194.8023780096      3.40E-05
   12    -194.8027689356      3.30E-05
   13    -194.8029300392      3.25E-05
   14    -194.8047746621      4.66E-05
   15    -194.8055615932      7.33E-05
   16    -194.8052354699      3.08E-05
   17    -194.8064775226      1.21E-04
   18    -194.8067503932      1.57E-04
   19    -194.8066265440      1.94E-04
   20    -194.8070196887      1.98E-04
   21    -194.8073361466      1.65E-04
   22    -194.8075769296      1.18E-04
   23    -194.8078559170      7.06E-05
   24    -194.8078842427      4.22E-05
   25    -194.8078457894      7.68E-05
   26    -194.8078764271      6.08E-05
   27    -194.8079041192      4.05E-05
   28    -194.8079570957      1.99E-05
   29    -194.8079622861      8.80E-07 Convergence criterion met
 ---------------------------------------
 One-Electron    Energy =  -590.5634203863
 Total Coulomb   Energy =   254.5318069636
 Alpha Exchange  Energy =    -3.2182936868
 Beta  Exchange  Energy =    -3.0326577382
 DFT   Exchange  Energy =   -22.2382416640
 DFT Correlation Energy =    -1.2072107066
 Nuclear Repu.   Energy =   170.9200549324
 Nuclear Attr.   Energy =  -784.6107550440
 Kinetic         Energy =   194.0473346577
 <S^2> = 0.7583
 SCF time:  CPU 1279.87 s  wall 1286.18 s
 Final Alpha MO Eigenvalues
            1           2           3           4           5           6
    1 -10.3258325 -10.3182166 -10.3180725 -10.3178801 -10.3176567  -1.2511400
            7           8           9          10          11          12
    1  -1.1691771  -0.9511649  -0.9511150  -0.8893341  -0.8268255  -0.8134167
           13          14          15          16          17          18
    1  -0.8133826  -0.7138802  -0.6963209  -0.6816161  -0.6382425  -0.6270938
           19          20          21          22          23          24
    1  -0.6269819  -0.0899096  -0.0815989  -0.0815833  -0.0732190  -0.0507912
 Final Beta MO Eigenvalues
            1           2           3           4           5           6
    1 -10.3257014 -10.3141732 -10.3140431 -10.3138906 -10.3136908  -1.2414740
            7           8           9          10          11          12
    1  -1.1525960  -0.9374799  -0.9374384  -0.8750072  -0.8201161  -0.8100890
           13          14          15          16          17          18
    1  -0.8100556  -0.6937950  -0.6789496  -0.6512973  -0.6192265  -0.6190502
           19          20          21          22          23
    1  -0.3683024  -0.0886446  -0.0784753  -0.0784570  -0.0717376
 Analysis of SCF Wavefunction
 
 --------------------------------------------------------------
                    Orbital Energies (a.u.)
 --------------------------------------------------------------
 
 Alpha MOs
 -- Occupied --
-10.326 -10.318 -10.318 -10.318 -10.318  -1.251  -1.169  -0.951
 -0.951  -0.889  -0.827  -0.813  -0.813  -0.714  -0.696  -0.682
 -0.638  -0.627  -0.627
 -- Virtual --
 -0.090  -0.082  -0.082  -0.073  -0.051  -0.051  -0.043  -0.034
 -0.028  -0.012  -0.012  -0.005   0.014   0.018   0.020   0.021
  0.036   0.036   0.044   0.049   0.058   0.058   0.073   0.075
  0.075   0.086   0.093   0.093   0.095   0.100   0.116   0.116
  0.125   0.155   0.170   0.171   0.183   0.208   0.232   0.237
  0.238   0.274   0.303   0.359   0.370   0.378   0.378   0.393
  0.393   0.426   0.447   0.447   0.457   0.471   0.490   0.492
  0.492   0.506   0.506   0.528   0.542   0.554   0.561   0.562
  0.564   0.618   0.635   0.687   0.687   0.701   0.720   0.727
  0.764   0.788   0.800   0.800   0.881   0.929   0.930   0.952
  0.969   0.991   1.000   1.000   1.028   1.028   1.071   1.071
  1.072   1.125   1.125   1.184   1.191   1.191   1.200   1.233
  1.234   1.259   1.261   1.287   1.289   1.311   1.342   1.342
  1.359   1.366   1.393   1.433   1.454   1.454   1.464   1.481
  1.481   1.483   1.533   1.621   1.663   1.663   1.699   2.321
  2.321   2.385   2.460   2.470   2.485   2.485   2.516   2.529
  2.529   2.559   2.582   2.635   2.635   2.679   2.719   2.743
  2.744   2.746   2.773   2.843   2.843   2.853   2.858   2.907
  2.908   2.927   2.928   2.928   2.982   2.994   3.017   3.047
  3.081   3.081   3.102   3.127   3.194   3.194   3.211   3.230
  3.230   3.289   3.289   3.296   3.308   3.340   3.350   3.396
  3.396   3.416   3.447   3.447   3.472   3.538   3.640   3.660
  3.704   3.738   3.738   3.786   3.786   3.816   3.907   3.958
  3.958   3.959   3.964   3.998   3.999   4.092   4.116   4.126
  4.129   4.192   4.194   4.195   4.216   4.217   4.255   4.255
  4.344   4.344   4.379   4.384   4.384   4.407   4.451   4.550
  4.574   4.743   4.744   4.821   4.821   4.948   5.105   5.240
  5.284   5.285   5.345   5.461   5.461   5.465   5.499   5.601
  5.601   5.624  23.870  23.887  24.140  24.140  24.214  27.233
 27.293  27.355  27.355  27.739  27.830  27.858  27.858  27.876
 27.899  27.899  27.915  28.304  28.304  28.743  40.623  40.634
 40.658  40.721  40.728  40.728  40.731  40.772  40.773  40.775
 40.895  40.895  40.895  40.900  40.900  40.911  40.937  40.948
 41.003  41.003  41.011  41.013  41.028  41.104  41.104
 
 Beta MOs
 -- Occupied --
-10.326 -10.314 -10.314 -10.314 -10.314  -1.241  -1.153  -0.937
 -0.937  -0.875  -0.820  -0.810  -0.810  -0.694  -0.679  -0.651
 -0.619  -0.619
 -- Virtual --
 -0.368  -0.089  -0.078  -0.078  -0.072  -0.049  -0.049  -0.042
 -0.034  -0.027  -0.005  -0.002  -0.002   0.015   0.021   0.022
  0.022   0.037   0.037   0.046   0.052   0.059   0.060   0.074
  0.082   0.082   0.088   0.094   0.094   0.096   0.101   0.123
  0.123   0.132   0.156   0.172   0.173   0.194   0.212   0.239
  0.241   0.242   0.276   0.306   0.363   0.370   0.381   0.381
  0.398   0.398   0.435   0.454   0.454   0.470   0.482   0.491
  0.497   0.497   0.507   0.507   0.534   0.547   0.560   0.565
  0.566   0.568   0.620   0.640   0.691   0.691   0.703   0.720
  0.738   0.771   0.797   0.804   0.804   0.880   0.932   0.932
  0.955   0.970   1.000   1.003   1.003   1.029   1.029   1.074
  1.079   1.079   1.132   1.132   1.188   1.196   1.196   1.210
  1.244   1.245   1.266   1.269   1.292   1.293   1.314   1.345
  1.345   1.363   1.368   1.397   1.437   1.456   1.457   1.466
  1.482   1.482   1.487   1.538   1.632   1.668   1.668   1.700
  2.331   2.331   2.404   2.462   2.488   2.488   2.498   2.523
  2.537   2.537   2.562   2.599   2.640   2.640   2.685   2.736
  2.754   2.754   2.762   2.785   2.850   2.850   2.865   2.868
  2.918   2.919   2.942   2.942   2.946   2.986   2.996   3.025
  3.052   3.090   3.090   3.105   3.134   3.205   3.205   3.216
  3.244   3.244   3.301   3.302   3.305   3.330   3.349   3.356
  3.405   3.405   3.424   3.456   3.456   3.472   3.547   3.643
  3.670   3.716   3.741   3.742   3.796   3.796   3.824   3.911
  3.962   3.962   3.966   3.969   4.004   4.004   4.098   4.122
  4.127   4.132   4.201   4.206   4.209   4.222   4.222   4.262
  4.262   4.351   4.351   4.385   4.391   4.391   4.414   4.458
  4.558   4.582   4.750   4.750   4.827   4.827   4.951   5.114
  5.241   5.298   5.299   5.350   5.463   5.463   5.467   5.502
  5.605   5.605   5.630  23.871  23.892  24.145  24.145  24.217
 27.245  27.305  27.358  27.358  27.742  27.833  27.862  27.862
 27.879  27.905  27.905  27.917  28.307  28.307  28.747  40.625
 40.642  40.662  40.727  40.734  40.735  40.737  40.778  40.780
 40.780  40.896  40.902  40.902  40.908  40.908  40.920  40.942
 40.955  41.005  41.005  41.013  41.014  41.036  41.108  41.108
 --------------------------------------------------------------
 
          Ground-State Mulliken Net Atomic Charges

     Atom                 Charge (a.u.)    Spin (a.u.)
  --------------------------------------------------------
      1 C                     0.433173      -0.080790
      2 C                    -0.170240       0.281860
      3 C                    -0.167340       0.283684
      4 C                    -0.169194       0.280563
      5 C                    -0.168757       0.285156
      6 H                     0.155445      -0.006118
      7 H                     0.155178      -0.006399
      8 H                     0.155236      -0.006239
      9 H                     0.155283      -0.006519
     10 H                     0.155224      -0.006099
     11 H                     0.155280      -0.006137
     12 H                     0.155381      -0.006452
     13 H                     0.155331      -0.006511
  --------------------------------------------------------
  Sum of atomic charges =     1.000000
  Sum of spin   charges =     1.000000

 -----------------------------------------------------------------
                    Cartesian Multipole Moments
 -----------------------------------------------------------------
    Charge (ESU x 10^10)
                 4.8032
    Dipole Moment (Debye)
         X      -0.0009      Y      -0.0015      Z       4.8077
       Tot       4.8077
    Quadrupole Moments (Debye-Ang)
        XX     -18.1561     XY      -0.0013     YY     -23.8211
        XZ      -0.0600     YZ       0.0010     ZZ     -19.0120
    Octapole Moments (Debye-Ang^2)
       XXX       0.0011    XXY      -0.0009    XYY       2.3200
       YYY      -0.0040    XXZ     -18.1877    XYZ      -0.0008
       YYZ     -23.8435    XZZ      -2.4369    YZZ       0.0017
       ZZZ     -66.5800
    Hexadecapole Moments (Debye-Ang^3)
      XXXX    -273.9283   XXXY      -0.0082   XXYY     -48.3039
      XYYY      -0.0002   YYYY     -91.1920   XXXZ       1.1285
      XXYZ      -0.0006   XYYZ       2.5392   YYYZ      -0.0157
      XXZZ     -66.5411   XYZZ      -0.0022   YYZZ     -46.5610
      XZZZ      -6.6356   YZZZ      -0.0116   ZZZZ    -229.0332
 -----------------------------------------------------------------
 Total job time:  1286.61s(wall), 1280.25s(cpu) 
 Thu Mar 20 03:44:16 2014

        *************************************************************
        *                                                           *
        *  Thank you very much for using Q-Chem.  Have a nice day.  *
        *                                                           *
        *************************************************************


0 sent ACK to 0 
now end server 0 ... 
