Process 0 of 1 is on cl247.stfx.acenet.ca - thread support 1
initial socket setup ...start
initial socket setup ...done 
now start server 0 ... 

cmd = /usr/bin/ssh clhead /usr/local/qchem/bin/get_hostid 879053806 > /scratch/tmp/4506624.1.long.q/qchem16838/lic.dat
                  Welcome to Q-Chem
     A Quantum Leap Into The Future Of Chemistry

 Y. Shao, L. Fusti-Molnar, Y. Jung, J. Kussmann, C. Ochsenfeld,
 S. T. Brown, A. T. B. Gilbert, L. V. Slipchenko,S. V. Levchenko,
 D. P. O'Neill, R. A. DiStasio Jr., R. C. Lochan, T. Wang,
 G. J. O. Beran, N. A. Besley, J. M. Herbert, C. Y. Lin,
 T. Van Voorhis, S. H. Chien, A. Sodt, R. P. Steele, 
 V. A. Rassolov, P. E. Maslen, P. P. Korambath, R. D. Adamson,
 B. Austin, J. Baker, E. F. C. Byrd, H. Dachsel, R. J. Doerksen,
 A. Dreuw, B. D. Dunietz, A. D. Dutoi, T. R. Furlani,
 S. R. Gwaltney, A. Heyden, S. Hirata, C.-P. Hsu, G. Kedziora,
 R. Z. Khaliullin, P. Klunzinger, A. M. Lee, M. S. Lee, W. Liang,
 I. Lotan, N. Nair, B. Peters, E. I. Proynov, P. A. Pieniazek, 
 Y. M. Rhee, J. Ritchie, E. Rosta, C. D. Sherrill, 
 A. C. Simmonett, J. E. Subotnik, H. L. Woodcock III,
 W. Zhang, A. T. Bell, A. K. Chakraborty, D. M. Chipman,
 F. J. Keil, A. Warshel, W. J. Hehre, H. F. Schaefer III,
 J. Kong, A. I. Krylov, P. M. W. Gill, M. Head-Gordon,
 Q-Chem, Version 3.1, Q-Chem, Inc., Pittsburgh, PA (2007).

 Additional authors for Version 3.1: 
 Z. Gan, Y. Zhao, N. E. Schultz, D. Truhlar, E. Epifanovsky and M. Oana.

 Additional authors for Version 3.2: 
 R. Baer, B. R. Brooks, D. Casanova, J.-D. Chai, C.-L. Cheng, 
 C. Cramer, D. Crittenden, A. Ghysels, G. Hawkins, E. G. Hohenstein, 
 C. Kelley, W. Kurlancheek, D. Liotard, E. Livshits, P. Manohar, 
 A. Marenich, D. Neuhauser, R. Olson, M. A. Rohrdanz, K. S. Thanthiriwatte, 
 A. J. W. Thom, V. Vanovschi, C. F. Williams, Q. Wu and Z.-Q. You. 


 Intel X86 Linux Version

 Q-chem begins on Sat Apr 23 14:50:07 2011  

 Parallel job on  1  processors
Processing $rem in /usr/local/qchem/config/preferences.

theFileMan(): MAXOPENFILES=974 MAX_SUB_FILE_NUM=16
Maximum size of a physical file is 2.0 GB, maximum size of a tmp-file is 32.0 GB


--------------------------------------------------------------
User input:
--------------------------------------------------------------

$molecule
0,1
C
C,1,CDC
C,2,CSC,1,CCC
C,3,CDC,2,CCC,1,180.,0
H,1,CH1,2,CC1,3,180.,0
H,1,CH2,2,CC2,3,0.,0
H,2,CH3,1,CC3,3,180.,0
H,3,CH3,4,CC3,2,180.,0
H,4,CH2,3,CC2,2,0.,0
H,4,CH1,3,CC1,2,180.,0

CDC=1.34054111
CSC=1.45747113
CH1=1.08576026
CH2=1.08793795
CH3=1.09045613
CCC=124.31048212
CC1=121.82705922
CC2=121.53880082
CC3=119.43908311

$end

$comment
neutral
$end

$xc_functional
   X HF 1.0
   X BNL 1.0
   C LYP 1.0
$end

$rem
SYMMETRY_DECOMPOSITION	0
exchange 		general
BASIS                   g3large
omega			330 
JOBTYPE                 opt
separate_jk		true
mem_static              760
max_scf_cycles          200
scf_final_print         1
sym_ignore              true
$end


--------------------------------------------------------------
 Writing REM_CC_EA           10
 ----------------------------------------------------
       Standard Nuclear Orientation (Angstroms)
    I     Atom         X            Y            Z
 ----------------------------------------------------
    1      C       0.000000     0.000000     0.000000
    2      C       0.000000     0.000000     1.340541
    3      C       1.203864     0.000000     2.162084
    4      C       1.203864     0.000000     3.502625
    5      H      -0.922509     0.000000    -0.572583
    6      H       0.927234     0.000000    -0.569074
    7      H      -0.949655     0.000000     1.876498
    8      H       2.153519     0.000000     1.626127
    9      H       0.276630     0.000000     4.071699
   10      H       2.126374     0.000000     4.075209
 ----------------------------------------------------
 Nuclear Repulsion Energy =   103.5493734646 hartrees
 There are       15 alpha and       15 beta electrons
 Requested basis set is G3large
 There are 76 shells and 228 basis functions

Total QAlloc Memory Limit   2000 MB
Mega-Array Size       743 MB
MEM_STATIC part       760 MB
 A cutoff of  1.0D-11 yielded   2753 shell pairs
 There are  24850 function pairs ( 30433 Cartesian)
Evaluating contribution to one-electron hamiltonian from nuclear
 Smallest overlap matrix eigenvalue = 1.24E-05
 Multipole matrices computed through 2nd order

  Scale SEOQF with 1.000000e-01/1.000000e-01/1.000000e-01

 Standard Electronic Orientation quadrupole field applied
 Nucleus-field energy     =    -0.0000000153 hartrees
 Guess from superposition of atomic densities
 Warning:  Energy on first SCF cycle will be non-variational
 A restricted hybrid HF-DFT SCF calculation will be
 performed using Pulay DIIS extrapolation
 Exchange:     1.0000 Hartree-Fock + 1.0000 BNL
 Correlation:  1.0000 LYP
 Using SG-1 standard quadrature grid
 SCF converges when DIIS error is below 1.0E-08
 ---------------------------------------
  Cycle       Energy         DIIS Error
 ---------------------------------------
    1    -155.0097887759      2.96E-02
    2    -153.9977556771      2.66E-03
    3    -154.0363698771      1.60E-03
    4    -154.0532897042      2.43E-04
    5    -154.0541754982      1.29E-04
    6    -154.0543119607      4.73E-05
    7    -154.0543417558      7.36E-06
    8    -154.0543432014      1.54E-06
    9    -154.0543433360      3.61E-07
   10    -154.0543432563      7.80E-08
   11    -154.0543432637      1.38E-08
   12    -154.0543432628      3.37E-09 Convergence criterion met
 ---------------------------------------
 One-Electron    Energy =  -412.8295341485
 Total Coulomb   Energy =   176.9943982404
 Alpha Exchange  Energy =    -2.5177346354
 Beta  Exchange  Energy =    -2.5177346354
 DFT   Exchange  Energy =   -15.7702199918
 DFT Correlation Energy =    -0.9628915414
 Nuclear Repu.   Energy =   103.5493734493
 Nuclear Attr.   Energy =  -565.9719754724
 Kinetic         Energy =   153.1424413240
 SCF time:  CPU 215.76 s  wall 217.61 s
 Final Alpha MO Eigenvalues
            1           2           3           4           5           6
    1  -9.9468551  -9.9466810  -9.9361113  -9.9361012  -0.9122143  -0.8380132
            7           8           9          10          11          12
    1  -0.7084025  -0.6582856  -0.5715844  -0.5678370  -0.4932459  -0.4816131
           13          14          15          16          17          18
    1  -0.4413860  -0.4390995  -0.3351144   0.0314936   0.0339032   0.0449288
           19          20
    1   0.0462076   0.0661511
 Analysis of SCF Wavefunction
 
 --------------------------------------------------------------
                    Orbital Energies (a.u.)
 --------------------------------------------------------------
 
 Alpha MOs
 -- Occupied --
 -9.947  -9.947  -9.936  -9.936  -0.912  -0.838  -0.708  -0.658
 -0.572  -0.568  -0.493  -0.482  -0.441  -0.439  -0.335
 -- Virtual --
  0.031   0.034   0.045   0.046   0.066   0.073   0.092   0.094
  0.109   0.124   0.140   0.142   0.157   0.175   0.177   0.177
  0.183   0.184   0.192   0.203   0.208   0.223   0.229   0.247
  0.284   0.284   0.308   0.323   0.341   0.385   0.439   0.441
  0.477   0.530   0.531   0.594   0.597   0.599   0.605   0.607
  0.611   0.636   0.636   0.641   0.682   0.692   0.699   0.710
  0.740   0.745   0.771   0.778   0.789   0.794   0.835   0.841
  0.849   0.859   0.879   0.930   1.008   1.010   1.046   1.075
  1.095   1.100   1.112   1.133   1.137   1.176   1.286   1.287
  1.300   1.306   1.307   1.352   1.380   1.440   1.467   1.520
  1.526   1.559   1.572   1.576   1.601   1.620   1.627   1.707
  1.730   1.794   1.920   1.970   2.113   2.554   2.590   2.650
  2.657   2.672   2.674   2.745   2.750   2.767   2.777   2.795
  2.798   2.850   2.867   2.916   2.948   2.973   2.981   2.992
  3.061   3.106   3.111   3.120   3.152   3.155   3.207   3.250
  3.259   3.287   3.296   3.317   3.333   3.355   3.358   3.391
  3.437   3.444   3.457   3.474   3.482   3.522   3.595   3.599
  3.631   3.741   3.768   3.769   3.841   3.843   3.863   3.879
  3.964   4.017   4.020   4.146   4.168   4.185   4.193   4.225
  4.284   4.306   4.316   4.379   4.388   4.471   4.527   4.607
  4.622   4.641   4.730   4.754   4.826   4.884   4.987   5.102
  5.240   5.348   5.472   5.607   5.673   5.849   5.853   6.008
  6.060  24.166  24.191  24.742  24.959  27.258  27.320  27.496
 27.523  27.967  28.186  28.226  28.247  28.290  28.423  28.469
 28.810  40.802  40.833  40.909  40.925  40.935  40.964  41.156
 41.163  41.182  41.190  41.206  41.219  41.226  41.259  41.275
 41.276  41.296  41.335  41.387  41.429
 --------------------------------------------------------------
 
          Ground-State Mulliken Net Atomic Charges

     Atom                 Charge (a.u.)
  ----------------------------------------
      1 C                    -0.454301
      2 C                     0.053337
      3 C                     0.053337
      4 C                    -0.454301
      5 H                     0.141890
      6 H                     0.123868
      7 H                     0.135205
      8 H                     0.135205
      9 H                     0.123868
     10 H                     0.141890
  ----------------------------------------
  Sum of atomic charges =     0.000000

 -----------------------------------------------------------------
                    Cartesian Multipole Moments
 -----------------------------------------------------------------
    Charge (ESU x 10^10)
                 0.0000
    Dipole Moment (Debye)
         X       0.0000      Y       0.0000      Z       0.0000
       Tot       0.0000
    Quadrupole Moments (Debye-Ang)
        XX     -23.6022     XY       0.0000     YY     -29.7539
        XZ      -0.1527     YZ       0.0000     ZZ     -23.5657
    Octapole Moments (Debye-Ang^2)
       XXX     -42.6207    XXY       0.0000    XYY     -17.9098
       YYY       0.0000    XXZ     -41.5186    XYZ       0.0000
       YYZ     -52.1084    XZZ     -14.7197    YZZ       0.0000
       ZZZ    -123.8125
    Hexadecapole Moments (Debye-Ang^3)
      XXXX    -163.1759   XXXY       0.0000   XXYY     -39.9707
      XYYY       0.0000   YYYY     -38.2166   XXXZ    -123.6737
      XXYZ       0.0000   XYYZ     -52.6690   YYYZ       0.0000
      XXZZ    -148.2416   XYZZ       0.0000   YYZZ    -162.4483
      XZZZ    -124.7398   YZZZ       0.0000   ZZZZ    -755.9968
 -----------------------------------------------------------------
 Calculating analytic gradient of the SCF energy
 Gradient of AOints
            1           2           3           4           5           6
    1   0.8933684   3.4977454  -3.4977454  -0.8933683   2.7352458  -2.5967090
    2   0.0000012   0.0000015  -0.0000016  -0.0000010  -0.0000002  -0.0000003
    3   8.1602269  -2.7956154   2.7956154  -8.1602269   1.9455595   2.0940850
            7           8           9          10
    1   3.3967482  -3.3967481   2.5967090  -2.7352458
    2  -0.0000001   0.0000001   0.0000004   0.0000000
    3  -1.4216986   1.4216986  -2.0940850  -1.9455595
 Gradient of XC Energy
            1           2           3           4           5           6
    1   0.0052370  -0.0226960   0.0226960  -0.0052370  -0.1438294   0.1404836
    2  -0.0000000  -0.0000000   0.0000000   0.0000000   0.0000000   0.0000000
    3  -0.1242393   0.1138892  -0.1138892   0.1242393  -0.0880006  -0.0855848
            7           8           9          10
    1  -0.1460322   0.1460322  -0.1404836   0.1438294
    2   0.0000000  -0.0000000  -0.0000000   0.0000000
    3   0.0739911  -0.0739911   0.0855848   0.0880006
 Gradient of SCF Energy
            1           2           3           4           5           6
    1  -0.0008987  -0.0064580   0.0064580   0.0008987   0.0053475  -0.0056559
    2  -0.0000000   0.0000000  -0.0000000   0.0000000  -0.0000000  -0.0000000
    3  -0.0227981   0.0165981  -0.0165981   0.0227981   0.0017532   0.0016079
            7           8           9          10
    1   0.0048292  -0.0048292   0.0056559  -0.0053475
    2   0.0000000  -0.0000000   0.0000000   0.0000000
    3  -0.0025518   0.0025518  -0.0016079  -0.0017532
 Max gradient component =       2.280E-02
 RMS gradient           =       7.890E-03
 Gradient time:  CPU 93.88 s  wall 94.38 s
 Geometry Optimization Parameters
   NAtoms,    NIC,     NZ,  NCons,   NDum,   NFix, NCnnct, MaxDiis
       10      53      10       0       0       0       0       0


** GEOMETRY OPTIMIZATION IN DELOCALIZED INTERNAL COORDINATES **
   Searching for a Minimum

   Optimization Cycle:   1

                       Coordinates (Angstroms)
     ATOM              X           Y           Z
    1  C           0.000000    0.000000    0.000000
    2  C           0.000000    0.000000    1.340541
    3  C           1.203864    0.000000    2.162084
    4  C           1.203864    0.000000    3.502625
    5  H          -0.922509    0.000000   -0.572583
    6  H           0.927234    0.000000   -0.569074
    7  H          -0.949655    0.000000    1.876498
    8  H           2.153519    0.000000    1.626127
    9  H           0.276630    0.000000    4.071699
   10  H           2.126374    0.000000    4.075209
   Point Group: c1    Number of degrees of freedom:  24


   Energy is   -154.054343263


 Attempting to Generate Delocalized Internal Coordinates

 17 Hessian modes will be used to form the next step
  Hessian Eigenvalues:
     0.160000    0.160000    0.160000    0.160000    0.160000    0.160000
     0.220000    0.220000    0.347600    0.347600    0.350520    0.350520
     0.353072    0.353072    0.372827    0.570839    0.570839

 Minimum Search - Taking Simple RFO Step
 Searching for Lamda that Minimizes Along All modes
 Value Taken    Lamda =  -0.00207809
 Step Taken.  Stepsize is  0.069566

                             Maximum     Tolerance    Cnvgd?
         Gradient           0.018300      0.000300      NO
         Displacement       0.044231      0.001200      NO
         Energy change     *********      0.000001      NO


 New Cartesian Coordinates Obtained by Inverse Iteration

 Displacement from previous Coordinates is:  0.136736
 Writing REM_CC_EA           10
 ----------------------------------------------------
       Standard Nuclear Orientation (Angstroms)
    I     Atom         X            Y            Z
 ----------------------------------------------------
    1      C       0.005992     0.000000     0.024307
    2      C       0.000293     0.000000     1.346884
    3      C       1.203571     0.000000     2.155742
    4      C       1.197873     0.000000     3.478319
    5      H      -0.923546     0.000000    -0.552400
    6      H       0.947363     0.000000    -0.537826
    7      H      -0.956353     0.000000     1.887262
    8      H       2.160217     0.000000     1.615363
    9      H       0.256501     0.000000     4.040451
   10      H       2.127410     0.000000     4.055026
 ----------------------------------------------------
 Nuclear Repulsion Energy =   104.2727570585 hartrees
 There are       15 alpha and       15 beta electrons
 Applying Cartesian multipole field
    Component          Value
    ---------          -----
     (2,0,0)        1.00000E-11
     (0,2,0)        2.00000E-11
     (0,0,2)       -3.00000E-11
 Nucleus-field energy     =    -0.0000000151 hartrees
 Requested basis set is G3large
 There are 76 shells and 228 basis functions
 A cutoff of  1.0D-11 yielded   2757 shell pairs
 There are  24862 function pairs ( 30445 Cartesian)
Evaluating contribution to one-electron hamiltonian from nuclear
 Smallest overlap matrix eigenvalue = 1.12E-05
 Multipole matrices computed through 2nd order
 Guess MOs from SCF MO coefficient file
Reading MOs from coefficient file
Reading MOs from coefficient file
 A restricted hybrid HF-DFT SCF calculation will be
 performed using Pulay DIIS extrapolation
 Exchange:     1.0000 Hartree-Fock + 1.0000 BNL
 Correlation:  1.0000 LYP
 Using SG-1 standard quadrature grid
 SCF converges when DIIS error is below 1.0E-08
 ---------------------------------------
  Cycle       Energy         DIIS Error
 ---------------------------------------
    1    -154.0377639369      7.35E-04
    2    -154.0552555336      7.22E-05
    3    -154.0552739581      5.76E-05
    4    -154.0552925101      1.34E-05
    5    -154.0552935676      2.52E-06
    6    -154.0552936823      1.04E-06
    7    -154.0552936790      1.48E-07
    8    -154.0552936923      2.85E-08
    9    -154.0552937031      6.67E-09 Convergence criterion met
 ---------------------------------------
 One-Electron    Energy =  -414.2876533138
 Total Coulomb   Energy =   177.7412677004
 Alpha Exchange  Energy =    -2.5183180248
 Beta  Exchange  Energy =    -2.5183180248
 DFT   Exchange  Energy =   -15.7811764099
 DFT Correlation Energy =    -0.9638526736
 Nuclear Repu.   Energy =   104.2727570434
 Nuclear Attr.   Energy =  -567.4922622028
 Kinetic         Energy =   153.2046088891
 SCF time:  CPU 167.28 s  wall 168.55 s
 Final Alpha MO Eigenvalues
            1           2           3           4           5           6
    1  -9.9435100  -9.9433252  -9.9342013  -9.9341935  -0.9160744  -0.8405232
            7           8           9          10          11          12
    1  -0.7045120  -0.6570529  -0.5711101  -0.5687897  -0.4927203  -0.4782175
           13          14          15          16          17          18
    1  -0.4449893  -0.4371871  -0.3374129   0.0340279   0.0358956   0.0447491
           19          20
    1   0.0461374   0.0663573
 Analysis of SCF Wavefunction
 
 --------------------------------------------------------------
                    Orbital Energies (a.u.)
 --------------------------------------------------------------
 
 Alpha MOs
 -- Occupied --
 -9.944  -9.943  -9.934  -9.934  -0.916  -0.841  -0.705  -0.657
 -0.571  -0.569  -0.493  -0.478  -0.445  -0.437  -0.337
 -- Virtual --
  0.034   0.036   0.045   0.046   0.066   0.074   0.092   0.095
  0.109   0.124   0.139   0.142   0.157   0.174   0.176   0.178
  0.184   0.184   0.193   0.207   0.208   0.223   0.230   0.245
  0.283   0.284   0.307   0.322   0.342   0.383   0.440   0.449
  0.480   0.530   0.532   0.592   0.595   0.596   0.605   0.607
  0.610   0.635   0.635   0.642   0.682   0.693   0.699   0.714
  0.740   0.750   0.771   0.780   0.793   0.795   0.837   0.848
  0.857   0.861   0.885   0.932   0.998   1.004   1.048   1.073
  1.095   1.097   1.112   1.132   1.138   1.185   1.286   1.294
  1.303   1.306   1.313   1.358   1.383   1.443   1.471   1.518
  1.524   1.553   1.573   1.574   1.598   1.617   1.623   1.712
  1.736   1.812   1.922   1.977   2.095   2.568   2.604   2.647
  2.669   2.673   2.677   2.749   2.752   2.765   2.773   2.799
  2.802   2.841   2.866   2.908   2.950   2.979   2.981   3.001
  3.055   3.108   3.110   3.111   3.156   3.165   3.210   3.252
  3.265   3.295   3.303   3.309   3.348   3.362   3.365   3.396
  3.441   3.460   3.464   3.472   3.488   3.528   3.596   3.612
  3.626   3.752   3.767   3.781   3.838   3.857   3.861   3.883
  3.965   4.028   4.037   4.126   4.162   4.178   4.186   4.232
  4.276   4.301   4.310   4.391   4.394   4.479   4.539   4.626
  4.628   4.663   4.778   4.783   4.865   4.905   4.990   5.111
  5.241   5.335   5.488   5.572   5.638   5.848   5.859   6.018
  6.077  24.152  24.156  24.799  25.023  27.264  27.325  27.506
 27.536  27.994  28.190  28.237  28.288  28.336  28.419  28.447
 28.800  40.800  40.830  40.908  40.923  40.935  40.969  41.156
 41.164  41.183  41.192  41.210  41.224  41.253  41.278  41.292
 41.292  41.292  41.339  41.393  41.444
 --------------------------------------------------------------
 
          Ground-State Mulliken Net Atomic Charges

     Atom                 Charge (a.u.)
  ----------------------------------------
      1 C                    -0.454507
      2 C                     0.064733
      3 C                     0.064733
      4 C                    -0.454507
      5 H                     0.138910
      6 H                     0.119062
      7 H                     0.131802
      8 H                     0.131802
      9 H                     0.119062
     10 H                     0.138910
  ----------------------------------------
  Sum of atomic charges =     0.000000

 -----------------------------------------------------------------
                    Cartesian Multipole Moments
 -----------------------------------------------------------------
    Charge (ESU x 10^10)
                 0.0000
    Dipole Moment (Debye)
         X       0.0000      Y       0.0000      Z       0.0000
       Tot       0.0000
    Quadrupole Moments (Debye-Ang)
        XX     -23.5291     XY       0.0000     YY     -29.6637
        XZ      -0.1974     YZ       0.0000     ZZ     -23.8095
    Octapole Moments (Debye-Ang^2)
       XXX     -42.4887    XXY       0.0000    XYY     -17.8555
       YYY       0.0000    XXZ     -41.4444    XYZ       0.0000
       YYZ     -51.9504    XZZ     -15.0231    YZZ       0.0000
       ZZZ    -125.0936
    Hexadecapole Moments (Debye-Ang^3)
      XXXX    -162.8313   XXXY       0.0000   XXYY     -39.8677
      XYYY       0.0000   YYYY     -37.8135   XXXZ    -122.2022
      XXYZ       0.0000   XYYZ     -52.0279   YYYZ       0.0000
      XXZZ    -147.1777   XYZZ       0.0000   YYZZ    -160.6243
      XZZZ    -125.1686   YZZZ       0.0000   ZZZZ    -756.2285
 -----------------------------------------------------------------
 Calculating analytic gradient of the SCF energy
 Gradient of AOints
            1           2           3           4           5           6
    1   0.8486249   3.6387136  -3.6387135  -0.8486251   2.7610006  -2.6476304
    2  -0.0000000   0.0000000  -0.0000000   0.0000000  -0.0000000  -0.0000000
    3   8.3058561  -3.0246357   3.0246356  -8.3058560   1.9176772   2.0556713
            7           8           9          10
    1   3.4434421  -3.4434420   2.6476304  -2.7610007
    2   0.0000000   0.0000000   0.0000000  -0.0000000
    3  -1.4166225   1.4166225  -2.0556713  -1.9176772
 Gradient of XC Energy
            1           2           3           4           5           6
    1   0.0070005  -0.0266436   0.0266436  -0.0070005  -0.1438610   0.1415299
    2  -0.0000000  -0.0000000   0.0000000  -0.0000000   0.0000000   0.0000000
    3  -0.1300797   0.1228705  -0.1228705   0.1300797  -0.0864259  -0.0828149
            7           8           9          10
    1  -0.1464593   0.1464593  -0.1415299   0.1438610
    2  -0.0000000  -0.0000000  -0.0000000   0.0000000
    3   0.0733069  -0.0733069   0.0828149   0.0864259
 Gradient of SCF Energy
            1           2           3           4           5           6
    1   0.0008246   0.0002471  -0.0002471  -0.0008246  -0.0000828  -0.0000950
    2  -0.0000000  -0.0000000  -0.0000000  -0.0000000   0.0000000   0.0000000
    3   0.0020219   0.0003523  -0.0003523  -0.0020219   0.0002895  -0.0000954
            7           8           9          10
    1  -0.0001280   0.0001280   0.0000950   0.0000828
    2  -0.0000000  -0.0000000   0.0000000   0.0000000
    3  -0.0005046   0.0005046   0.0000954  -0.0002895
 Max gradient component =       2.022E-03
 RMS gradient           =       5.963E-04
 Gradient time:  CPU 93.88 s  wall 94.02 s
 Geometry Optimization Parameters
   NAtoms,    NIC,     NZ,  NCons,   NDum,   NFix, NCnnct, MaxDiis
       10      53      10       0       0       0       0       0

 Cartesian Hessian Update
 Hessian Updated using BFGS Update


** GEOMETRY OPTIMIZATION IN DELOCALIZED INTERNAL COORDINATES **
   Searching for a Minimum

   Optimization Cycle:   2

                       Coordinates (Angstroms)
     ATOM              X           Y           Z
    1  C           0.005992    0.000000    0.024307
    2  C           0.000293    0.000000    1.346884
    3  C           1.203571    0.000000    2.155742
    4  C           1.197873    0.000000    3.478319
    5  H          -0.923546    0.000000   -0.552400
    6  H           0.947363    0.000000   -0.537826
    7  H          -0.956353    0.000000    1.887262
    8  H           2.160217    0.000000    1.615363
    9  H           0.256501    0.000000    4.040451
   10  H           2.127410    0.000000    4.055026
   Point Group: c1    Number of degrees of freedom:  24


   Energy is   -154.055293703

 Hessian Updated using BFGS Update

  8 Hessian modes will be used to form the next step
  Hessian Eigenvalues:
     0.157757    0.161798    0.224323    0.339499    0.349243    0.352171
     0.380375    0.624472

 Minimum Search - Taking Simple RFO Step
 Searching for Lamda that Minimizes Along All modes
 Value Taken    Lamda =  -0.00004079
 Step Taken.  Stepsize is  0.011530

                             Maximum     Tolerance    Cnvgd?
         Gradient           0.002688      0.000300      NO
         Displacement       0.007505      0.001200      NO
         Energy change     -0.000950      0.000001      NO


 New Cartesian Coordinates Obtained by Inverse Iteration

 Displacement from previous Coordinates is:  0.019873
 Writing REM_CC_EA           10
 ----------------------------------------------------
       Standard Nuclear Orientation (Angstroms)
    I     Atom         X            Y            Z
 ----------------------------------------------------
    1      C       0.004162     0.000000     0.020796
    2      C       0.000193     0.000000     1.345047
    3      C       1.203671     0.000000     2.157579
    4      C       1.199702     0.000000     3.481829
    5      H      -0.924707     0.000000    -0.557377
    6      H       0.946213     0.000000    -0.540487
    7      H      -0.955297     0.000000     1.888045
    8      H       2.159161     0.000000     1.614580
    9      H       0.257651     0.000000     4.043112
   10      H       2.128571     0.000000     4.060002
 ----------------------------------------------------
 Nuclear Repulsion Energy =   104.1420182671 hartrees
 There are       15 alpha and       15 beta electrons
 Applying Cartesian multipole field
    Component          Value
    ---------          -----
     (2,0,0)        1.00000E-11
     (0,2,0)        2.00000E-11
     (0,0,2)       -3.00000E-11
 Nucleus-field energy     =    -0.0000000151 hartrees
 Requested basis set is G3large
 There are 76 shells and 228 basis functions
 A cutoff of  1.0D-11 yielded   2755 shell pairs
 There are  24856 function pairs ( 30439 Cartesian)
Evaluating contribution to one-electron hamiltonian from nuclear
 Smallest overlap matrix eigenvalue = 1.13E-05
 Multipole matrices computed through 2nd order
 Guess MOs from SCF MO coefficient file
Reading MOs from coefficient file
Reading MOs from coefficient file
 A restricted hybrid HF-DFT SCF calculation will be
 performed using Pulay DIIS extrapolation
 Exchange:     1.0000 Hartree-Fock + 1.0000 BNL
 Correlation:  1.0000 LYP
 Using SG-1 standard quadrature grid
 SCF converges when DIIS error is below 1.0E-08
 ---------------------------------------
  Cycle       Energy         DIIS Error
 ---------------------------------------
    1    -154.0571405934      8.32E-05
    2    -154.0553145033      8.20E-06
    3    -154.0553146183      7.69E-06
    4    -154.0553149731      1.04E-06
    5    -154.0553150612      1.88E-07
    6    -154.0553151204      6.11E-08
    7    -154.0553150972      1.74E-08
    8    -154.0553151021      4.26E-09 Convergence criterion met
 ---------------------------------------
 One-Electron    Energy =  -414.0271751923
 Total Coulomb   Energy =   177.6073219742
 Alpha Exchange  Energy =    -2.5181268472
 Beta  Exchange  Energy =    -2.5181268472
 DFT   Exchange  Energy =   -15.7776065600
 DFT Correlation Energy =    -0.9636198815
 Nuclear Repu.   Energy =   104.1420182519
 Nuclear Attr.   Energy =  -567.2143335097
 Kinetic         Energy =   153.1871583174
 SCF time:  CPU 142.14 s  wall 142.70 s
 Final Alpha MO Eigenvalues
            1           2           3           4           5           6
    1  -9.9441026  -9.9439212  -9.9347036  -9.9346956  -0.9154572  -0.8402724
            7           8           9          10          11          12
    1  -0.7047705  -0.6568347  -0.5711706  -0.5682807  -0.4932002  -0.4783432
           13          14          15          16          17          18
    1  -0.4444943  -0.4369187  -0.3373864   0.0340143   0.0354502   0.0447799
           19          20
    1   0.0461203   0.0663116
 Analysis of SCF Wavefunction
 
 --------------------------------------------------------------
                    Orbital Energies (a.u.)
 --------------------------------------------------------------
 
 Alpha MOs
 -- Occupied --
 -9.944  -9.944  -9.935  -9.935  -0.915  -0.840  -0.705  -0.657
 -0.571  -0.568  -0.493  -0.478  -0.444  -0.437  -0.337
 -- Virtual --
  0.034   0.035   0.045   0.046   0.066   0.074   0.092   0.095
  0.109   0.124   0.139   0.142   0.157   0.174   0.176   0.178
  0.183   0.184   0.193   0.206   0.208   0.223   0.230   0.245
  0.283   0.284   0.307   0.322   0.342   0.383   0.441   0.448
  0.480   0.530   0.532   0.592   0.595   0.596   0.605   0.607
  0.609   0.635   0.635   0.642   0.682   0.692   0.699   0.714
  0.740   0.749   0.771   0.779   0.793   0.795   0.837   0.848
  0.855   0.861   0.885   0.932   0.999   1.004   1.048   1.073
  1.095   1.097   1.112   1.132   1.137   1.184   1.285   1.293
  1.303   1.305   1.312   1.356   1.381   1.443   1.470   1.517
  1.525   1.553   1.572   1.573   1.597   1.617   1.622   1.712
  1.735   1.809   1.922   1.975   2.099   2.568   2.603   2.648
  2.667   2.672   2.678   2.749   2.753   2.766   2.774   2.798
  2.802   2.842   2.866   2.908   2.950   2.978   2.981   2.999
  3.054   3.107   3.110   3.111   3.157   3.162   3.209   3.253
  3.264   3.294   3.302   3.310   3.344   3.360   3.364   3.395
  3.440   3.457   3.462   3.474   3.487   3.527   3.595   3.610
  3.625   3.751   3.765   3.780   3.836   3.855   3.861   3.879
  3.963   4.026   4.034   4.126   4.165   4.177   4.185   4.228
  4.274   4.299   4.308   4.388   4.390   4.477   4.534   4.622
  4.627   4.662   4.776   4.777   4.860   4.897   4.986   5.110
  5.241   5.335   5.482   5.571   5.636   5.851   5.852   6.016
  6.068  24.153  24.154  24.792  25.012  27.263  27.324  27.505
 27.533  27.987  28.188  28.234  28.284  28.330  28.418  28.447
 28.802  40.800  40.830  40.908  40.923  40.934  40.967  41.156
 41.163  41.183  41.192  41.209  41.223  41.249  41.277  41.290
 41.290  41.292  41.336  41.392  41.441
 --------------------------------------------------------------
 
          Ground-State Mulliken Net Atomic Charges

     Atom                 Charge (a.u.)
  ----------------------------------------
      1 C                    -0.454227
      2 C                     0.064347
      3 C                     0.064348
      4 C                    -0.454227
      5 H                     0.139367
      6 H                     0.119123
      7 H                     0.131389
      8 H                     0.131389
      9 H                     0.119123
     10 H                     0.139367
  ----------------------------------------
  Sum of atomic charges =     0.000000

 -----------------------------------------------------------------
                    Cartesian Multipole Moments
 -----------------------------------------------------------------
    Charge (ESU x 10^10)
                 0.0000
    Dipole Moment (Debye)
         X       0.0000      Y       0.0000      Z       0.0000
       Tot       0.0000
    Quadrupole Moments (Debye-Ang)
        XX     -23.5466     XY       0.0000     YY     -29.6816
        XZ      -0.1779     YZ       0.0000     ZZ     -23.7752
    Octapole Moments (Debye-Ang^2)
       XXX     -42.5204    XXY       0.0000    XYY     -17.8663
       YYY       0.0000    XXZ     -41.4516    XYZ       0.0000
       YYZ     -51.9818    XZZ     -14.9340    YZZ       0.0000
       ZZZ    -124.9133
    Hexadecapole Moments (Debye-Ang^3)
      XXXX    -163.1145   XXXY       0.0000   XXYY     -39.9211
      XYYY       0.0000   YYYY     -37.8662   XXXZ    -122.4349
      XXYZ       0.0000   XYYZ     -52.1462   YYYZ       0.0000
      XXZZ    -147.2284   XYZZ       0.0000   YYZZ    -160.9312
      XZZZ    -124.8841   YZZZ       0.0000   ZZZZ    -756.4466
 -----------------------------------------------------------------
 Calculating analytic gradient of the SCF energy
 Gradient of AOints
            1           2           3           4           5           6
    1   0.8742245   3.6041515  -3.6041515  -0.8742246   2.7572527  -2.6475530
    2   0.0000000  -0.0000000  -0.0000000   0.0000000  -0.0000000  -0.0000000
    3   8.3033690  -2.9828333   2.9828335  -8.3033692   1.9270489   2.0476900
            7           8           9          10
    1   3.4269696  -3.4269696   2.6475530  -2.7572527
    2   0.0000000   0.0000000  -0.0000000  -0.0000000
    3  -1.4301333   1.4301333  -2.0476900  -1.9270489
 Gradient of XC Energy
            1           2           3           4           5           6
    1   0.0059681  -0.0257872   0.0257872  -0.0059681  -0.1437151   0.1416247
    2  -0.0000000   0.0000000   0.0000000  -0.0000000   0.0000000   0.0000000
    3  -0.1301298   0.1213043  -0.1213043   0.1301298  -0.0868597  -0.0825608
            7           8           9          10
    1  -0.1459392   0.1459392  -0.1416247   0.1437151
    2  -0.0000000  -0.0000000   0.0000000   0.0000000
    3   0.0738918  -0.0738918   0.0825608   0.0868597
 Gradient of SCF Energy
            1           2           3           4           5           6
    1   0.0001492   0.0000418  -0.0000418  -0.0001492  -0.0001183  -0.0000140
    2  -0.0000000   0.0000000   0.0000000   0.0000000  -0.0000000  -0.0000000
    3  -0.0000580   0.0004208  -0.0004208   0.0000580  -0.0000469  -0.0000633
            7           8           9          10
    1  -0.0000518   0.0000518   0.0000140   0.0001183
    2   0.0000000  -0.0000000  -0.0000000  -0.0000000
    3  -0.0001405   0.0001405   0.0000633   0.0000469
 Max gradient component =       4.208E-04
 RMS gradient           =       1.284E-04
 Gradient time:  CPU 94.47 s  wall 94.60 s
 Geometry Optimization Parameters
   NAtoms,    NIC,     NZ,  NCons,   NDum,   NFix, NCnnct, MaxDiis
       10      53      10       0       0       0       0       0

 Cartesian Hessian Update
 Hessian Updated using BFGS Update


** GEOMETRY OPTIMIZATION IN DELOCALIZED INTERNAL COORDINATES **
   Searching for a Minimum

   Optimization Cycle:   3

                       Coordinates (Angstroms)
     ATOM              X           Y           Z
    1  C           0.004162    0.000000    0.020796
    2  C           0.000193    0.000000    1.345047
    3  C           1.203671    0.000000    2.157579
    4  C           1.199702    0.000000    3.481829
    5  H          -0.924707    0.000000   -0.557377
    6  H           0.946213    0.000000   -0.540487
    7  H          -0.955297    0.000000    1.888045
    8  H           2.159161    0.000000    1.614580
    9  H           0.257651    0.000000    4.043112
   10  H           2.128571    0.000000    4.060002
   Point Group: c1    Number of degrees of freedom:  24


   Energy is   -154.055315102

 Hessian Updated using BFGS Update

  9 Hessian modes will be used to form the next step
  Hessian Eigenvalues:
     0.139602    0.159917    0.160730    0.226823    0.340522    0.349201
     0.352099    0.376620    0.678140

 Minimum Search - Taking Simple RFO Step
 Searching for Lamda that Minimizes Along All modes
 Value Taken    Lamda =  -0.00000111
 Step Taken.  Stepsize is  0.002652

                             Maximum     Tolerance    Cnvgd?
         Gradient           0.000256      0.000300     YES
         Displacement       0.001462      0.001200      NO
         Energy change     -0.000021      0.000001      NO


 New Cartesian Coordinates Obtained by Inverse Iteration

 Displacement from previous Coordinates is:  0.004018
 Writing REM_CC_EA           10
 ----------------------------------------------------
       Standard Nuclear Orientation (Angstroms)
    I     Atom         X            Y            Z
 ----------------------------------------------------
    1      C       0.004017     0.000000     0.020898
    2      C       0.000122     0.000000     1.345017
    3      C       1.203742     0.000000     2.157609
    4      C       1.199847     0.000000     3.481727
    5      H      -0.924382     0.000000    -0.557682
    6      H       0.946455     0.000000    -0.539706
    7      H      -0.954812     0.000000     1.889104
    8      H       2.158676     0.000000     1.613521
    9      H       0.257409     0.000000     4.042332
   10      H       2.128246     0.000000     4.060307
 ----------------------------------------------------
 Nuclear Repulsion Energy =   104.1468648427 hartrees
 There are       15 alpha and       15 beta electrons
 Applying Cartesian multipole field
    Component          Value
    ---------          -----
     (2,0,0)        1.00000E-11
     (0,2,0)        2.00000E-11
     (0,0,2)       -3.00000E-11
 Nucleus-field energy     =    -0.0000000151 hartrees
 Requested basis set is G3large
 There are 76 shells and 228 basis functions
 A cutoff of  1.0D-11 yielded   2755 shell pairs
 There are  24856 function pairs ( 30439 Cartesian)
Evaluating contribution to one-electron hamiltonian from nuclear
 Smallest overlap matrix eigenvalue = 1.13E-05
 Multipole matrices computed through 2nd order
 Guess MOs from SCF MO coefficient file
Reading MOs from coefficient file
Reading MOs from coefficient file
 A restricted hybrid HF-DFT SCF calculation will be
 performed using Pulay DIIS extrapolation
 Exchange:     1.0000 Hartree-Fock + 1.0000 BNL
 Correlation:  1.0000 LYP
 Using SG-1 standard quadrature grid
 SCF converges when DIIS error is below 1.0E-08
 ---------------------------------------
  Cycle       Energy         DIIS Error
 ---------------------------------------
    1    -154.0553445118      1.29E-05
    2    -154.0553155303      1.56E-06
    3    -154.0553156538      1.23E-06
    4    -154.0553156217      2.62E-07
    5    -154.0553156710      1.08E-07
    6    -154.0553156377      2.32E-08
    7    -154.0553156454      4.39E-09 Convergence criterion met
 ---------------------------------------
 One-Electron    Energy =  -414.0365349261
 Total Coulomb   Energy =   177.6120485111
 Alpha Exchange  Energy =    -2.5181384276
 Beta  Exchange  Energy =    -2.5181384276
 DFT   Exchange  Energy =   -15.7777854791
 DFT Correlation Energy =    -0.9636317235
 Nuclear Repu.   Energy =   104.1468648276
 Nuclear Attr.   Energy =  -567.2245637972
 Kinetic         Energy =   153.1880288711
 SCF time:  CPU 123.44 s  wall 123.96 s
 Final Alpha MO Eigenvalues
            1           2           3           4           5           6
    1  -9.9440920  -9.9439109  -9.9346813  -9.9346734  -0.9154755  -0.8402968
            7           8           9          10          11          12
    1  -0.7047880  -0.6568392  -0.5712428  -0.5682113  -0.4933153  -0.4783462
           13          14          15          16          17          18
    1  -0.4445024  -0.4368602  -0.3374242   0.0340145   0.0354794   0.0447865
           19          20
    1   0.0461197   0.0663105
 Analysis of SCF Wavefunction
 
 --------------------------------------------------------------
                    Orbital Energies (a.u.)
 --------------------------------------------------------------
 
 Alpha MOs
 -- Occupied --
 -9.944  -9.944  -9.935  -9.935  -0.915  -0.840  -0.705  -0.657
 -0.571  -0.568  -0.493  -0.478  -0.445  -0.437  -0.337
 -- Virtual --
  0.034   0.035   0.045   0.046   0.066   0.074   0.092   0.095
  0.109   0.124   0.139   0.142   0.157   0.174   0.176   0.178
  0.183   0.184   0.193   0.206   0.208   0.223   0.230   0.245
  0.283   0.284   0.307   0.322   0.342   0.383   0.441   0.448
  0.480   0.530   0.532   0.592   0.595   0.596   0.605   0.607
  0.609   0.635   0.635   0.642   0.682   0.692   0.699   0.714
  0.741   0.749   0.771   0.779   0.793   0.795   0.837   0.848
  0.855   0.861   0.885   0.932   0.999   1.004   1.048   1.073
  1.095   1.097   1.112   1.132   1.137   1.184   1.284   1.293
  1.303   1.306   1.312   1.356   1.381   1.443   1.470   1.517
  1.525   1.553   1.573   1.573   1.597   1.617   1.622   1.712
  1.735   1.809   1.922   1.975   2.098   2.567   2.603   2.648
  2.667   2.672   2.678   2.749   2.753   2.767   2.773   2.798
  2.802   2.842   2.865   2.908   2.950   2.978   2.981   2.999
  3.054   3.107   3.110   3.112   3.157   3.162   3.209   3.253
  3.264   3.294   3.302   3.310   3.344   3.360   3.365   3.395
  3.440   3.457   3.462   3.474   3.487   3.527   3.595   3.610
  3.625   3.751   3.765   3.781   3.835   3.855   3.861   3.879
  3.963   4.027   4.035   4.126   4.165   4.177   4.185   4.228
  4.274   4.299   4.308   4.388   4.390   4.477   4.534   4.622
  4.627   4.663   4.777   4.777   4.860   4.897   4.986   5.110
  5.241   5.335   5.482   5.571   5.636   5.852   5.852   6.016
  6.067  24.153  24.154  24.793  25.013  27.263  27.324  27.505
 27.533  27.987  28.188  28.234  28.285  28.330  28.418  28.447
 28.802  40.800  40.830  40.908  40.923  40.934  40.967  41.156
 41.163  41.183  41.192  41.209  41.223  41.250  41.277  41.290
 41.290  41.292  41.337  41.392  41.441
 --------------------------------------------------------------
 
          Ground-State Mulliken Net Atomic Charges

     Atom                 Charge (a.u.)
  ----------------------------------------
      1 C                    -0.454418
      2 C                     0.064651
      3 C                     0.064651
      4 C                    -0.454418
      5 H                     0.139482
      6 H                     0.119044
      7 H                     0.131241
      8 H                     0.131241
      9 H                     0.119044
     10 H                     0.139482
  ----------------------------------------
  Sum of atomic charges =     0.000000

 -----------------------------------------------------------------
                    Cartesian Multipole Moments
 -----------------------------------------------------------------
    Charge (ESU x 10^10)
                 0.0000
    Dipole Moment (Debye)
         X       0.0000      Y       0.0000      Z       0.0000
       Tot       0.0000
    Quadrupole Moments (Debye-Ang)
        XX     -23.5500     XY       0.0000     YY     -29.6804
        XZ      -0.1770     YZ       0.0000     ZZ     -23.7729
    Octapole Moments (Debye-Ang^2)
       XXX     -42.5265    XXY       0.0000    XYY     -17.8656
       YYY       0.0000    XXZ     -41.4565    XYZ       0.0000
       YYZ     -51.9797    XZZ     -14.9296    YZZ       0.0000
       ZZZ    -124.9013
    Hexadecapole Moments (Debye-Ang^3)
      XXXX    -163.1444   XXXY       0.0000   XXYY     -39.9181
      XYYY       0.0000   YYYY     -37.8620   XXXZ    -122.4420
      XXYZ       0.0000   XYYZ     -52.1407   YYYZ       0.0000
      XXZZ    -147.2089   XYZZ       0.0000   YYZZ    -160.9143
      XZZZ    -124.8220   YZZZ       0.0000   ZZZZ    -756.3529
 -----------------------------------------------------------------
 Calculating analytic gradient of the SCF energy
 Gradient of AOints
            1           2           3           4           5           6
    1   0.8774523   3.6046084  -3.6046086  -0.8774521   2.7564870  -2.6490701
    2   0.0000000   0.0000000  -0.0000000   0.0000000  -0.0000000  -0.0000000
    3   8.3061052  -2.9804727   2.9804728  -8.3061053   1.9292426   2.0449710
            7           8           9          10
    1   3.4241913  -3.4241912   2.6490701  -2.7564870
    2  -0.0000000  -0.0000000  -0.0000000  -0.0000000
    3  -1.4356441   1.4356441  -2.0449710  -1.9292426
 Gradient of XC Energy
            1           2           3           4           5           6
    1   0.0058349  -0.0258370   0.0258370  -0.0058349  -0.1436795   0.1416965
    2  -0.0000000  -0.0000000   0.0000000  -0.0000000   0.0000000   0.0000000
    3  -0.1302156   0.1211715  -0.1211715   0.1302156  -0.0869660  -0.0824301
            7           8           9          10
    1  -0.1458085   0.1458085  -0.1416965   0.1436795
    2   0.0000000   0.0000000   0.0000000   0.0000000
    3   0.0741148  -0.0741148   0.0824301   0.0869660
 Gradient of SCF Energy
            1           2           3           4           5           6
    1   0.0000107   0.0000573  -0.0000573  -0.0000107  -0.0000119  -0.0000058
    2  -0.0000000   0.0000000   0.0000000  -0.0000000   0.0000000  -0.0000000
    3  -0.0000288   0.0000745  -0.0000745   0.0000288  -0.0000077  -0.0000151
            7           8           9          10
    1  -0.0000137   0.0000137   0.0000058   0.0000119
    2   0.0000000   0.0000000  -0.0000000   0.0000000
    3  -0.0000293   0.0000293   0.0000151   0.0000077
 Max gradient component =       7.455E-05
 RMS gradient           =       2.744E-05
 Gradient time:  CPU 92.99 s  wall 93.11 s
 Geometry Optimization Parameters
   NAtoms,    NIC,     NZ,  NCons,   NDum,   NFix, NCnnct, MaxDiis
       10      53      10       0       0       0       0       0

 Cartesian Hessian Update
 Hessian Updated using BFGS Update


** GEOMETRY OPTIMIZATION IN DELOCALIZED INTERNAL COORDINATES **
   Searching for a Minimum

   Optimization Cycle:   4

                       Coordinates (Angstroms)
     ATOM              X           Y           Z
    1  C           0.004017    0.000000    0.020898
    2  C           0.000122    0.000000    1.345017
    3  C           1.203742    0.000000    2.157609
    4  C           1.199847    0.000000    3.481727
    5  H          -0.924382    0.000000   -0.557682
    6  H           0.946455    0.000000   -0.539706
    7  H          -0.954812    0.000000    1.889104
    8  H           2.158676    0.000000    1.613521
    9  H           0.257409    0.000000    4.042332
   10  H           2.128246    0.000000    4.060307
   Point Group: c1    Number of degrees of freedom:  24


   Energy is   -154.055315645

 Hessian Updated using BFGS Update

  9 Hessian modes will be used to form the next step
  Hessian Eigenvalues:
     0.111155    0.160137    0.160731    0.230046    0.340746    0.349757
     0.351267    0.375534    0.660244

 Minimum Search - Taking Simple RFO Step
 Searching for Lamda that Minimizes Along All modes
 Value Taken    Lamda =   0.00000000
 Step Taken.  Stepsize is  0.000843

                             Maximum     Tolerance    Cnvgd?
         Gradient           0.000096      0.000300     YES
         Displacement       0.000504      0.001200     YES
         Energy change     -0.000001      0.000001     YES


                       Distance Matrix (Angstroms)
             C (  1)   C (  2)   C (  3)   C (  4)   H (  5)   H (  6)
   C (  2)  1.324124
   C (  3)  2.450484  1.452242
   C (  4)  3.661604  2.450484  1.324124
   H (  5)  1.093929  2.115413  3.449887  4.563899
   H (  6)  1.096571  2.108964  2.709558  4.029409  1.870924
   H (  7)  2.099892  1.099059  2.175190  2.679366  2.446975  3.084467
   H (  8)  2.679366  2.175190  1.099059  2.099892  3.770858  2.471006
   H (  9)  4.029409  2.709558  2.108964  1.096571  4.749395  4.633558
   H ( 10)  4.563899  3.449887  2.115413  1.093929  5.535735  4.749395
             H (  7)   H (  8)   H (  9)
   H (  8)  3.125661
   H (  9)  2.471006  3.084467
   H ( 10)  3.770858  2.446975  1.870924
 


 ******************************
 **  OPTIMIZATION CONVERGED  **
 ******************************
 Analysis of SCF Wavefunction
 
 --------------------------------------------------------------
                    Orbital Energies (a.u.)
 --------------------------------------------------------------
 
 Alpha MOs
 -- Occupied --
 -9.944  -9.944  -9.935  -9.935  -0.915  -0.840  -0.705  -0.657
 -0.571  -0.568  -0.493  -0.478  -0.445  -0.437  -0.337
 -- Virtual --
  0.034   0.035   0.045   0.046   0.066   0.074   0.092   0.095
  0.109   0.124   0.139   0.142   0.157   0.174   0.176   0.178
  0.183   0.184   0.193   0.206   0.208   0.223   0.230   0.245
  0.283   0.284   0.307   0.322   0.342   0.383   0.441   0.448
  0.480   0.530   0.532   0.592   0.595   0.596   0.605   0.607
  0.609   0.635   0.635   0.642   0.682   0.692   0.699   0.714
  0.741   0.749   0.771   0.779   0.793   0.795   0.837   0.848
  0.855   0.861   0.885   0.932   0.999   1.004   1.048   1.073
  1.095   1.097   1.112   1.132   1.137   1.184   1.284   1.293
  1.303   1.306   1.312   1.356   1.381   1.443   1.470   1.517
  1.525   1.553   1.573   1.573   1.597   1.617   1.622   1.712
  1.735   1.809   1.922   1.975   2.098   2.567   2.603   2.648
  2.667   2.672   2.678   2.749   2.753   2.767   2.773   2.798
  2.802   2.842   2.865   2.908   2.950   2.978   2.981   2.999
  3.054   3.107   3.110   3.112   3.157   3.162   3.209   3.253
  3.264   3.294   3.302   3.310   3.344   3.360   3.365   3.395
  3.440   3.457   3.462   3.474   3.487   3.527   3.595   3.610
  3.625   3.751   3.765   3.781   3.835   3.855   3.861   3.879
  3.963   4.027   4.035   4.126   4.165   4.177   4.185   4.228
  4.274   4.299   4.308   4.388   4.390   4.477   4.534   4.622
  4.627   4.663   4.777   4.777   4.860   4.897   4.986   5.110
  5.241   5.335   5.482   5.571   5.636   5.852   5.852   6.016
  6.067  24.153  24.154  24.793  25.013  27.263  27.324  27.505
 27.533  27.987  28.188  28.234  28.285  28.330  28.418  28.447
 28.802  40.800  40.830  40.908  40.923  40.934  40.967  41.156
 41.163  41.183  41.192  41.209  41.223  41.250  41.277  41.290
 41.290  41.292  41.337  41.392  41.441
 --------------------------------------------------------------
 
          Ground-State Mulliken Net Atomic Charges

     Atom                 Charge (a.u.)
  ----------------------------------------
      1 C                    -0.454418
      2 C                     0.064651
      3 C                     0.064651
      4 C                    -0.454418
      5 H                     0.139482
      6 H                     0.119044
      7 H                     0.131241
      8 H                     0.131241
      9 H                     0.119044
     10 H                     0.139482
  ----------------------------------------
  Sum of atomic charges =     0.000000

 -----------------------------------------------------------------
                    Cartesian Multipole Moments
 -----------------------------------------------------------------
    Charge (ESU x 10^10)
                 0.0000
    Dipole Moment (Debye)
         X       0.0000      Y       0.0000      Z       0.0000
       Tot       0.0000
    Quadrupole Moments (Debye-Ang)
        XX     -23.5500     XY       0.0000     YY     -29.6804
        XZ      -0.1770     YZ       0.0000     ZZ     -23.7729
    Octapole Moments (Debye-Ang^2)
       XXX     -42.5265    XXY       0.0000    XYY     -17.8656
       YYY       0.0000    XXZ     -41.4565    XYZ       0.0000
       YYZ     -51.9797    XZZ     -14.9296    YZZ       0.0000
       ZZZ    -124.9013
    Hexadecapole Moments (Debye-Ang^3)
      XXXX    -163.1444   XXXY       0.0000   XXYY     -39.9181
      XYYY       0.0000   YYYY     -37.8620   XXXZ    -122.4420
      XXYZ       0.0000   XYYZ     -52.1407   YYYZ       0.0000
      XXZZ    -147.2089   XYZZ       0.0000   YYZZ    -160.9143
      XZZZ    -124.8220   YZZZ       0.0000   ZZZZ    -756.3529
 -----------------------------------------------------------------
 Total job time:  1030.00s(wall), 1024.85s(cpu) 
 Sat Apr 23 15:07:17 2011

        *************************************************************
        *                                                           *
        *  Thank you very much for using Q-Chem.  Have a nice day.  *
        *                                                           *
        *************************************************************


0 sent ACK to 0 
now end server 0 ... 
 
**********************************************************************
Job 2 of 2 
**********************************************************************
 
Process 0 of 1 is on cl247.stfx.acenet.ca - thread support 1
initial socket setup ...start
initial socket setup ...done 
now start server 0 ... 

cmd = /usr/bin/ssh clhead /usr/local/qchem/bin/get_hostid 249067258 > /scratch/tmp/4506624.1.long.q/qchem16838/lic.dat
                  Welcome to Q-Chem
     A Quantum Leap Into The Future Of Chemistry

 Y. Shao, L. Fusti-Molnar, Y. Jung, J. Kussmann, C. Ochsenfeld,
 S. T. Brown, A. T. B. Gilbert, L. V. Slipchenko,S. V. Levchenko,
 D. P. O'Neill, R. A. DiStasio Jr., R. C. Lochan, T. Wang,
 G. J. O. Beran, N. A. Besley, J. M. Herbert, C. Y. Lin,
 T. Van Voorhis, S. H. Chien, A. Sodt, R. P. Steele, 
 V. A. Rassolov, P. E. Maslen, P. P. Korambath, R. D. Adamson,
 B. Austin, J. Baker, E. F. C. Byrd, H. Dachsel, R. J. Doerksen,
 A. Dreuw, B. D. Dunietz, A. D. Dutoi, T. R. Furlani,
 S. R. Gwaltney, A. Heyden, S. Hirata, C.-P. Hsu, G. Kedziora,
 R. Z. Khaliullin, P. Klunzinger, A. M. Lee, M. S. Lee, W. Liang,
 I. Lotan, N. Nair, B. Peters, E. I. Proynov, P. A. Pieniazek, 
 Y. M. Rhee, J. Ritchie, E. Rosta, C. D. Sherrill, 
 A. C. Simmonett, J. E. Subotnik, H. L. Woodcock III,
 W. Zhang, A. T. Bell, A. K. Chakraborty, D. M. Chipman,
 F. J. Keil, A. Warshel, W. J. Hehre, H. F. Schaefer III,
 J. Kong, A. I. Krylov, P. M. W. Gill, M. Head-Gordon,
 Q-Chem, Version 3.1, Q-Chem, Inc., Pittsburgh, PA (2007).

 Additional authors for Version 3.1: 
 Z. Gan, Y. Zhao, N. E. Schultz, D. Truhlar, E. Epifanovsky and M. Oana.

 Additional authors for Version 3.2: 
 R. Baer, B. R. Brooks, D. Casanova, J.-D. Chai, C.-L. Cheng, 
 C. Cramer, D. Crittenden, A. Ghysels, G. Hawkins, E. G. Hohenstein, 
 C. Kelley, W. Kurlancheek, D. Liotard, E. Livshits, P. Manohar, 
 A. Marenich, D. Neuhauser, R. Olson, M. A. Rohrdanz, K. S. Thanthiriwatte, 
 A. J. W. Thom, V. Vanovschi, C. F. Williams, Q. Wu and Z.-Q. You. 


 Intel X86 Linux Version

 Q-chem begins on Sat Apr 23 15:07:19 2011  

 Parallel job on  1  processors
Processing $rem in /usr/local/qchem/config/preferences.

theFileMan(): MAXOPENFILES=974 MAX_SUB_FILE_NUM=16
Maximum size of a physical file is 2.0 GB, maximum size of a tmp-file is 32.0 GB


--------------------------------------------------------------
User input:
--------------------------------------------------------------

$molecule 
READ 
$end 

$xc_functional
   X HF 1.0
   X BNL 1.0
   C LYP 1.0
$end

$rem
SYMMETRY_DECOMPOSITION	0
exchange 		general
BASIS                   g3large
omega			330 
JOBTYPE                 freq
IDERIV 1
SCF_GUESS READ
separate_jk		true
mem_static              760
max_scf_cycles          200
scf_final_print         1
sym_ignore              true
$end

--------------------------------------------------------------
 Writing REM_CC_EA           10
 ----------------------------------------------------
       Standard Nuclear Orientation (Angstroms)
    I     Atom         X            Y            Z
 ----------------------------------------------------
    1      C       0.004017     0.000000     0.020898
    2      C       0.000122     0.000000     1.345017
    3      C       1.203742     0.000000     2.157609
    4      C       1.199847     0.000000     3.481727
    5      H      -0.924382     0.000000    -0.557682
    6      H       0.946455     0.000000    -0.539706
    7      H      -0.954812     0.000000     1.889104
    8      H       2.158676     0.000000     1.613521
    9      H       0.257409     0.000000     4.042332
   10      H       2.128246     0.000000     4.060307
 ----------------------------------------------------
 Nuclear Repulsion Energy =   104.1468648427 hartrees
 There are       15 alpha and       15 beta electrons
 Requested basis set is G3large
 There are 76 shells and 228 basis functions

Total QAlloc Memory Limit   2000 MB
Mega-Array Size       759 MB
MEM_STATIC part       760 MB

                       Distance Matrix (Angstroms)
             C (  1)   C (  2)   C (  3)   C (  4)   H (  5)   H (  6)
   C (  2)  1.324124
   C (  3)  2.450484  1.452242
   C (  4)  3.661604  2.450484  1.324124
   H (  5)  1.093929  2.115413  3.449887  4.563899
   H (  6)  1.096571  2.108964  2.709558  4.029409  1.870924
   H (  7)  2.099892  1.099059  2.175190  2.679366  2.446975  3.084467
   H (  8)  2.679366  2.175190  1.099059  2.099892  3.770858  2.471006
   H (  9)  4.029409  2.709558  2.108964  1.096571  4.749395  4.633558
   H ( 10)  4.563899  3.449887  2.115413  1.093929  5.535735  4.749395
             H (  7)   H (  8)   H (  9)
   H (  8)  3.125661
   H (  9)  2.471006  3.084467
   H ( 10)  3.770858  2.446975  1.870924
 
 A cutoff of  1.0D-11 yielded   2755 shell pairs
 There are  24856 function pairs ( 30439 Cartesian)
Evaluating contribution to one-electron hamiltonian from nuclear
 Smallest overlap matrix eigenvalue = 1.13E-05
 Multipole matrices computed through 2nd order
 Guess MOs from SCF MO coefficient file
Reading MOs from coefficient file
Reading MOs from coefficient file
 A restricted hybrid HF-DFT SCF calculation will be
 performed using Pulay DIIS extrapolation
 Exchange:     1.0000 Hartree-Fock + 1.0000 BNL
 Correlation:  1.0000 LYP
 Using SG-1 standard quadrature grid
 SCF converges when DIIS error is below 1.0E-08
 ---------------------------------------
  Cycle       Energy         DIIS Error
 ---------------------------------------
    1    -154.0553156117      9.87E-10
    2    -154.0553156109      5.64E-10 Convergence criterion met
 ---------------------------------------
 One-Electron    Energy =  -414.0365373686
 Total Coulomb   Energy =   177.6120511451
 Alpha Exchange  Energy =    -2.5181384430
 Beta  Exchange  Energy =    -2.5181384430
 DFT   Exchange  Energy =   -15.7777856154
 DFT Correlation Energy =    -0.9636317288
 Nuclear Repu.   Energy =   104.1468648427
 Nuclear Attr.   Energy =  -567.2245674591
 Kinetic         Energy =   153.1880300905
 SCF time:  CPU 41.50 s  wall 41.79 s
 Final Alpha MO Eigenvalues
            1           2           3           4           5           6
    1  -9.9440921  -9.9439109  -9.9346812  -9.9346733  -0.9154755  -0.8402968
            7           8           9          10          11          12
    1  -0.7047879  -0.6568392  -0.5712428  -0.5682113  -0.4933153  -0.4783462
           13          14          15          16          17          18
    1  -0.4445024  -0.4368602  -0.3374242   0.0340145   0.0354794   0.0447865
           19          20
    1   0.0461197   0.0663105
 Analysis of SCF Wavefunction
 
 --------------------------------------------------------------
                    Orbital Energies (a.u.)
 --------------------------------------------------------------
 
 Alpha MOs
 -- Occupied --
 -9.944  -9.944  -9.935  -9.935  -0.915  -0.840  -0.705  -0.657
 -0.571  -0.568  -0.493  -0.478  -0.445  -0.437  -0.337
 -- Virtual --
  0.034   0.035   0.045   0.046   0.066   0.074   0.092   0.095
  0.109   0.124   0.139   0.142   0.157   0.174   0.176   0.178
  0.183   0.184   0.193   0.206   0.208   0.223   0.230   0.245
  0.283   0.284   0.307   0.322   0.342   0.383   0.441   0.448
  0.480   0.530   0.532   0.592   0.595   0.596   0.605   0.607
  0.609   0.635   0.635   0.642   0.682   0.692   0.699   0.714
  0.741   0.749   0.771   0.779   0.793   0.795   0.837   0.848
  0.855   0.861   0.885   0.932   0.999   1.004   1.048   1.073
  1.095   1.097   1.112   1.132   1.137   1.184   1.284   1.293
  1.303   1.306   1.312   1.356   1.381   1.443   1.470   1.517
  1.525   1.553   1.573   1.573   1.597   1.617   1.622   1.712
  1.735   1.809   1.922   1.975   2.098   2.567   2.603   2.648
  2.667   2.672   2.678   2.749   2.753   2.767   2.773   2.798
  2.802   2.842   2.865   2.908   2.950   2.978   2.981   2.999
  3.054   3.107   3.110   3.112   3.157   3.162   3.209   3.253
  3.264   3.294   3.302   3.310   3.344   3.360   3.365   3.395
  3.440   3.457   3.462   3.474   3.487   3.527   3.595   3.610
  3.625   3.751   3.765   3.781   3.835   3.855   3.861   3.879
  3.963   4.027   4.035   4.126   4.165   4.177   4.185   4.228
  4.274   4.299   4.308   4.388   4.390   4.477   4.534   4.622
  4.627   4.663   4.777   4.777   4.860   4.897   4.986   5.110
  5.241   5.335   5.482   5.571   5.636   5.852   5.852   6.016
  6.067  24.153  24.154  24.793  25.013  27.263  27.324  27.505
 27.533  27.987  28.188  28.234  28.285  28.330  28.418  28.447
 28.802  40.800  40.830  40.908  40.923  40.934  40.967  41.156
 41.163  41.183  41.192  41.209  41.223  41.250  41.277  41.290
 41.290  41.292  41.337  41.392  41.441
 --------------------------------------------------------------
 
          Ground-State Mulliken Net Atomic Charges

     Atom                 Charge (a.u.)
  ----------------------------------------
      1 C                    -0.454418
      2 C                     0.064651
      3 C                     0.064651
      4 C                    -0.454418
      5 H                     0.139482
      6 H                     0.119044
      7 H                     0.131241
      8 H                     0.131241
      9 H                     0.119044
     10 H                     0.139482
  ----------------------------------------
  Sum of atomic charges =     0.000000

 -----------------------------------------------------------------
                    Cartesian Multipole Moments
 -----------------------------------------------------------------
    Charge (ESU x 10^10)
                 0.0000
    Dipole Moment (Debye)
         X       0.0000      Y       0.0000      Z       0.0000
       Tot       0.0000
    Quadrupole Moments (Debye-Ang)
        XX     -23.5500     XY       0.0000     YY     -29.6804
        XZ      -0.1770     YZ       0.0000     ZZ     -23.7729
    Octapole Moments (Debye-Ang^2)
       XXX     -42.5265    XXY       0.0000    XYY     -17.8656
       YYY       0.0000    XXZ     -41.4565    XYZ       0.0000
       YYZ     -51.9797    XZZ     -14.9296    YZZ       0.0000
       ZZZ    -124.9013
    Hexadecapole Moments (Debye-Ang^3)
      XXXX    -163.1444   XXXY       0.0000   XXYY     -39.9181
      XYYY       0.0000   YYYY     -37.8620   XXXZ    -122.4420
      XXYZ       0.0000   XYYZ     -52.1407   YYYZ       0.0000
      XXZZ    -147.2089   XYZZ       0.0000   YYZZ    -160.9143
      XZZZ    -124.8220   YZZZ       0.0000   ZZZZ    -756.3529
 -----------------------------------------------------------------
 Calculating analytic gradient of the SCF energy
 Gradient of AOints
            1           2           3           4           5           6
    1   0.8774526   3.6046066  -3.6046066  -0.8774526   2.7564873  -2.6490700
    2   0.0000000   0.0000000  -0.0000000   0.0000000  -0.0000000   0.0000000
    3   8.3061049  -2.9804737   2.9804738  -8.3061049   1.9292427   2.0449711
            7           8           9          10
    1   3.4241915  -3.4241915   2.6490700  -2.7564873
    2  -0.0000000  -0.0000000   0.0000000  -0.0000000
    3  -1.4356443   1.4356442  -2.0449711  -1.9292427
 Gradient of XC Energy
            1           2           3           4           5           6
    1   0.0058349  -0.0258370   0.0258370  -0.0058349  -0.1436796   0.1416965
    2  -0.0000000  -0.0000000   0.0000000  -0.0000000   0.0000000   0.0000000
    3  -0.1302156   0.1211715  -0.1211715   0.1302156  -0.0869660  -0.0824301
            7           8           9          10
    1  -0.1458085   0.1458085  -0.1416965   0.1436796
    2   0.0000000   0.0000000  -0.0000000   0.0000000
    3   0.0741148  -0.0741148   0.0824301   0.0869660
 Gradient of SCF Energy
            1           2           3           4           5           6
    1   0.0000107   0.0000573  -0.0000573  -0.0000107  -0.0000119  -0.0000058
    2   0.0000000  -0.0000000  -0.0000000   0.0000000   0.0000000  -0.0000000
    3  -0.0000288   0.0000746  -0.0000746   0.0000288  -0.0000077  -0.0000151
            7           8           9          10
    1  -0.0000137   0.0000137   0.0000058   0.0000119
    2   0.0000000   0.0000000  -0.0000000   0.0000000
    3  -0.0000293   0.0000293   0.0000151   0.0000077
 Max gradient component =       7.457E-05
 RMS gradient           =       2.745E-05
 Gradient time:  CPU 92.60 s  wall 92.87 s
 ######################################################
 ######################################################
 # Starting finite difference calculation for IDERIV  #
 Finite diff step size: 1.89e-03 a.u.
 Writing REM_CC_EA           10
 ----------------------------------------------------
       Standard Nuclear Orientation (Angstroms)
    I     Atom         X            Y            Z
 ----------------------------------------------------
    1      C       0.005017     0.000000     0.020898
    2      C       0.000122     0.000000     1.345017
    3      C       1.203742     0.000000     2.157609
    4      C       1.199847     0.000000     3.481727
    5      H      -0.924382     0.000000    -0.557682
    6      H       0.946455     0.000000    -0.539706
    7      H      -0.954812     0.000000     1.889104
    8      H       2.158676     0.000000     1.613521
    9      H       0.257409     0.000000     4.042332
   10      H       2.128246     0.000000     4.060307
 ----------------------------------------------------
 Nuclear Repulsion Energy =   104.1489762678 hartrees
 There are       15 alpha and       15 beta electrons

                       Distance Matrix (Angstroms)
             C (  1)   C (  2)   C (  3)   C (  4)   H (  5)   H (  6)
   C (  2)  1.324127
   C (  3)  2.449994  1.452242
   C (  4)  3.661277  2.450484  1.324124
   H (  5)  1.094778  2.115413  3.449887  4.563899
   H (  6)  1.095711  2.108964  2.709558  4.029409  1.870924
   H (  7)  2.100349  1.099059  2.175190  2.679366  2.446975  3.084467
   H (  8)  2.678562  2.175190  1.099059  2.099892  3.770858  2.471006
   H (  9)  4.029346  2.709558  2.108964  1.096571  4.749395  4.633558
   H ( 10)  4.563434  3.449887  2.115413  1.093929  5.535735  4.749395
             H (  7)   H (  8)   H (  9)
   H (  8)  3.125661
   H (  9)  2.471006  3.084467
   H ( 10)  3.770858  2.446975  1.870924
 
 Requested basis set is G3large
 There are 76 shells and 228 basis functions
 A cutoff of  1.0D-11 yielded   2755 shell pairs
 There are  24856 function pairs ( 30439 Cartesian)
Evaluating contribution to one-electron hamiltonian from nuclear
 Smallest overlap matrix eigenvalue = 1.13E-05
 Multipole matrices computed through 2nd order
 Guess MOs from SCF MO coefficient file
Reading MOs from coefficient file
Reading MOs from coefficient file
 A restricted hybrid HF-DFT SCF calculation will be
 performed using Pulay DIIS extrapolation
 Exchange:     1.0000 Hartree-Fock + 1.0000 BNL
 Correlation:  1.0000 LYP
 Using SG-1 standard quadrature grid
 SCF converges when DIIS error is below 1.0E-08
 ---------------------------------------
  Cycle       Energy         DIIS Error
 ---------------------------------------
    1    -154.0553501956      2.28E-05
    2    -154.0553144163      2.71E-06
    3    -154.0553145175      1.02E-06
    4    -154.0553144697      2.53E-07
    5    -154.0553144866      1.46E-07
    6    -154.0553144821      2.54E-08
    7    -154.0553144762      6.67E-09 Convergence criterion met
 ---------------------------------------
 One-Electron    Energy =  -414.0409261237
 Total Coulomb   Energy =   177.6143524183
 Alpha Exchange  Energy =    -2.5181401031
 Beta  Exchange  Energy =    -2.5181401031
 DFT   Exchange  Energy =   -15.7778035225
 DFT Correlation Energy =    -0.9636333098
 Nuclear Repu.   Energy =   104.1489762678
 Nuclear Attr.   Energy =  -567.2290524661
 Kinetic         Energy =   153.1881263424
 SCF time:  CPU 123.12 s  wall 123.61 s
 Final Alpha MO Eigenvalues
            1           2           3           4           5           6
    1  -9.9440824  -9.9438993  -9.9346782  -9.9346547  -0.9154829  -0.8402802
            7           8           9          10          11          12
    1  -0.7047550  -0.6568783  -0.5711623  -0.5682589  -0.4932496  -0.4784121
           13          14          15          16          17          18
    1  -0.4445025  -0.4368628  -0.3374116   0.0340127   0.0354952   0.0447865
           19          20
    1   0.0461176   0.0663152
 Analysis of SCF Wavefunction
 
 --------------------------------------------------------------
                    Orbital Energies (a.u.)
 --------------------------------------------------------------
 
 Alpha MOs
 -- Occupied --
 -9.944  -9.944  -9.935  -9.935  -0.915  -0.840  -0.705  -0.657
 -0.571  -0.568  -0.493  -0.478  -0.445  -0.437  -0.337
 -- Virtual --
  0.034   0.035   0.045   0.046   0.066   0.074   0.092   0.095
  0.109   0.124   0.139   0.142   0.157   0.174   0.176   0.178
  0.183   0.184   0.193   0.206   0.208   0.223   0.230   0.245
  0.283   0.284   0.307   0.322   0.342   0.383   0.441   0.448
  0.480   0.530   0.532   0.592   0.595   0.596   0.605   0.607
  0.609   0.635   0.635   0.642   0.682   0.692   0.699   0.714
  0.740   0.749   0.771   0.779   0.793   0.795   0.837   0.848
  0.855   0.861   0.885   0.932   0.998   1.004   1.048   1.073
  1.095   1.097   1.112   1.132   1.137   1.184   1.284   1.293
  1.303   1.305   1.312   1.356   1.381   1.443   1.470   1.517
  1.525   1.553   1.572   1.573   1.597   1.617   1.622   1.712
  1.735   1.809   1.922   1.975   2.098   2.568   2.603   2.648
  2.667   2.672   2.677   2.749   2.753   2.767   2.773   2.798
  2.802   2.842   2.866   2.908   2.950   2.978   2.981   2.999
  3.054   3.107   3.110   3.112   3.157   3.162   3.209   3.253
  3.264   3.294   3.302   3.310   3.344   3.360   3.365   3.395
  3.440   3.457   3.463   3.474   3.487   3.527   3.595   3.610
  3.625   3.750   3.765   3.781   3.835   3.855   3.862   3.879
  3.963   4.027   4.034   4.126   4.165   4.176   4.185   4.228
  4.275   4.299   4.309   4.388   4.390   4.477   4.533   4.622
  4.627   4.662   4.777   4.777   4.860   4.897   4.986   5.110
  5.241   5.335   5.482   5.571   5.637   5.852   5.852   6.016
  6.067  24.153  24.153  24.793  25.013  27.263  27.324  27.505
 27.533  27.987  28.188  28.234  28.284  28.330  28.418  28.447
 28.801  40.800  40.830  40.908  40.923  40.935  40.967  41.156
 41.163  41.183  41.192  41.209  41.223  41.250  41.277  41.290
 41.290  41.292  41.337  41.392  41.441
 --------------------------------------------------------------
 
          Ground-State Mulliken Net Atomic Charges

     Atom                 Charge (a.u.)
  ----------------------------------------
      1 C                    -0.454301
      2 C                     0.064543
      3 C                     0.064785
      4 C                    -0.454630
      5 H                     0.139150
      6 H                     0.119381
      7 H                     0.131344
      8 H                     0.131241
      9 H                     0.119027
     10 H                     0.139459
  ----------------------------------------
  Sum of atomic charges =     0.000000

 -----------------------------------------------------------------
                    Cartesian Multipole Moments
 -----------------------------------------------------------------
    Charge (ESU x 10^10)
                 0.0000
    Dipole Moment (Debye)
         X       0.0001      Y       0.0000      Z      -0.0006
       Tot       0.0006
    Quadrupole Moments (Debye-Ang)
        XX     -23.5500     XY       0.0000     YY     -29.6805
        XZ      -0.1814     YZ       0.0000     ZZ     -23.7760
    Octapole Moments (Debye-Ang^2)
       XXX     -42.5405    XXY       0.0000    XYY     -17.8701
       YYY       0.0000    XXZ     -41.4584    XYZ       0.0000
       YYZ     -51.9805    XZZ     -14.9412    YZZ       0.0000
       ZZZ    -124.9165
    Hexadecapole Moments (Debye-Ang^3)
      XXXX    -163.1454   XXXY       0.0000   XXYY     -39.9183
      XYYY       0.0000   YYYY     -37.8623   XXXZ    -122.4541
      XXYZ       0.0000   XYYZ     -52.1445   YYYZ       0.0000
      XXZZ    -147.2177   XYZZ       0.0000   YYZZ    -160.9183
      XZZZ    -124.8583   YZZZ       0.0000   ZZZZ    -756.4239
 -----------------------------------------------------------------
 Calculating analytic gradient of the SCF energy
 Gradient of AOints
            1           2           3           4           5           6
    1   0.8665664   3.6134716  -3.6041542  -0.8770391   2.7568158  -2.6484730
    2  -0.0000000   0.0000000  -0.0000000  -0.0000000   0.0000000  -0.0000000
    3   8.3056064  -2.9796543   2.9812399  -8.3064532   1.9263725   2.0480054
            7           8           9          10
    1   3.4247003  -3.4244525   2.6490801  -2.7565155
    2   0.0000000  -0.0000000  -0.0000000   0.0000000
    3  -1.4366114   1.4355579  -2.0448895  -1.9291738
 Gradient of XC Energy
            1           2           3           4           5           6
    1   0.0060894  -0.0261202   0.0258369  -0.0058410  -0.1436552   0.1417108
    2   0.0000000   0.0000000  -0.0000000   0.0000000  -0.0000000  -0.0000000
    3  -0.1301838   0.1211396  -0.1212036   0.1302138  -0.0868166  -0.0825767
            7           8           9          10
    1  -0.1458190   0.1458153  -0.1416966   0.1436798
    2  -0.0000000   0.0000000   0.0000000  -0.0000000
    3   0.0741479  -0.0741114   0.0824283   0.0869624
 Gradient of SCF Energy
            1           2           3           4           5           6
    1   0.0011921  -0.0001597  -0.0000493  -0.0000209  -0.0004986  -0.0004920
    2  -0.0000000  -0.0000000   0.0000000   0.0000000  -0.0000000   0.0000000
    3  -0.0000106   0.0000863  -0.0001384   0.0000248  -0.0002317   0.0001994
            7           8           9          10
    1  -0.0000070   0.0000169   0.0000061   0.0000124
    2   0.0000000  -0.0000000  -0.0000000  -0.0000000
    3   0.0000231   0.0000278   0.0000143   0.0000050
 Max gradient component =       1.192E-03
 RMS gradient           =       2.622E-04
 Gradient time:  CPU 92.47 s  wall 92.84 s
 Writing REM_CC_EA           10
 ----------------------------------------------------
       Standard Nuclear Orientation (Angstroms)
    I     Atom         X            Y            Z
 ----------------------------------------------------
    1      C       0.003017     0.000000     0.020898
    2      C       0.000122     0.000000     1.345017
    3      C       1.203742     0.000000     2.157609
    4      C       1.199847     0.000000     3.481727
    5      H      -0.924382     0.000000    -0.557682
    6      H       0.946455     0.000000    -0.539706
    7      H      -0.954812     0.000000     1.889104
    8      H       2.158676     0.000000     1.613521
    9      H       0.257409     0.000000     4.042332
   10      H       2.128246     0.000000     4.060307
 ----------------------------------------------------
 Nuclear Repulsion Energy =   104.1447502950 hartrees
 There are       15 alpha and       15 beta electrons

                       Distance Matrix (Angstroms)
             C (  1)   C (  2)   C (  3)   C (  4)   H (  5)   H (  6)
   C (  2)  1.324122
   C (  3)  2.450974  1.452242
   C (  4)  3.661931  2.450484  1.324124
   H (  5)  1.093080  2.115413  3.449887  4.563899
   H (  6)  1.097430  2.108964  2.709558  4.029409  1.870924
   H (  7)  2.099435  1.099059  2.175190  2.679366  2.446975  3.084467
   H (  8)  2.680170  2.175190  1.099059  2.099892  3.770858  2.471006
   H (  9)  4.029472  2.709558  2.108964  1.096571  4.749395  4.633558
   H ( 10)  4.564365  3.449887  2.115413  1.093929  5.535735  4.749395
             H (  7)   H (  8)   H (  9)
   H (  8)  3.125661
   H (  9)  2.471006  3.084467
   H ( 10)  3.770858  2.446975  1.870924
 
 Requested basis set is G3large
 There are 76 shells and 228 basis functions
 A cutoff of  1.0D-11 yielded   2755 shell pairs
 There are  24856 function pairs ( 30439 Cartesian)
Evaluating contribution to one-electron hamiltonian from nuclear
 Smallest overlap matrix eigenvalue = 1.13E-05
 Multipole matrices computed through 2nd order
 Guess MOs from SCF MO coefficient file
Reading MOs from coefficient file
Reading MOs from coefficient file
 A restricted hybrid HF-DFT SCF calculation will be
 performed using Pulay DIIS extrapolation
 Exchange:     1.0000 Hartree-Fock + 1.0000 BNL
 Correlation:  1.0000 LYP
 Using SG-1 standard quadrature grid
 SCF converges when DIIS error is below 1.0E-08
 ---------------------------------------
  Cycle       Energy         DIIS Error
 ---------------------------------------
    1    -154.0552477873      4.57E-05
    2    -154.0553142681      5.42E-06
    3    -154.0553144687      2.05E-06
    4    -154.0553145278      5.10E-07
    5    -154.0553145022      2.92E-07
    6    -154.0553145112      5.02E-08
    7    -154.0553145219      1.30E-08
    8    -154.0553145177      3.93E-09 Convergence criterion met
 ---------------------------------------
 One-Electron    Energy =  -414.0321414227
 Total Coulomb   Energy =   177.6097485337
 Alpha Exchange  Energy =    -2.5181367445
 Beta  Exchange  Energy =    -2.5181367445
 DFT   Exchange  Energy =   -15.7777682798
 DFT Correlation Energy =    -0.9636301550
 Nuclear Repu.   Energy =   104.1447502950
 Nuclear Attr.   Energy =  -567.2200818291
 Kinetic         Energy =   153.1879404064
 SCF time:  CPU 139.12 s  wall 140.54 s
 Final Alpha MO Eigenvalues
            1           2           3           4           5           6
    1  -9.9441039  -9.9439206  -9.9347000  -9.9346764  -0.9154681  -0.8403134
            7           8           9          10          11          12
    1  -0.7048213  -0.6568002  -0.5713252  -0.5681623  -0.4933829  -0.4782784
           13          14          15          16          17          18
    1  -0.4445023  -0.4368568  -0.3374368   0.0340162   0.0354635   0.0447866
           19          20
    1   0.0461218   0.0663057
 Analysis of SCF Wavefunction
 
 --------------------------------------------------------------
                    Orbital Energies (a.u.)
 --------------------------------------------------------------
 
 Alpha MOs
 -- Occupied --
 -9.944  -9.944  -9.935  -9.935  -0.915  -0.840  -0.705  -0.657
 -0.571  -0.568  -0.493  -0.478  -0.445  -0.437  -0.337
 -- Virtual --
  0.034   0.035   0.045   0.046   0.066   0.074   0.092   0.095
  0.109   0.124   0.139   0.142   0.157   0.174   0.176   0.178
  0.183   0.184   0.193   0.206   0.208   0.223   0.230   0.245
  0.283   0.284   0.307   0.322   0.342   0.383   0.441   0.448
  0.480   0.530   0.531   0.592   0.595   0.596   0.606   0.607
  0.609   0.635   0.635   0.642   0.682   0.692   0.699   0.714
  0.741   0.749   0.771   0.778   0.793   0.795   0.837   0.848
  0.855   0.861   0.885   0.932   0.999   1.004   1.048   1.073
  1.095   1.097   1.112   1.132   1.137   1.184   1.284   1.293
  1.303   1.306   1.312   1.356   1.381   1.443   1.470   1.517
  1.525   1.553   1.573   1.573   1.597   1.617   1.622   1.712
  1.735   1.809   1.922   1.975   2.099   2.567   2.604   2.648
  2.667   2.672   2.678   2.750   2.753   2.767   2.773   2.798
  2.802   2.843   2.865   2.908   2.950   2.977   2.981   2.999
  3.054   3.107   3.110   3.112   3.157   3.162   3.209   3.253
  3.264   3.294   3.302   3.310   3.344   3.360   3.364   3.395
  3.440   3.457   3.462   3.474   3.487   3.527   3.594   3.610
  3.625   3.751   3.765   3.780   3.836   3.855   3.861   3.879
  3.963   4.027   4.035   4.126   4.165   4.177   4.185   4.228
  4.274   4.299   4.307   4.388   4.390   4.477   4.534   4.622
  4.627   4.664   4.777   4.778   4.860   4.897   4.986   5.110
  5.241   5.335   5.482   5.571   5.636   5.852   5.853   6.016
  6.067  24.153  24.154  24.793  25.013  27.263  27.324  27.505
 27.533  27.987  28.188  28.234  28.285  28.330  28.418  28.447
 28.802  40.800  40.830  40.908  40.923  40.934  40.967  41.156
 41.163  41.183  41.192  41.209  41.223  41.250  41.277  41.290
 41.290  41.292  41.336  41.392  41.440
[...]
Order 1, Length 30
   0.0000022  -0.0350868   0.0000035   0.0000019   0.0073824   0.0000019  -0.0000016  -0.0086911   0.0000005  -0.0000000   0.0002888  -0.0000025  -0.0000019   0.0027277  -0.0000020  -0.0000005   0.0221973   0.0000003   0.0000006   0.0103113  -0.0000015   0.0000000   0.0002808   0.0000005   0.0000000   0.0003704   0.0000010   0.0000010   0.0002220   0.0000003
Order 1, Length 30
   0.1130524   0.0000003  -0.1204416   0.0283312  -0.0000008  -0.0122629   0.0020119   0.0000014   0.0015317  -0.0004561   0.0000008   0.0000744  -0.0122661  -0.0000010   0.0093797  -0.1287848   0.0000003   0.1258203  -0.0005824  -0.0000006  -0.0043307  -0.0011642   0.0000007  -0.0000273  -0.0000797   0.0000012   0.0002456  -0.0000604  -0.0000012   0.0000124
Order 1, Length 30
   0.0035432   0.0000000  -0.0020741  -0.2535478   0.0000038   0.1118907  -0.0200968  -0.0000020   0.0136105   0.0017031   0.0000000   0.0010646   0.0011432   0.0000001   0.0001334   0.0009141   0.0000006  -0.0005824   0.2679698  -0.0000002  -0.1203207  -0.0024950  -0.0000022  -0.0023647   0.0004003  -0.0000012  -0.0011645   0.0004629   0.0000010  -0.0001933
Order 1, Length 30
   0.0000009   0.0076214   0.0000035   0.0000025  -0.0409152  -0.0000065  -0.0000018   0.0040599  -0.0000047   0.0000011  -0.0012477  -0.0000005   0.0000012  -0.0074121   0.0000013  -0.0000023   0.0103113  -0.0000006  -0.0000002   0.0252486   0.0000008  -0.0000014   0.0022815   0.0000019   0.0000000   0.0002809   0.0000003   0.0000014  -0.0002331   0.0000016
Order 1, Length 30
   0.0277445   0.0000004  -0.0128556   0.1102879  -0.0000016  -0.1146760  -0.0150912  -0.0000003   0.0084043  -0.0008202   0.0000008   0.0017808  -0.0002802   0.0000013   0.0009410  -0.0002071  -0.0000015  -0.0043307  -0.1203207   0.0000008   0.1222536  -0.0023645   0.0000021  -0.0014963   0.0007760   0.0000006  -0.0000274   0.0002799  -0.0000003   0.0000067
Order 1, Length 30
   0.0017028   0.0000000   0.0010636  -0.0200961   0.0000021   0.0136104  -0.2535484   0.0000009   0.1118910   0.0035435   0.0000000  -0.0020721   0.0004623   0.0000000  -0.0001931   0.0004001   0.0000000  -0.0011642  -0.0024950  -0.0000014  -0.0023645   0.2679697  -0.0000010  -0.1203214   0.0009158  -0.0000002  -0.0005833   0.0011403  -0.0000008   0.0001327
Order 1, Length 30
   0.0000010  -0.0012477  -0.0000026  -0.0000005   0.0040598  -0.0000042   0.0000032  -0.0409152  -0.0000024   0.0000011   0.0076214   0.0000006   0.0000015  -0.0002330   0.0000018  -0.0000019   0.0002808   0.0000007  -0.0000022   0.0022815   0.0000021  -0.0000010   0.0252486   0.0000006  -0.0000016   0.0103113  -0.0000007   0.0000003  -0.0074120   0.0000011
Order 1, Length 30
  -0.0008214  -0.0000004   0.0017808  -0.0150922  -0.0000019   0.0084044   0.1102884  -0.0000024  -0.1146760   0.0277445   0.0000005  -0.0128556   0.0002793  -0.0000003   0.0000068   0.0007764   0.0000005  -0.0000273  -0.0023647   0.0000019  -0.0014963  -0.1203214   0.0000006   0.1222536  -0.0002070  -0.0000012  -0.0043307  -0.0002805   0.0000015   0.0009411
Order 1, Length 30
   0.0001868   0.0000000  -0.0001353   0.0015127   0.0000032  -0.0020138   0.0019569   0.0000000  -0.0001105  -0.2567358   0.0000000   0.1183929  -0.0000034   0.0000000   0.0001002  -0.0002194   0.0000000  -0.0000797   0.0004003   0.0000000   0.0007760   0.0009158  -0.0000016  -0.0002070   0.2652846  -0.0000008  -0.1287843  -0.0132934  -0.0000013   0.0120606
Order 1, Length 30
  -0.0000001   0.0002888  -0.0000025  -0.0000006  -0.0086911   0.0000001   0.0000020   0.0073824   0.0000029   0.0000025  -0.0350869   0.0000016   0.0000012   0.0002220   0.0000004  -0.0000011   0.0003704   0.0000012  -0.0000012   0.0002809   0.0000006  -0.0000002   0.0103113  -0.0000012  -0.0000008   0.0221973   0.0000006  -0.0000018   0.0027277  -0.0000016
Order 1, Length 30
  -0.0004569  -0.0000008   0.0000744   0.0020110  -0.0000005   0.0015317   0.0283316  -0.0000007  -0.0122629   0.1130517   0.0000009  -0.1204416  -0.0000615  -0.0000014   0.0000124  -0.0000791   0.0000010   0.0002456  -0.0011645   0.0000003  -0.0000274  -0.0005833  -0.0000007  -0.0043307  -0.1287843   0.0000006   0.1258203  -0.0122669  -0.0000007   0.0093797
Order 1, Length 30
   0.0002982  -0.0000006  -0.0000946   0.0005665   0.0000000   0.0001066   0.0043425  -0.0000025   0.0040173  -0.2580900   0.0000000  -0.1254219  -0.0000032   0.0000000   0.0000176  -0.0000060   0.0000010  -0.0000604   0.0004629   0.0000014   0.0002799   0.0011403   0.0000003  -0.0002805  -0.0132934  -0.0000018  -0.0122669   0.2645731  -0.0000007   0.1337039
Order 1, Length 30
   0.0000001  -0.0006241   0.0000041   0.0000003   0.0122847  -0.0000031  -0.0000004   0.0061539  -0.0000032   0.0000020  -0.0342162   0.0000001  -0.0000010  -0.0010621  -0.0000002   0.0000007   0.0002220  -0.0000012   0.0000010  -0.0002331  -0.0000003  -0.0000008  -0.0074120   0.0000015  -0.0000013   0.0027277  -0.0000007  -0.0000007   0.0221554   0.0000004
Order 1, Length 30
  -0.0014108  -0.0000003  -0.0002042   0.0020471  -0.0000027  -0.0040440  -0.0274768  -0.0000024  -0.0115052  -0.1189864   0.0000002  -0.1262751   0.0000162  -0.0000001  -0.0003866   0.0001004   0.0000003   0.0000124  -0.0001933   0.0000016   0.0000067   0.0001327   0.0000011   0.0009411   0.0120606  -0.0000016   0.0093797   0.1337039   0.0000004   0.1320761


 # Finishing finite difference calculation for IDERIV #
 ######################################################
 ######################################################
 Requested basis set is G3large
 There are 76 shells and 228 basis functions
 **********************************************************************
 **                                                                  **
 **                       VIBRATIONAL ANALYSIS                       **
 **                       --------------------                       **
 **                                                                  **
 **        VIBRATIONAL FREQUENCIES (CM**-1) AND NORMAL MODES         **
 **     FORCE CONSTANTS (mDYN/ANGSTROM) AND REDUCED MASSES (AMU)     **
 **                  INFRARED INTENSITIES (KM/MOL)                   **
 **                                                                  **
 **********************************************************************
 

 Mode:                 1                      2                      3
 Frequency:       156.94                 293.18                 516.82
 Force Cnst:      0.0368                 0.1074                 0.4095
 Red. Mass:       2.5380                 2.1199                 2.6023
 IR Active:          YES                    YES                    YES
 IR Intens:        0.585                  2.736                  0.000
 Raman Active:       YES                    YES                    YES
               X      Y      Z        X      Y      Z        X      Y      Z
 C          0.000 -0.174  0.000   -0.142  0.000 -0.004   -0.087  0.000 -0.189
 C          0.000  0.198  0.000    0.174  0.000 -0.006    0.068  0.000 -0.157
 C          0.000  0.198  0.000    0.174  0.000 -0.006   -0.068  0.000  0.157
 C          0.000 -0.174  0.000   -0.142  0.000 -0.004    0.087  0.000  0.189
 H          0.000 -0.261  0.000   -0.320  0.000  0.280   -0.251  0.000  0.066
 H          0.000 -0.436  0.000   -0.315  0.000 -0.293   -0.254  0.000 -0.471
 H          0.000  0.415  0.000    0.255  0.000  0.140   -0.002  0.000 -0.272
 H          0.000  0.415  0.000    0.255  0.000  0.140    0.002  0.000  0.272
 H          0.000 -0.436  0.000   -0.315  0.000 -0.292    0.254  0.000  0.471
 H          0.000 -0.261  0.000   -0.320  0.000  0.280    0.251  0.000 -0.066
 TransDip   0.000 -0.024  0.000    0.029  0.000  0.044    0.000  0.000  0.000

 Mode:                 4                      5                      6
 Frequency:       527.19                 777.42                 894.86
 Force Cnst:      0.1774                 0.5595                 0.8142
 Red. Mass:       1.0831                 1.5713                 1.7256
 IR Active:          YES                    YES                    YES
 IR Intens:       15.556                  0.000                  0.000
 Raman Active:       YES                    YES                    YES
               X      Y      Z        X      Y      Z        X      Y      Z
 C          0.000  0.017  0.000    0.000 -0.001  0.000    0.098  0.000  0.088
 C          0.000 -0.056  0.000    0.000 -0.160  0.000    0.117  0.000  0.041
 C          0.000 -0.056  0.000    0.000  0.160  0.000   -0.117  0.000 -0.041
 C          0.000  0.017  0.000    0.000  0.001  0.000   -0.098  0.000 -0.088
 H          0.000  0.500  0.000    0.000  0.627  0.000   -0.187  0.000  0.551
 H          0.000 -0.371  0.000    0.000 -0.277  0.000   -0.149  0.000 -0.314
 H          0.000  0.330  0.000    0.000  0.068  0.000    0.075  0.000 -0.047
 H          0.000  0.330  0.000    0.000 -0.068  0.000   -0.075  0.000  0.047
 H          0.000 -0.371  0.000    0.000  0.277  0.000    0.149  0.000  0.314
 H          0.000  0.500  0.000    0.000 -0.627  0.000    0.187  0.000 -0.551
 TransDip   0.000  0.126  0.000    0.000  0.000  0.000    0.000  0.000  0.000

 Mode:                 7                      8                      9
 Frequency:       937.04                 945.25                 977.79
 Force Cnst:      0.6218                 0.7026                 0.6730
 Red. Mass:       1.2020                 1.3346                 1.1948
 IR Active:          YES                    YES                    YES
 IR Intens:        0.000                108.815                  3.336
 Raman Active:       YES                    YES                    YES
               X      Y      Z        X      Y      Z        X      Y      Z
 C          0.000 -0.094  0.000    0.000 -0.118  0.000    0.082  0.000  0.013
 C          0.000  0.007  0.000    0.000  0.030  0.000   -0.038  0.000  0.011
 C          0.000 -0.007  0.000    0.000  0.030  0.000   -0.038  0.000  0.011
 C          0.000  0.094  0.000    0.000 -0.118  0.000    0.082  0.000  0.013
 H          0.000  0.250  0.000    0.000  0.435  0.000   -0.158  0.000  0.395
 H          0.000  0.592  0.000    0.000  0.538  0.000   -0.153  0.000 -0.375
 H          0.000  0.280  0.000    0.000  0.079  0.000   -0.221  0.000 -0.312
 H          0.000 -0.280  0.000    0.000  0.079  0.000   -0.221  0.000 -0.312
 H          0.000 -0.592  0.000    0.000  0.538  0.000   -0.153  0.000 -0.375
 H          0.000 -0.250  0.000    0.000  0.435  0.000   -0.158  0.000  0.395
 TransDip   0.000  0.000  0.000    0.000  0.334  0.000   -0.032  0.000 -0.049

 Mode:                10                     11                     12
 Frequency:       999.50                1031.67                1208.29
 Force Cnst:      0.8146                 0.7032                 1.4136
 Red. Mass:       1.3840                 1.1214                 1.6434
 IR Active:          YES                    YES                    YES
 IR Intens:        0.000                 23.930                  0.000
 Raman Active:       YES                    YES                    YES
               X      Y      Z        X      Y      Z        X      Y      Z
 C          0.000 -0.069  0.000    0.000  0.022  0.000    0.040  0.000  0.023
 C          0.000  0.111  0.000    0.000 -0.068  0.000   -0.163  0.000  0.008
 C          0.000 -0.111  0.000    0.000 -0.068  0.000    0.163  0.000 -0.008
 C          0.000  0.069  0.000    0.000  0.022  0.000   -0.040  0.000 -0.023
 H          0.000  0.383  0.000    0.000 -0.295  0.000   -0.058  0.000  0.173
 H          0.000 -0.035  0.000    0.000  0.257  0.000   -0.068  0.000 -0.147
 H          0.000 -0.579  0.000    0.000  0.585  0.000   -0.438  0.000 -0.468
 H          0.000  0.579  0.000    0.000  0.585  0.000    0.438  0.000  0.468
 H          0.000  0.035  0.000    0.000  0.257  0.000    0.068  0.000  0.147
 H          0.000 -0.383  0.000    0.000 -0.295  0.000    0.058  0.000 -0.173
 TransDip   0.000  0.000  0.000    0.000  0.157  0.000    0.000  0.000  0.000

 Mode:                13                     14                     15
 Frequency:      1277.11                1283.93                1372.15
 Force Cnst:      1.2264                 1.4188                 1.2655
 Red. Mass:       1.2762                 1.4608                 1.1408
 IR Active:          YES                    YES                    YES
 IR Intens:        2.845                  0.000                 15.452
 Raman Active:       YES                    YES                    YES
               X      Y      Z        X      Y      Z        X      Y      Z
 C          0.066  0.000 -0.041    0.069  0.000 -0.058    0.010  0.000 -0.001
 C         -0.079  0.000  0.004   -0.105  0.000  0.038   -0.014  0.000 -0.076
 C         -0.079  0.000  0.004    0.105  0.000 -0.038   -0.014  0.000 -0.076
 C          0.066  0.000 -0.041   -0.069  0.000  0.058    0.010  0.000 -0.001
 H         -0.024  0.000  0.095    0.056  0.000 -0.057   -0.254  0.000  0.447
 H         -0.063  0.000 -0.252   -0.151  0.000 -0.444    0.237  0.000  0.406
 H          0.245  0.000  0.592    0.139  0.000  0.484    0.070  0.000  0.058
 H          0.245  0.000  0.592   -0.139  0.000 -0.484    0.071  0.000  0.058
 H         -0.063  0.000 -0.252    0.151  0.000  0.444    0.237  0.000  0.406
 H         -0.024  0.000  0.095   -0.056  0.000  0.057   -0.254  0.000  0.447
 TransDip   0.052  0.000 -0.013    0.000  0.000  0.000   -0.025  0.000  0.123

 Mode:                16                     17                     18
 Frequency:      1423.25                1683.85                1756.52
 Force Cnst:      1.4948                 8.4975                10.8002
 Red. Mass:       1.2525                 5.0867                 5.9412
 IR Active:          YES                    YES                    YES
 IR Intens:        0.000                 22.525                  0.000
 Raman Active:       YES                    YES                    YES
               X      Y      Z        X      Y      Z        X      Y      Z
 C          0.021  0.000 -0.061    0.014  0.000  0.314   -0.004  0.000 -0.274
 C         -0.061  0.000 -0.057   -0.032  0.000 -0.293    0.090  0.000  0.376
 C          0.061  0.000  0.057   -0.032  0.000 -0.293   -0.090  0.000 -0.376
 C         -0.021  0.000  0.061    0.014  0.000  0.314    0.004  0.000  0.274
 H         -0.283  0.000  0.438    0.332  0.000 -0.109   -0.254  0.000  0.039
 H          0.244  0.000  0.326   -0.334  0.000 -0.184    0.270  0.000  0.102
 H          0.081  0.000  0.210    0.213  0.000  0.045   -0.280  0.000 -0.219
 H         -0.081  0.000 -0.210    0.213  0.000  0.045    0.280  0.000  0.219
 H         -0.244  0.000 -0.326   -0.334  0.000 -0.184   -0.270  0.000 -0.102
 H          0.283  0.000 -0.438    0.332  0.000 -0.109    0.254  0.000 -0.038
 TransDip   0.000  0.000  0.000   -0.029  0.000 -0.149    0.000  0.000  0.000

 Mode:                19                     20                     21
 Frequency:      3076.11                3079.75                3088.89
 Force Cnst:      5.9602                 5.9326                 6.1025
 Red. Mass:       1.0691                 1.0616                 1.0855
 IR Active:          YES                    YES                    YES
 IR Intens:        0.000                  7.862                  0.000
 Raman Active:       YES                    YES                    YES
               X      Y      Z        X      Y      Z        X      Y      Z
 C         -0.003  0.000  0.032   -0.006  0.000  0.042   -0.013  0.000  0.037
 C         -0.038  0.000  0.018   -0.024  0.000  0.009    0.036  0.000 -0.026
 C          0.038  0.000 -0.018   -0.024  0.000  0.009   -0.036  0.000  0.026
 C          0.003  0.000 -0.032   -0.006  0.000  0.042    0.013  0.000 -0.037
 H         -0.281  0.000 -0.167   -0.339  0.000 -0.203   -0.226  0.000 -0.137
 H          0.322  0.000 -0.186    0.418  0.000 -0.246    0.379  0.000 -0.223
 H          0.438  0.000 -0.248    0.285  0.000 -0.157   -0.419  0.000  0.236
 H         -0.437  0.000  0.247    0.285  0.000 -0.157    0.421  0.000 -0.238
 H         -0.322  0.000  0.186    0.418  0.000 -0.246   -0.380  0.000  0.224
 H          0.281  0.000  0.167   -0.340  0.000 -0.204    0.227  0.000  0.138
 TransDip   0.000  0.000  0.000   -0.082  0.000  0.036    0.000  0.000  0.000

 Mode:                22                     23                     24
 Frequency:      3091.39                3172.96                3173.06
 Force Cnst:      6.1618                 6.6264                 6.6242
 Red. Mass:       1.0943                 1.1171                 1.1167
 IR Active:          YES                    YES                    YES
 IR Intens:        3.245                  0.000                  6.252
 Raman Active:       YES                    YES                    YES
               X      Y      Z        X      Y      Z        X      Y      Z
 C          0.012  0.000 -0.026    0.070  0.000  0.009   -0.069  0.000 -0.010
 C         -0.045  0.000  0.033    0.006  0.000 -0.004   -0.006  0.000  0.005
 C         -0.045  0.000  0.033   -0.006  0.000  0.004   -0.006  0.000  0.005
 C          0.012  0.000 -0.026   -0.070  0.000 -0.009   -0.069  0.000 -0.010
 H          0.118  0.000  0.069   -0.483  0.000 -0.303    0.483  0.000  0.303
 H         -0.269  0.000  0.155   -0.348  0.000  0.211    0.346  0.000 -0.211
 H          0.539  0.000 -0.304   -0.054  0.000  0.034    0.070  0.000 -0.038
 H          0.538  0.000 -0.303    0.054  0.000 -0.034    0.070  0.000 -0.038
 H         -0.266  0.000  0.154    0.348  0.000 -0.211    0.346  0.000 -0.211
 H          0.117  0.000  0.069    0.483  0.000  0.303    0.482  0.000  0.302
 TransDip  -0.057  0.000  0.005    0.000  0.000  0.000   -0.079  0.000  0.014

 STANDARD THERMODYNAMIC QUANTITIES AT   298.18 K  AND     1.00 ATM

   This Molecule has  0 Imaginary Frequencies
   Zero point vibrational energy:       52.529 kcal/mol

   Atom    1 Element C  Has Mass   12.00000
   Atom    2 Element C  Has Mass   12.00000
   Atom    3 Element C  Has Mass   12.00000
   Atom    4 Element C  Has Mass   12.00000
   Atom    5 Element H  Has Mass    1.00783
   Atom    6 Element H  Has Mass    1.00783
   Atom    7 Element H  Has Mass    1.00783
   Atom    8 Element H  Has Mass    1.00783
   Atom    9 Element H  Has Mass    1.00783
   Atom   10 Element H  Has Mass    1.00783
   Molecular Mass:    54.046980 amu
   Principal axes and moments of inertia in atomic units:
                             1           2           3
    Eigenvalues --       43.04844   400.77196   443.82040
          X               0.38745     0.92189     0.00000
          Y               0.00000     0.00000     1.00000
          Z               0.92189    -0.38745     0.00000
   Rotational Symmetry Number is   1
   The Molecule is an Asymmetric Top
   Translational Enthalpy:        0.889 kcal/mol
   Rotational Enthalpy:           0.889 kcal/mol
   Vibrational Enthalpy:         53.709 kcal/mol
   gas constant (RT):             0.593 kcal/mol
   Translational Entropy:        37.884  cal/mol.K
   Rotational Entropy:           23.553  cal/mol.K
   Vibrational Entropy:           6.283  cal/mol.K

   Total Enthalpy:               56.079 kcal/mol
   Total Entropy:                67.720  cal/mol.K
 Total job time:  14347.75s(wall), 14268.94s(cpu) 
 Sat Apr 23 19:06:27 2011

        *************************************************************
        *                                                           *
        *  Thank you very much for using Q-Chem.  Have a nice day.  *
        *                                                           *
        *************************************************************


0 sent ACK to 0 
now end server 0 ... 
