Process 0 of 1 is on cl182.stfx.acenet.ca - thread support 1
initial socket setup ...start
initial socket setup ...done 
now start server 0 ... 

cmd = /usr/bin/ssh clhead /usr/local/qchem/bin/get_hostid 7524678 > /scratch/tmp/6064875.1.medium.q/qchem4443/lic.dat
                  Welcome to Q-Chem
     A Quantum Leap Into The Future Of Chemistry

 Y. Shao, L. Fusti-Molnar, Y. Jung, J. Kussmann, C. Ochsenfeld,
 S. T. Brown, A. T. B. Gilbert, L. V. Slipchenko,S. V. Levchenko,
 D. P. O'Neill, R. A. DiStasio Jr., R. C. Lochan, T. Wang,
 G. J. O. Beran, N. A. Besley, J. M. Herbert, C. Y. Lin,
 T. Van Voorhis, S. H. Chien, A. Sodt, R. P. Steele, 
 V. A. Rassolov, P. E. Maslen, P. P. Korambath, R. D. Adamson,
 B. Austin, J. Baker, E. F. C. Byrd, H. Dachsel, R. J. Doerksen,
 A. Dreuw, B. D. Dunietz, A. D. Dutoi, T. R. Furlani,
 S. R. Gwaltney, A. Heyden, S. Hirata, C.-P. Hsu, G. Kedziora,
 R. Z. Khaliullin, P. Klunzinger, A. M. Lee, M. S. Lee, W. Liang,
 I. Lotan, N. Nair, B. Peters, E. I. Proynov, P. A. Pieniazek, 
 Y. M. Rhee, J. Ritchie, E. Rosta, C. D. Sherrill, 
 A. C. Simmonett, J. E. Subotnik, H. L. Woodcock III,
 W. Zhang, A. T. Bell, A. K. Chakraborty, D. M. Chipman,
 F. J. Keil, A. Warshel, W. J. Hehre, H. F. Schaefer III,
 J. Kong, A. I. Krylov, P. M. W. Gill, M. Head-Gordon,
 Q-Chem, Version 3.1, Q-Chem, Inc., Pittsburgh, PA (2007).

 Additional authors for Version 3.1: 
 Z. Gan, Y. Zhao, N. E. Schultz, D. Truhlar, E. Epifanovsky and M. Oana.

 Additional authors for Version 3.2: 
 R. Baer, B. R. Brooks, D. Casanova, J.-D. Chai, C.-L. Cheng, 
 C. Cramer, D. Crittenden, A. Ghysels, G. Hawkins, E. G. Hohenstein, 
 C. Kelley, W. Kurlancheek, D. Liotard, E. Livshits, P. Manohar, 
 A. Marenich, D. Neuhauser, R. Olson, M. A. Rohrdanz, K. S. Thanthiriwatte, 
 A. J. W. Thom, V. Vanovschi, C. F. Williams, Q. Wu and Z.-Q. You. 


 Intel X86 Linux Version

 Q-chem begins on Mon Jul  8 12:27:05 2013  

 Parallel job on  1  processors
Processing $rem in /usr/local/qchem/config/preferences.

theFileMan(): MAXOPENFILES=974 MAX_SUB_FILE_NUM=16
Maximum size of a physical file is 2.0 GB, maximum size of a tmp-file is 32.0 GB


--------------------------------------------------------------
User input:
--------------------------------------------------------------

$molecule
-1,2
C         -0.00013        0.00000        0.01496
Si        -0.00042        0.00000        1.87479
H          1.01781        0.00000       -0.37178
H         -0.50853       -0.88134       -0.37292
H         -0.50853        0.88134       -0.37292
H         -1.38686        0.00000        2.39921
H          0.69333       -1.20114        2.39726
H          0.69333        1.20114        2.39726
$end

$comment
negative
$end

$xc_functional
C PBE   1.00
X wPBE  1.00
$end

$rem
SYMMETRY_DECOMPOSITION	0
exchange 		general
LRC_DFT                 true
BASIS                   g3large
omega			100
mem_static              760
max_scf_cycles          200
scf_final_print         1
sym_ignore              true
$end

--------------------------------------------------------------
 Writing REM_CC_EA            8
 ----------------------------------------------------
       Standard Nuclear Orientation (Angstroms)
    I     Atom         X            Y            Z
 ----------------------------------------------------
    1      C      -0.000130     0.000000     0.014960
    2      Si     -0.000420     0.000000     1.874790
    3      H       1.017810     0.000000    -0.371780
    4      H      -0.508530    -0.881340    -0.372920
    5      H      -0.508530     0.881340    -0.372920
    6      H      -1.386860     0.000000     2.399210
    7      H       0.693330    -1.201140     2.397260
    8      H       0.693330     1.201140     2.397260
 ----------------------------------------------------
 Nuclear Repulsion Energy =    63.1460299075 hartrees
 There are       14 alpha and       13 beta electrons
 Requested basis set is G3large
 There are 65 shells and 168 basis functions

Total QAlloc Memory Limit   2000 MB
Mega-Array Size       743 MB
MEM_STATIC part       760 MB

                       Distance Matrix (Angstroms)
             C (  1)   Si(  2)   H (  3)   H (  4)   H (  5)   H (  6)
   Si(  2)  1.859830
   H (  3)  1.088931  2.466550
   H (  4)  1.088890  2.467212  1.762520
   H (  5)  1.088890  2.467212  1.762520  1.762680
   H (  6)  2.758200  1.482306  3.668899  3.038573  3.038573
   H (  7)  2.756624  1.482228  3.035722  3.036550  3.668118  2.402068
   H (  8)  2.756624  1.482228  3.035722  3.668118  3.036550  2.402068
             H (  7)
   H (  8)  2.402280
 
 A cutoff of  1.0D-08 yielded   2044 shell pairs
 There are  13820 function pairs ( 17231 Cartesian)
Evaluating contribution to one-electron hamiltonian from nuclear
 Smallest overlap matrix eigenvalue = 1.35E-04
 Multipole matrices computed through 2nd order

  Scale SEOQF with 1.000000e-01/1.000000e-01/1.000000e-01

 Standard Electronic Orientation quadrupole field applied
 Nucleus-field energy     =    -0.0000000067 hartrees
 Guess from superposition of atomic densities
 Warning:  Energy on first SCF cycle will be non-variational
 Long-range K will be added via erf
 Coulomb attenuation parameter = 0.1 bohr**(-1)
 An unrestricted Kohn-Sham SCF calculation will be
 performed using Pulay DIIS extrapolation
 Exchange:  wPBE + LR-HF      Correlation:  PBE
 Using SG-1 standard quadrature grid
 SCF converges when DIIS error is below 1.0E-05
 Requested basis set is G3large
 There are 65 shells and 168 basis functions
 A cutoff of  1.0D-08 yielded   2044 shell pairs
 There are  13820 function pairs ( 17231 Cartesian)
 Warning!  Inaccurate integrated density:
   Number of electrons =    27
   Numerical integral  =    25.999984890803
   Relative error      =    -3.7037596637 %
 ---------------------------------------
  Cycle       Energy         DIIS Error
 ---------------------------------------
    1    -331.0361886883      2.74E-02
    2    -330.8283327544      5.42E-03
    3    -330.8202408842      6.43E-03
    4    -330.9876847799      5.14E-04
    5    -330.9915102785      2.31E-04
    6    -330.9931707867      1.20E-04
    7    -330.9939715215      5.09E-05
    8    -330.9943887779      2.19E-05
    9    -330.9945226721      1.22E-05
   10    -330.9945796966      6.46E-06 Convergence criterion met
 ---------------------------------------
 One-Electron    Energy =  -585.0341085139
 Total Coulomb   Energy =   219.3500865532
 Alpha Exchange  Energy =    -0.7689442351
 Beta  Exchange  Energy =    -0.7253851032
 DFT   Exchange  Energy =   -26.0756749391
 DFT Correlation Energy =    -0.8865833592
 Nuclear Repu.   Energy =    63.1460299008
 Nuclear Attr.   Energy =  -915.5210000500
 Kinetic         Energy =   330.4868915361
 <S^2> = 0.7501
 SCF time:  CPU 103.92 s  wall 105.21 s
 Final Alpha MO Eigenvalues
            1           2           3           4           5           6
    1 -65.2966630  -9.7757518  -4.9567562  -3.3669538  -3.3669388  -3.3656916
            7           8           9          10          11          12
    1  -0.5515164  -0.3926257  -0.2822354  -0.2821994  -0.2182665  -0.2182533
           13          14          15          16          17          18
    1  -0.2071854   0.0303749   0.1353279   0.1380095   0.1380528   0.1587192
           19
    1   0.1695418
 Final Beta MO Eigenvalues
            1           2           3           4           5           6
    1 -65.2965535  -9.7750770  -4.9566206  -3.3668851  -3.3668705  -3.3653322
            7           8           9          10          11          12
    1  -0.5502731  -0.3910091  -0.2807836  -0.2807472  -0.2173731  -0.2173614
           13          14          15          16          17          18
    1  -0.2057756   0.1252416   0.1395427   0.1547742   0.1548123   0.1681917
 Analysis of SCF Wavefunction
 
 --------------------------------------------------------------
                    Orbital Energies (a.u.)
 --------------------------------------------------------------
 
 Alpha MOs
 -- Occupied --
-65.297  -9.776  -4.957  -3.367  -3.367  -3.366  -0.552  -0.393
 -0.282  -0.282  -0.218  -0.218  -0.207   0.030
 -- Virtual --
  0.135   0.138   0.138   0.159   0.170   0.170   0.180   0.181
  0.228   0.237   0.237   0.237   0.252   0.252   0.273   0.280
  0.290   0.307   0.307   0.368   0.368   0.421   0.423   0.423
  0.432   0.476   0.476   0.542   0.563   0.563   0.575   0.595
  0.633   0.634   0.654   0.683   0.683   0.699   0.732   0.732
  0.793   0.826   0.836   0.836   0.875   0.875   0.948   0.948
  0.955   0.981   0.991   1.036   1.115   1.115   1.173   1.173
  1.218   1.250   1.250   1.320   1.320   1.370   1.407   1.438
  1.438   1.443   1.451   1.451   1.530   1.530   1.599   1.600
  1.611   1.655   1.655   1.704   1.745   2.231   2.273   2.280
  2.280   2.344   2.345   2.457   2.618   2.618   2.724   2.927
  2.927   3.052   3.075   3.205   3.214   3.215   3.327   3.327
  3.428   3.428   3.469   3.643   3.644   3.760   3.762   3.781
  3.889   3.891   3.994   4.029   4.029   4.159   4.161   4.161
  4.209   4.228   4.228   4.337   4.337   4.345   4.468   4.480
  4.480   4.542   4.593   4.738   4.739   5.148   5.760   5.760
  6.318  11.449  11.449  11.787  17.567  17.657  17.745  17.834
 17.893  22.186  22.200  22.209  22.209  22.216  22.217  22.242
 24.118  27.824  28.083  28.083  40.938  40.954  41.195  41.236
 41.283 141.102
 
 Beta MOs
 -- Occupied --
-65.297  -9.775  -4.957  -3.367  -3.367  -3.365  -0.550  -0.391
 -0.281  -0.281  -0.217  -0.217  -0.206
 -- Virtual --
  0.125   0.140   0.155   0.155   0.168   0.173   0.173   0.190
  0.190   0.233   0.238   0.238   0.240   0.256   0.256   0.274
  0.282   0.294   0.311   0.311   0.371   0.371   0.425   0.425
  0.425   0.432   0.478   0.479   0.545   0.565   0.565   0.577
  0.597   0.635   0.635   0.657   0.685   0.685   0.701   0.734
  0.734   0.796   0.828   0.837   0.837   0.875   0.875   0.948
  0.949   0.957   0.984   0.995   1.038   1.116   1.116   1.175
  1.175   1.219   1.252   1.252   1.321   1.321   1.372   1.410
  1.441   1.441   1.444   1.452   1.453   1.534   1.534   1.603
  1.603   1.613   1.657   1.657   1.708   1.749   2.231   2.276
  2.282   2.282   2.346   2.346   2.458   2.619   2.619   2.725
  2.927   2.927   3.053   3.076   3.205   3.216   3.216   3.329
  3.329   3.429   3.429   3.470   3.645   3.645   3.761   3.762
  3.784   3.890   3.891   3.996   4.030   4.030   4.159   4.161
  4.161   4.209   4.228   4.228   4.338   4.338   4.346   4.469
  4.481   4.481   4.543   4.594   4.739   4.739   5.150   5.762
  5.762   6.318  11.449  11.450  11.788  17.567  17.657  17.745
 17.834  17.893  22.186  22.200  22.209  22.209  22.216  22.217
 22.242  24.119  27.825  28.083  28.083  40.938  40.954  41.196
 41.237  41.283 141.102
 --------------------------------------------------------------
 
          Ground-State Mulliken Net Atomic Charges

     Atom                 Charge (a.u.)    Spin (a.u.)
  --------------------------------------------------------
      1 C                     2.597227      -2.902602
      2 Si                    0.921616      -0.648360
      3 H                    -1.186690       1.304608
      4 H                    -1.186679       1.304595
      5 H                    -1.181159       1.298896
      6 H                    -0.321314       0.214330
      7 H                    -0.321449       0.214299
      8 H                    -0.321552       0.214234
  --------------------------------------------------------
  Sum of atomic charges =    -1.000000
  Sum of spin   charges =     1.000000

 -----------------------------------------------------------------
                    Cartesian Multipole Moments
 -----------------------------------------------------------------
    Charge (ESU x 10^10)
                -4.8032
    Dipole Moment (Debye)
         X      -0.0117      Y       0.0208      Z       1.1913
       Tot       1.1915
    Quadrupole Moments (Debye-Ang)
        XX     -49.4370     XY      -0.0169     YY     -49.4183
        XZ      -0.0056     YZ      -0.0064     ZZ     -47.7136
    Octapole Moments (Debye-Ang^2)
       XXX      -1.0663    XXY       0.0827    XYY       0.8774
       YYY       0.2480    XXZ     -22.5736    XYZ       0.0050
       YYZ     -22.5691    XZZ      -0.0277    YZZ       0.0760
       ZZZ     -78.9948
    Hexadecapole Moments (Debye-Ang^3)
      XXXX    -370.4229   XXXY      -0.1346   XXYY    -123.4152
      XYYY      -0.1468   YYYY    -370.1224   XXXZ       8.1313
      XXYZ      -0.0072   XYYZ      -8.1820   YYYZ      -0.0216
      XXZZ    -178.5785   XYZZ      -0.0460   YYZZ    -178.5212
      XZZZ      -0.0073   YZZZ      -0.0251   ZZZZ    -662.9309
 -----------------------------------------------------------------
 Total job time:  105.41s(wall), 104.10s(cpu) 
 Mon Jul  8 12:28:50 2013

        *************************************************************
        *                                                           *
        *  Thank you very much for using Q-Chem.  Have a nice day.  *
        *                                                           *
        *************************************************************


0 sent ACK to 0 
now end server 0 ... 
 
**********************************************************************
Job 2 of 3 
**********************************************************************
 
Process 0 of 1 is on cl182.stfx.acenet.ca - thread support 1
initial socket setup ...start
initial socket setup ...done 
now start server 0 ... 

cmd = /usr/bin/ssh clhead /usr/local/qchem/bin/get_hostid 140913244 > /scratch/tmp/6064875.1.medium.q/qchem4443/lic.dat
                  Welcome to Q-Chem
     A Quantum Leap Into The Future Of Chemistry

 Y. Shao, L. Fusti-Molnar, Y. Jung, J. Kussmann, C. Ochsenfeld,
 S. T. Brown, A. T. B. Gilbert, L. V. Slipchenko,S. V. Levchenko,
 D. P. O'Neill, R. A. DiStasio Jr., R. C. Lochan, T. Wang,
 G. J. O. Beran, N. A. Besley, J. M. Herbert, C. Y. Lin,
 T. Van Voorhis, S. H. Chien, A. Sodt, R. P. Steele, 
 V. A. Rassolov, P. E. Maslen, P. P. Korambath, R. D. Adamson,
 B. Austin, J. Baker, E. F. C. Byrd, H. Dachsel, R. J. Doerksen,
 A. Dreuw, B. D. Dunietz, A. D. Dutoi, T. R. Furlani,
 S. R. Gwaltney, A. Heyden, S. Hirata, C.-P. Hsu, G. Kedziora,
 R. Z. Khaliullin, P. Klunzinger, A. M. Lee, M. S. Lee, W. Liang,
 I. Lotan, N. Nair, B. Peters, E. I. Proynov, P. A. Pieniazek, 
 Y. M. Rhee, J. Ritchie, E. Rosta, C. D. Sherrill, 
 A. C. Simmonett, J. E. Subotnik, H. L. Woodcock III,
 W. Zhang, A. T. Bell, A. K. Chakraborty, D. M. Chipman,
 F. J. Keil, A. Warshel, W. J. Hehre, H. F. Schaefer III,
 J. Kong, A. I. Krylov, P. M. W. Gill, M. Head-Gordon,
 Q-Chem, Version 3.1, Q-Chem, Inc., Pittsburgh, PA (2007).

 Additional authors for Version 3.1: 
 Z. Gan, Y. Zhao, N. E. Schultz, D. Truhlar, E. Epifanovsky and M. Oana.

 Additional authors for Version 3.2: 
 R. Baer, B. R. Brooks, D. Casanova, J.-D. Chai, C.-L. Cheng, 
 C. Cramer, D. Crittenden, A. Ghysels, G. Hawkins, E. G. Hohenstein, 
 C. Kelley, W. Kurlancheek, D. Liotard, E. Livshits, P. Manohar, 
 A. Marenich, D. Neuhauser, R. Olson, M. A. Rohrdanz, K. S. Thanthiriwatte, 
 A. J. W. Thom, V. Vanovschi, C. F. Williams, Q. Wu and Z.-Q. You. 


 Intel X86 Linux Version

 Q-chem begins on Mon Jul  8 12:28:53 2013  

 Parallel job on  1  processors
Processing $rem in /usr/local/qchem/config/preferences.

theFileMan(): MAXOPENFILES=974 MAX_SUB_FILE_NUM=16
Maximum size of a physical file is 2.0 GB, maximum size of a tmp-file is 32.0 GB


--------------------------------------------------------------
User input:
--------------------------------------------------------------

$molecule
0,1
C         -0.00013        0.00000        0.01496
Si        -0.00042        0.00000        1.87479
H          1.01781        0.00000       -0.37178
H         -0.50853       -0.88134       -0.37292
H         -0.50853        0.88134       -0.37292
H         -1.38686        0.00000        2.39921
H          0.69333       -1.20114        2.39726
H          0.69333        1.20114        2.39726
$end

$comment
neutral
$end

$xc_functional
C PBE   1.00
X wPBE  1.00
$end


$rem
SYMMETRY_DECOMPOSITION	0
LRC_DFT                 true
exchange 		general
BASIS                   g3large
omega			100
mem_static              760
max_scf_cycles          200
scf_final_print         1
sym_ignore              true
$end

--------------------------------------------------------------
 Writing REM_CC_EA            8
 ----------------------------------------------------
       Standard Nuclear Orientation (Angstroms)
    I     Atom         X            Y            Z
 ----------------------------------------------------
    1      C      -0.000130     0.000000     0.014960
    2      Si     -0.000420     0.000000     1.874790
    3      H       1.017810     0.000000    -0.371780
    4      H      -0.508530    -0.881340    -0.372920
    5      H      -0.508530     0.881340    -0.372920
    6      H      -1.386860     0.000000     2.399210
    7      H       0.693330    -1.201140     2.397260
    8      H       0.693330     1.201140     2.397260
 ----------------------------------------------------
 Nuclear Repulsion Energy =    63.1460299075 hartrees
 There are       13 alpha and       13 beta electrons
 Requested basis set is G3large
 There are 65 shells and 168 basis functions

Total QAlloc Memory Limit   2000 MB
Mega-Array Size       743 MB
MEM_STATIC part       760 MB

                       Distance Matrix (Angstroms)
             C (  1)   Si(  2)   H (  3)   H (  4)   H (  5)   H (  6)
   Si(  2)  1.859830
   H (  3)  1.088931  2.466550
   H (  4)  1.088890  2.467212  1.762520
   H (  5)  1.088890  2.467212  1.762520  1.762680
   H (  6)  2.758200  1.482306  3.668899  3.038573  3.038573
   H (  7)  2.756624  1.482228  3.035722  3.036550  3.668118  2.402068
   H (  8)  2.756624  1.482228  3.035722  3.668118  3.036550  2.402068
             H (  7)
   H (  8)  2.402280
 
 A cutoff of  1.0D-08 yielded   2044 shell pairs
 There are  13820 function pairs ( 17231 Cartesian)
Evaluating contribution to one-electron hamiltonian from nuclear
 Smallest overlap matrix eigenvalue = 1.35E-04
 Multipole matrices computed through 2nd order

  Scale SEOQF with 1.000000e-01/1.000000e-01/1.000000e-01

 Standard Electronic Orientation quadrupole field applied
 Nucleus-field energy     =    -0.0000000067 hartrees
 Guess from superposition of atomic densities
 Warning:  Energy on first SCF cycle will be non-variational
 Long-range K will be added via erf
 Coulomb attenuation parameter = 0.1 bohr**(-1)
 A restricted Kohn-Sham SCF calculation will be
 performed using Pulay DIIS extrapolation
 Exchange:  wPBE + LR-HF      Correlation:  PBE
 Using SG-1 standard quadrature grid
 SCF converges when DIIS error is below 1.0E-05
 Requested basis set is G3large
 There are 65 shells and 168 basis functions
 A cutoff of  1.0D-08 yielded   2044 shell pairs
 There are  13820 function pairs ( 17231 Cartesian)
 ---------------------------------------
  Cycle       Energy         DIIS Error
 ---------------------------------------
    1    -331.0361886883      2.74E-02
    2    -330.9448671153      4.50E-03
    3    -330.9335119347      4.77E-03
    4    -331.0175625536      3.11E-04
    5    -331.0179591568      6.10E-05
    6    -331.0179709097      1.34E-05
    7    -331.0179722770      2.95E-06 Convergence criterion met
 ---------------------------------------
 One-Electron    Energy =  -581.4971342610
 Total Coulomb   Energy =   215.7028999182
 Alpha Exchange  Energy =    -0.7255022126
 Beta  Exchange  Energy =    -0.7255022126
 DFT   Exchange  Energy =   -26.0407563530
 DFT Correlation Energy =    -0.8780070568
 Nuclear Repu.   Energy =    63.1460299008
 Nuclear Attr.   Energy =  -911.9208131929
 Kinetic         Energy =   330.4236789319
 SCF time:  CPU 57.81 s  wall 58.40 s
 Final Alpha MO Eigenvalues
            1           2           3           4           5           6
    1 -65.4294603  -9.9238374  -5.0897535  -3.4996763  -3.4996626  -3.4991435
            7           8           9          10          11          12
    1  -0.6971875  -0.5248117  -0.4270680  -0.4270370  -0.3486535  -0.3486449
           13          14          15          16          17          18
    1  -0.3460932   0.0172889   0.0409911   0.0536374   0.0536403   0.0637848
 Analysis of SCF Wavefunction
 
 --------------------------------------------------------------
                    Orbital Energies (a.u.)
 --------------------------------------------------------------
 
 Alpha MOs
 -- Occupied --
-65.429  -9.924  -5.090  -3.500  -3.500  -3.499  -0.697  -0.525
 -0.427  -0.427  -0.349  -0.349  -0.346
 -- Virtual --
  0.017   0.041   0.054   0.054   0.064   0.065   0.065   0.090
  0.090   0.118   0.118   0.122   0.137   0.149   0.149   0.161
  0.168   0.180   0.184   0.184   0.240   0.240   0.302   0.307
  0.307   0.316   0.360   0.360   0.426   0.437   0.437   0.452
  0.466   0.503   0.503   0.532   0.554   0.554   0.573   0.599
  0.599   0.662   0.698   0.706   0.706   0.748   0.748   0.822
  0.823   0.824   0.849   0.851   0.906   0.978   0.978   1.042
  1.042   1.086   1.106   1.107   1.194   1.194   1.232   1.273
  1.303   1.303   1.317   1.320   1.320   1.391   1.391   1.462
  1.463   1.475   1.528   1.528   1.571   1.609   2.099   2.141
  2.145   2.145   2.212   2.212   2.327   2.473   2.473   2.580
  2.798   2.798   2.904   2.931   3.072   3.072   3.075   3.181
  3.181   3.284   3.284   3.329   3.499   3.499   3.623   3.624
  3.636   3.758   3.760   3.848   3.887   3.887   4.030   4.033
  4.033   4.081   4.095   4.095   4.193   4.193   4.214   4.321
  4.334   4.334   4.395   4.461   4.606   4.606   5.001   5.613
  5.613   6.185  11.317  11.317  11.654  17.434  17.524  17.611
 17.701  17.760  22.053  22.067  22.076  22.076  22.083  22.084
 22.109  23.970  27.677  27.935  27.935  40.790  40.806  41.047
 41.088  41.135 140.969
 --------------------------------------------------------------
 
          Ground-State Mulliken Net Atomic Charges

     Atom                 Charge (a.u.)
  ----------------------------------------
      1 C                    -0.346094
      2 Si                    0.249553
      3 H                     0.114947
      4 H                     0.114863
      5 H                     0.114885
      6 H                    -0.082545
      7 H                    -0.082801
      8 H                    -0.082807
  ----------------------------------------
  Sum of atomic charges =     0.000000

 -----------------------------------------------------------------
                    Cartesian Multipole Moments
 -----------------------------------------------------------------
    Charge (ESU x 10^10)
                 0.0000
    Dipole Moment (Debye)
         X      -0.0008      Y       0.0003      Z      -0.8590
       Tot       0.8590
    Quadrupole Moments (Debye-Ang)
        XX     -23.0960     XY       0.0001     YY     -23.0966
        XZ      -0.0016     YZ       0.0002     ZZ     -25.4231
    Octapole Moments (Debye-Ang^2)
       XXX       1.5857    XXY       0.0001    XYY      -1.5663
       YYY       0.0004    XXZ     -31.8048    XYZ       0.0001
       YYZ     -31.8078    XZZ       0.0014    YZZ       0.0006
       ZZZ     -93.8152
    Hexadecapole Moments (Debye-Ang^3)
      XXXX     -57.9219   XXXY       0.0002   XXYY     -19.3086
      XYYY       0.0002   YYYY     -57.9290   XXXZ       1.2831
      XXYZ       0.0001   XYYZ      -1.2398   YYYZ       0.0002
      XXZZ     -81.8936   XYZZ       0.0001   YYZZ     -81.8979
      XZZZ       0.0328   YZZZ       0.0010   ZZZZ    -413.2090
 -----------------------------------------------------------------
 Total job time:  58.59s(wall), 57.99s(cpu) 
 Mon Jul  8 12:29:52 2013

        *************************************************************
        *                                                           *
        *  Thank you very much for using Q-Chem.  Have a nice day.  *
        *                                                           *
        *************************************************************


0 sent ACK to 0 
now end server 0 ... 
 
**********************************************************************
Job 3 of 3 
**********************************************************************
 
Process 0 of 1 is on cl182.stfx.acenet.ca - thread support 1
initial socket setup ...start
initial socket setup ...done 
now start server 0 ... 

cmd = /usr/bin/ssh clhead /usr/local/qchem/bin/get_hostid 1990521353 > /scratch/tmp/6064875.1.medium.q/qchem4443/lic.dat
                  Welcome to Q-Chem
     A Quantum Leap Into The Future Of Chemistry

 Y. Shao, L. Fusti-Molnar, Y. Jung, J. Kussmann, C. Ochsenfeld,
 S. T. Brown, A. T. B. Gilbert, L. V. Slipchenko,S. V. Levchenko,
 D. P. O'Neill, R. A. DiStasio Jr., R. C. Lochan, T. Wang,
 G. J. O. Beran, N. A. Besley, J. M. Herbert, C. Y. Lin,
 T. Van Voorhis, S. H. Chien, A. Sodt, R. P. Steele, 
 V. A. Rassolov, P. E. Maslen, P. P. Korambath, R. D. Adamson,
 B. Austin, J. Baker, E. F. C. Byrd, H. Dachsel, R. J. Doerksen,
 A. Dreuw, B. D. Dunietz, A. D. Dutoi, T. R. Furlani,
 S. R. Gwaltney, A. Heyden, S. Hirata, C.-P. Hsu, G. Kedziora,
 R. Z. Khaliullin, P. Klunzinger, A. M. Lee, M. S. Lee, W. Liang,
 I. Lotan, N. Nair, B. Peters, E. I. Proynov, P. A. Pieniazek, 
 Y. M. Rhee, J. Ritchie, E. Rosta, C. D. Sherrill, 
 A. C. Simmonett, J. E. Subotnik, H. L. Woodcock III,
 W. Zhang, A. T. Bell, A. K. Chakraborty, D. M. Chipman,
 F. J. Keil, A. Warshel, W. J. Hehre, H. F. Schaefer III,
 J. Kong, A. I. Krylov, P. M. W. Gill, M. Head-Gordon,
 Q-Chem, Version 3.1, Q-Chem, Inc., Pittsburgh, PA (2007).

 Additional authors for Version 3.1: 
 Z. Gan, Y. Zhao, N. E. Schultz, D. Truhlar, E. Epifanovsky and M. Oana.

 Additional authors for Version 3.2: 
 R. Baer, B. R. Brooks, D. Casanova, J.-D. Chai, C.-L. Cheng, 
 C. Cramer, D. Crittenden, A. Ghysels, G. Hawkins, E. G. Hohenstein, 
 C. Kelley, W. Kurlancheek, D. Liotard, E. Livshits, P. Manohar, 
 A. Marenich, D. Neuhauser, R. Olson, M. A. Rohrdanz, K. S. Thanthiriwatte, 
 A. J. W. Thom, V. Vanovschi, C. F. Williams, Q. Wu and Z.-Q. You. 


 Intel X86 Linux Version

 Q-chem begins on Mon Jul  8 12:29:55 2013  

 Parallel job on  1  processors
Processing $rem in /usr/local/qchem/config/preferences.

theFileMan(): MAXOPENFILES=974 MAX_SUB_FILE_NUM=16
Maximum size of a physical file is 2.0 GB, maximum size of a tmp-file is 32.0 GB


--------------------------------------------------------------
User input:
--------------------------------------------------------------

$molecule
1,2
C         -0.00013        0.00000        0.01496
Si        -0.00042        0.00000        1.87479
H          1.01781        0.00000       -0.37178
H         -0.50853       -0.88134       -0.37292
H         -0.50853        0.88134       -0.37292
H         -1.38686        0.00000        2.39921
H          0.69333       -1.20114        2.39726
H          0.69333        1.20114        2.39726
$end

$comment
positive
$end

$xc_functional
C PBE   1.00
X wPBE  1.00
$end

$rem
SYMMETRY_DECOMPOSITION	0
LRC_DFT                 true
exchange 		general
BASIS                   g3large
omega			100
mem_static              760
max_scf_cycles          200
scf_final_print         1
sym_ignore              true
$end

--------------------------------------------------------------
 Writing REM_CC_EA            8
 ----------------------------------------------------
       Standard Nuclear Orientation (Angstroms)
    I     Atom         X            Y            Z
 ----------------------------------------------------
    1      C      -0.000130     0.000000     0.014960
    2      Si     -0.000420     0.000000     1.874790
    3      H       1.017810     0.000000    -0.371780
    4      H      -0.508530    -0.881340    -0.372920
    5      H      -0.508530     0.881340    -0.372920
    6      H      -1.386860     0.000000     2.399210
    7      H       0.693330    -1.201140     2.397260
    8      H       0.693330     1.201140     2.397260
 ----------------------------------------------------
 Nuclear Repulsion Energy =    63.1460299075 hartrees
 There are       13 alpha and       12 beta electrons
 Requested basis set is G3large
 There are 65 shells and 168 basis functions

Total QAlloc Memory Limit   2000 MB
Mega-Array Size       743 MB
MEM_STATIC part       760 MB

                       Distance Matrix (Angstroms)
             C (  1)   Si(  2)   H (  3)   H (  4)   H (  5)   H (  6)
   Si(  2)  1.859830
   H (  3)  1.088931  2.466550
   H (  4)  1.088890  2.467212  1.762520
   H (  5)  1.088890  2.467212  1.762520  1.762680
   H (  6)  2.758200  1.482306  3.668899  3.038573  3.038573
   H (  7)  2.756624  1.482228  3.035722  3.036550  3.668118  2.402068
   H (  8)  2.756624  1.482228  3.035722  3.668118  3.036550  2.402068
             H (  7)
   H (  8)  2.402280
 
 A cutoff of  1.0D-08 yielded   2044 shell pairs
 There are  13820 function pairs ( 17231 Cartesian)
Evaluating contribution to one-electron hamiltonian from nuclear
 Smallest overlap matrix eigenvalue = 1.35E-04
 Multipole matrices computed through 2nd order

  Scale SEOQF with 1.000000e-01/1.000000e-01/1.000000e-01

 Standard Electronic Orientation quadrupole field applied
 Nucleus-field energy     =    -0.0000000067 hartrees
 Guess from superposition of atomic densities
 Warning:  Energy on first SCF cycle will be non-variational
 Long-range K will be added via erf
 Coulomb attenuation parameter = 0.1 bohr**(-1)
 An unrestricted Kohn-Sham SCF calculation will be
 performed using Pulay DIIS extrapolation
 Exchange:  wPBE + LR-HF      Correlation:  PBE
 Using SG-1 standard quadrature grid
 SCF converges when DIIS error is below 1.0E-05
 Requested basis set is G3large
 There are 65 shells and 168 basis functions
 A cutoff of  1.0D-08 yielded   2044 shell pairs
 There are  13820 function pairs ( 17231 Cartesian)
 Warning!  Inaccurate integrated density:
   Number of electrons =    25
   Numerical integral  =    25.999984890803
   Relative error      =     3.9999395632 %
 ---------------------------------------
  Cycle       Energy         DIIS Error
 ---------------------------------------
    1    -331.0361886883      2.74E-02
    2    -330.5073155291      4.53E-03
    3    -330.3312349446      7.11E-03
    4    -330.5929884873      8.13E-04
    5    -330.5985153834      2.36E-04
    6    -330.5992721991      1.41E-04
    7    -330.5998959430      1.37E-04
    8    -330.6009389740      1.14E-04
    9    -330.6018974659      6.81E-05
   10    -330.6018969764      5.22E-05
   11    -330.6020894862      2.28E-05
   12    -330.6020968413      8.45E-06 Convergence criterion met
 ---------------------------------------
 One-Electron    Energy =  -574.5070684455
 Total Coulomb   Energy =   208.8113155173
 Alpha Exchange  Energy =    -0.7261445289
 Beta  Exchange  Energy =    -0.6692066932
 DFT   Exchange  Energy =   -25.8126635472
 DFT Correlation Energy =    -0.8443590446
 Nuclear Repu.   Energy =    63.1460299008
 Nuclear Attr.   Energy =  -904.6838598613
 Kinetic         Energy =   330.1767914158
 <S^2> = 0.7540
 SCF time:  CPU 123.78 s  wall 124.47 s
 Final Alpha MO Eigenvalues
            1           2           3           4           5           6
    1 -65.7175821 -10.1863537  -5.3760571  -3.7902407  -3.7842542  -3.7840807
            7           8           9          10          11          12
    1  -0.9548949  -0.7959007  -0.6742854  -0.6739338  -0.6225348  -0.6154360
           13          14          15          16          17          18
    1  -0.6110455  -0.1768156  -0.1569548  -0.1560121  -0.1343935  -0.1026005
 Final Beta MO Eigenvalues
            1           2           3           4           5           6
    1 -65.7164004 -10.1825120  -5.3747542  -3.7859998  -3.7837432  -3.7835719
            7           8           9          10          11          12
    1  -0.9410094  -0.7762011  -0.6663870  -0.6627883  -0.5958045  -0.5933398
           13          14          15          16          17
    1  -0.4853993  -0.1678483  -0.1462191  -0.1457025  -0.1263390
 Analysis of SCF Wavefunction
 
 --------------------------------------------------------------
                    Orbital Energies (a.u.)
 --------------------------------------------------------------
 
 Alpha MOs
 -- Occupied --
-65.718 -10.186  -5.376  -3.790  -3.784  -3.784  -0.955  -0.796
 -0.674  -0.674  -0.623  -0.615  -0.611
 -- Virtual --
 -0.177  -0.157  -0.156  -0.134  -0.103  -0.101  -0.099  -0.075
 -0.073  -0.049  -0.049  -0.041  -0.025  -0.009   0.002   0.004
  0.018   0.022   0.024   0.032   0.039   0.041   0.117   0.120
  0.120   0.141   0.177   0.178   0.228   0.241   0.248   0.249
  0.251   0.282   0.284   0.323   0.334   0.337   0.373   0.396
  0.397   0.465   0.471   0.478   0.480   0.519   0.522   0.587
  0.588   0.597   0.622   0.632   0.678   0.752   0.753   0.810
  0.812   0.859   0.889   0.890   0.958   0.963   1.011   1.042
  1.071   1.075   1.084   1.088   1.089   1.161   1.163   1.235
  1.235   1.242   1.288   1.289   1.338   1.385   1.824   1.866
  1.871   1.879   1.942   1.944   2.057   2.230   2.234   2.343
  2.526   2.530   2.663   2.673   2.805   2.811   2.813   2.929
  2.937   3.032   3.034   3.055   3.234   3.244   3.353   3.359
  3.377   3.483   3.488   3.601   3.631   3.632   3.751   3.755
  3.758   3.807   3.827   3.827   3.940   3.943   3.948   4.080
  4.086   4.093   4.155   4.183   4.327   4.332   4.757   5.363
  5.373   5.903  11.030  11.034  11.368  17.149  17.237  17.324
 17.414  17.475  21.768  21.782  21.789  21.789  21.797  21.799
 21.823  23.709  27.410  27.674  27.675  40.523  40.545  40.782
 40.823  40.873 140.681
 
 Beta MOs
 -- Occupied --
-65.716 -10.183  -5.375  -3.786  -3.784  -3.784  -0.941  -0.776
 -0.666  -0.663  -0.596  -0.593
 -- Virtual --
 -0.485  -0.168  -0.146  -0.146  -0.126  -0.096  -0.096  -0.094
 -0.071  -0.070  -0.047  -0.046  -0.038  -0.017  -0.005   0.005
  0.006   0.023   0.023   0.026   0.034   0.043   0.045   0.124
  0.125   0.125   0.144   0.181   0.181   0.236   0.251   0.254
  0.254   0.256   0.292   0.293   0.331   0.342   0.345   0.380
  0.401   0.401   0.471   0.481   0.484   0.491   0.529   0.530
  0.599   0.599   0.605   0.631   0.638   0.688   0.760   0.763
  0.822   0.823   0.871   0.894   0.894   0.973   0.974   1.021
  1.053   1.081   1.082   1.095   1.096   1.098   1.168   1.170
  1.242   1.243   1.254   1.300   1.301   1.345   1.392   1.836
  1.880   1.888   1.893   1.956   1.956   2.071   2.240   2.243
  2.350   2.553   2.555   2.668   2.690   2.826   2.827   2.831
  2.943   2.945   3.041   3.041   3.072   3.250   3.255   3.361
  3.364   3.398   3.498   3.500   3.610   3.643   3.643   3.782
  3.787   3.787   3.836   3.853   3.853   3.958   3.958   3.962
  4.090   4.099   4.101   4.161   4.204   4.350   4.351   4.766
  5.376   5.378   5.912  11.035  11.036  11.373  17.150  17.239
 17.327  17.417  17.476  21.769  21.783  21.790  21.790  21.798
 21.799  21.824  23.713  27.420  27.677  27.678  40.533  40.548
 40.790  40.831  40.876 140.683
 --------------------------------------------------------------
 
          Ground-State Mulliken Net Atomic Charges

     Atom                 Charge (a.u.)    Spin (a.u.)
  --------------------------------------------------------
      1 C                    -0.193659       0.253862
      2 Si                    0.448390       0.235984
      3 H                     0.185313       0.033519
      4 H                     0.172969      -0.004770
      5 H                     0.185632       0.034864
      6 H                     0.070124       0.153317
      7 H                     0.070964       0.160833
      8 H                     0.060267       0.132391
  --------------------------------------------------------
  Sum of atomic charges =     1.000000
  Sum of spin   charges =     1.000000

 -----------------------------------------------------------------
                    Cartesian Multipole Moments
 -----------------------------------------------------------------
    Charge (ESU x 10^10)
                 4.8032
    Dipole Moment (Debye)
         X      -0.0142      Y      -0.0461      Z       5.9719
       Tot       5.9721
    Quadrupole Moments (Debye-Ang)
        XX     -17.1921     XY       0.2434     YY     -16.8659
        XZ      -0.4329     YZ      -0.8287     ZZ      -4.2035
    Octapole Moments (Debye-Ang^2)
       XXX      -0.0395    XXY      -0.0417    XYY       0.0019
       YYY      -0.1275    XXZ     -21.7915    XYZ       0.5025
       YYZ     -21.1246    XZZ      -1.1652    YZZ      -2.2109
       ZZZ     -39.2677
    Hexadecapole Moments (Debye-Ang^3)
      XXXX     -38.7770   XXXY       0.2933   XXYY     -12.7901
      XYYY       0.2912   YYYY     -37.9660   XXXZ      -4.2783
      XXYZ      -0.3903   XYYZ       3.5348   YYYZ      -1.1768
      XXZZ     -52.4039   XYZZ       1.0214   YYZZ     -51.0038
      XZZZ      -3.9468   YZZZ      -7.4135   ZZZZ    -244.7589
 -----------------------------------------------------------------
 Total job time:  124.66s(wall), 123.96s(cpu) 
 Mon Jul  8 12:31:59 2013

        *************************************************************
        *                                                           *
        *  Thank you very much for using Q-Chem.  Have a nice day.  *
        *                                                           *
        *************************************************************


0 sent ACK to 0 
now end server 0 ... 
