Process 0 of 1 is on cl217.stfx.acenet.ca - thread support 1
initial socket setup ...start
initial socket setup ...done 
now start server 0 ... 

cmd = /usr/bin/ssh clhead /usr/local/qchem/bin/get_hostid 703558569 > /globalscratch/itamblyn/bnl/g297_b3lyp_neut_g03Large_worked/g2g71138/omega1000/qchem2010/lic.dat
                  Welcome to Q-Chem
     A Quantum Leap Into The Future Of Chemistry

 Y. Shao, L. Fusti-Molnar, Y. Jung, J. Kussmann, C. Ochsenfeld,
 S. T. Brown, A. T. B. Gilbert, L. V. Slipchenko,S. V. Levchenko,
 D. P. O'Neill, R. A. DiStasio Jr., R. C. Lochan, T. Wang,
 G. J. O. Beran, N. A. Besley, J. M. Herbert, C. Y. Lin,
 T. Van Voorhis, S. H. Chien, A. Sodt, R. P. Steele, 
 V. A. Rassolov, P. E. Maslen, P. P. Korambath, R. D. Adamson,
 B. Austin, J. Baker, E. F. C. Byrd, H. Dachsel, R. J. Doerksen,
 A. Dreuw, B. D. Dunietz, A. D. Dutoi, T. R. Furlani,
 S. R. Gwaltney, A. Heyden, S. Hirata, C.-P. Hsu, G. Kedziora,
 R. Z. Khaliullin, P. Klunzinger, A. M. Lee, M. S. Lee, W. Liang,
 I. Lotan, N. Nair, B. Peters, E. I. Proynov, P. A. Pieniazek, 
 Y. M. Rhee, J. Ritchie, E. Rosta, C. D. Sherrill, 
 A. C. Simmonett, J. E. Subotnik, H. L. Woodcock III,
 W. Zhang, A. T. Bell, A. K. Chakraborty, D. M. Chipman,
 F. J. Keil, A. Warshel, W. J. Hehre, H. F. Schaefer III,
 J. Kong, A. I. Krylov, P. M. W. Gill, M. Head-Gordon,
 Q-Chem, Version 3.1, Q-Chem, Inc., Pittsburgh, PA (2007).

 Additional authors for Version 3.1: 
 Z. Gan, Y. Zhao, N. E. Schultz, D. Truhlar, E. Epifanovsky and M. Oana.

 Additional authors for Version 3.2: 
 R. Baer, B. R. Brooks, D. Casanova, J.-D. Chai, C.-L. Cheng, 
 C. Cramer, D. Crittenden, A. Ghysels, G. Hawkins, E. G. Hohenstein, 
 C. Kelley, W. Kurlancheek, D. Liotard, E. Livshits, P. Manohar, 
 A. Marenich, D. Neuhauser, R. Olson, M. A. Rohrdanz, K. S. Thanthiriwatte, 
 A. J. W. Thom, V. Vanovschi, C. F. Williams, Q. Wu and Z.-Q. You. 


 Intel X86 Linux Version

 Q-chem begins on Tue Apr 12 22:45:34 2011  

 Parallel job on  1  processors
Processing $rem in /usr/local/qchem/config/preferences.

theFileMan(): MAXOPENFILES=974 MAX_SUB_FILE_NUM=16
Maximum size of a physical file is 2.0 GB, maximum size of a tmp-file is 32.0 GB


--------------------------------------------------------------
User input:
--------------------------------------------------------------

$molecule
-1,1
C
C,1,CC
H,1,CH1,2,H1CC
X,1,1.,2,XCC,3,180.,0
H,1,CH2,4,HCX,2,90.,0
H,1,CH2,4,HCX,2,-90.,0
X,2,1.,1,90.,3,0.,0
O,2,CO,7,OCX,1,180.,0

CC=1.51705372
CH1=1.09673202
CH2=1.0950498
CO=1.18915198
H1CC=111.51713621
XCC=122.84016015
HCX=53.57981779
OCX=37.87178741

$end

$comment
negative
$end

$xc_functional
   X HF 1.0
   X BNL 1.0
   C LYP 1.0
$end

$rem
SYMMETRY_DECOMPOSITION	0
exchange 		general
BASIS                   g3large
omega			1000
separate_jk		true
mem_static              760
max_scf_cycles          200
scf_final_print         1
sym_ignore              true
$end

--------------------------------------------------------------
 Writing REM_CC_EA            6
 ----------------------------------------------------
       Standard Nuclear Orientation (Angstroms)
    I     Atom         X            Y            Z
 ----------------------------------------------------
    1      C       0.000000     0.000000     0.000000
    2      C       0.000000     0.000000     1.517054
    3      H       1.020298     0.000000    -0.402259
    4      H      -0.546234    -0.881170    -0.352566
    5      H      -0.546234     0.881170    -0.352566
    6      O       0.938700     0.000000     2.247070
 ----------------------------------------------------
 Nuclear Repulsion Energy =    62.6720648786 hartrees
 There are       12 alpha and       12 beta electrons
 Requested basis set is G3large
 There are 48 shells and 156 basis functions

Total QAlloc Memory Limit   2000 MB
Mega-Array Size       743 MB
MEM_STATIC part       760 MB

                       Distance Matrix (Angstroms)
             C (  1)   C (  2)   H (  3)   H (  4)   H (  5)
   C (  2)  1.517054
   H (  3)  1.096732  2.173654
   H (  4)  1.095050  2.137828  1.798041
   H (  5)  1.095050  2.137828  1.798041  1.762340
   O (  6)  2.435258  1.189152  2.650585  3.120833  3.120833
 
 A cutoff of  1.0D-08 yielded   1110 shell pairs
 There are  11796 function pairs ( 14731 Cartesian)
Evaluating contribution to one-electron hamiltonian from nuclear
 Smallest overlap matrix eigenvalue = 1.57E-04
 Multipole matrices computed through 2nd order

  Scale SEOQF with 1.000000e-01/1.000000e-01/1.000000e-01

 Standard Electronic Orientation quadrupole field applied
 Nucleus-field energy     =    -0.0000000054 hartrees
 Guess from superposition of atomic densities
 Warning:  Energy on first SCF cycle will be non-variational
 A restricted hybrid HF-DFT SCF calculation will be
 performed using Pulay DIIS extrapolation
 Exchange:     1.0000 Hartree-Fock + 1.0000 BNL
 Correlation:  1.0000 LYP
 Using SG-1 standard quadrature grid
 SCF converges when DIIS error is below 1.0E-05
 Warning!  Inaccurate integrated density:
   Number of electrons =    24
   Numerical integral  =    22.999961579296
   Relative error      =    -4.1668267529 %
 ---------------------------------------
  Cycle       Energy         DIIS Error
 ---------------------------------------
    1    -152.4416373980      3.60E-02
    2    -151.8401023365      5.99E-03
    3    -151.9125044154      5.34E-03
    4    -151.9746733126      8.29E-04
    5    -151.9807487416      4.87E-04
    6    -151.9837057993      2.74E-04
    7    -151.9856473630      1.50E-04
    8    -151.9865068949      6.46E-05
    9    -151.9866562082      2.75E-05
   10    -151.9866738714      9.02E-06 Convergence criterion met
 ---------------------------------------
 One-Electron    Energy =  -337.0919976168
 Total Coulomb   Energy =   141.8691502701
 Alpha Exchange  Energy =    -4.4878023929
 Beta  Exchange  Energy =    -4.4878023929
 DFT   Exchange  Energy =    -9.6636468252
 DFT Correlation Energy =    -0.7966397868
 Nuclear Repu.   Energy =    62.6720648732
 Nuclear Attr.   Energy =  -488.3069148542
 Kinetic         Energy =   151.2149172374
 SCF time:  CPU 56.08 s  wall 124.42 s
 Final Alpha MO Eigenvalues
            1           2           3           4           5           6
    1 -18.8467021 -10.1271568 -10.1089799  -1.1065638  -0.7870430  -0.5050672
            7           8           9          10          11          12
    1  -0.4183225  -0.4110079  -0.4025348  -0.3144423  -0.3137143  -0.0405444
           13          14          15          16          17
    1   0.1580816   0.1807600   0.1830509   0.2315565   0.2646562
 Analysis of SCF Wavefunction
 
 --------------------------------------------------------------
                    Orbital Energies (a.u.)
 --------------------------------------------------------------
 
 Alpha MOs
 -- Occupied --
-18.847 -10.127 -10.109  -1.107  -0.787  -0.505  -0.418  -0.411
 -0.403  -0.314  -0.314  -0.041
 -- Virtual --
  0.158   0.181   0.183   0.232   0.265   0.270   0.280   0.290
  0.290   0.324   0.358   0.369   0.421   0.422   0.468   0.492
  0.508   0.512   0.555   0.602   0.713   0.723   0.784   0.842
  0.843   0.869   0.883   0.900   0.950   0.960   0.989   1.029
  1.096   1.142   1.188   1.210   1.314   1.355   1.395   1.448
  1.454   1.464   1.487   1.503   1.509   1.554   1.642   1.737
  1.738   1.785   1.792   1.830   1.900   1.932   2.062   2.124
  2.183   2.437   2.606   2.809   2.868   2.936   2.950   3.162
  3.174   3.199   3.304   3.351   3.360   3.391   3.428   3.529
  3.567   3.581   3.615   3.619   3.695   3.823   3.846   3.898
  3.918   3.928   4.074   4.094   4.098   4.275   4.294   4.322
  4.426   4.561   4.562   4.639   4.682   4.704   4.839   4.865
  4.937   4.997   5.131   5.525   5.594   5.621   5.625   5.657
  5.939   6.025   6.069   6.110   6.203   6.905   7.104   7.385
  7.390   7.496   7.767   7.866   8.155  24.834  25.101  27.896
 28.036  28.373  28.642  28.651  29.028  41.396  41.461  41.472
 41.569  41.662  41.718  41.748  41.761  41.801  41.866  44.244
 44.307  44.380  44.413  44.557  46.398  46.472  47.217  50.868
 --------------------------------------------------------------
 
          Ground-State Mulliken Net Atomic Charges

     Atom                 Charge (a.u.)
  ----------------------------------------
      1 C                     0.834294
      2 C                    -1.068725
      3 H                    -0.258066
      4 H                    -0.063616
      5 H                    -0.063953
      6 O                    -0.379933
  ----------------------------------------
  Sum of atomic charges =    -1.000000

 -----------------------------------------------------------------
                    Cartesian Multipole Moments
 -----------------------------------------------------------------
    Charge (ESU x 10^10)
                -4.8032
    Dipole Moment (Debye)
         X      -0.6706      Y       0.0006      Z      -8.6645
       Tot       8.6904
    Quadrupole Moments (Debye-Ang)
        XX     -30.0720     XY       0.0006     YY     -22.8072
        XZ      -0.6685     YZ       0.0019     ZZ     -43.7604
    Octapole Moments (Debye-Ang^2)
       XXX     -15.6307    XXY       0.0009    XYY      -4.0477
       YYY       0.0022    XXZ     -36.5987    XYZ      -0.0004
       YYZ     -24.8268    XZZ      -9.8469    YZZ       0.0031
       ZZZ    -114.6801
    Hexadecapole Moments (Debye-Ang^3)
      XXXX    -114.9808   XXXY       0.0027   XXYY     -26.5223
      XYYY       0.0024   YYYY     -51.3831   XXXZ     -29.1796
      XXYZ       0.0030   XYYZ      -6.8245   YYYZ       0.0078
      XXZZ    -100.6166   XYZZ       0.0005   YYZZ     -66.9185
      XZZZ     -41.4871   YZZZ       0.0109   ZZZZ    -436.4418
 -----------------------------------------------------------------
 Total job time:  132.54s(wall), 56.24s(cpu) 
 Tue Apr 12 22:47:47 2011

        *************************************************************
        *                                                           *
        *  Thank you very much for using Q-Chem.  Have a nice day.  *
        *                                                           *
        *************************************************************


0 sent ACK to 0 
now end server 0 ... 
 
**********************************************************************
Job 2 of 3 
**********************************************************************
 
Process 0 of 1 is on cl217.stfx.acenet.ca - thread support 1
initial socket setup ...start
initial socket setup ...done 
now start server 0 ... 

cmd = /usr/bin/ssh clhead /usr/local/qchem/bin/get_hostid 305781777 > /globalscratch/itamblyn/bnl/g297_b3lyp_neut_g03Large_worked/g2g71138/omega1000/qchem2010/lic.dat
                  Welcome to Q-Chem
     A Quantum Leap Into The Future Of Chemistry

 Y. Shao, L. Fusti-Molnar, Y. Jung, J. Kussmann, C. Ochsenfeld,
 S. T. Brown, A. T. B. Gilbert, L. V. Slipchenko,S. V. Levchenko,
 D. P. O'Neill, R. A. DiStasio Jr., R. C. Lochan, T. Wang,
 G. J. O. Beran, N. A. Besley, J. M. Herbert, C. Y. Lin,
 T. Van Voorhis, S. H. Chien, A. Sodt, R. P. Steele, 
 V. A. Rassolov, P. E. Maslen, P. P. Korambath, R. D. Adamson,
 B. Austin, J. Baker, E. F. C. Byrd, H. Dachsel, R. J. Doerksen,
 A. Dreuw, B. D. Dunietz, A. D. Dutoi, T. R. Furlani,
 S. R. Gwaltney, A. Heyden, S. Hirata, C.-P. Hsu, G. Kedziora,
 R. Z. Khaliullin, P. Klunzinger, A. M. Lee, M. S. Lee, W. Liang,
 I. Lotan, N. Nair, B. Peters, E. I. Proynov, P. A. Pieniazek, 
 Y. M. Rhee, J. Ritchie, E. Rosta, C. D. Sherrill, 
 A. C. Simmonett, J. E. Subotnik, H. L. Woodcock III,
 W. Zhang, A. T. Bell, A. K. Chakraborty, D. M. Chipman,
 F. J. Keil, A. Warshel, W. J. Hehre, H. F. Schaefer III,
 J. Kong, A. I. Krylov, P. M. W. Gill, M. Head-Gordon,
 Q-Chem, Version 3.1, Q-Chem, Inc., Pittsburgh, PA (2007).

 Additional authors for Version 3.1: 
 Z. Gan, Y. Zhao, N. E. Schultz, D. Truhlar, E. Epifanovsky and M. Oana.

 Additional authors for Version 3.2: 
 R. Baer, B. R. Brooks, D. Casanova, J.-D. Chai, C.-L. Cheng, 
 C. Cramer, D. Crittenden, A. Ghysels, G. Hawkins, E. G. Hohenstein, 
 C. Kelley, W. Kurlancheek, D. Liotard, E. Livshits, P. Manohar, 
 A. Marenich, D. Neuhauser, R. Olson, M. A. Rohrdanz, K. S. Thanthiriwatte, 
 A. J. W. Thom, V. Vanovschi, C. F. Williams, Q. Wu and Z.-Q. You. 


 Intel X86 Linux Version

 Q-chem begins on Tue Apr 12 22:47:54 2011  

 Parallel job on  1  processors
Processing $rem in /usr/local/qchem/config/preferences.

theFileMan(): MAXOPENFILES=974 MAX_SUB_FILE_NUM=16
Maximum size of a physical file is 2.0 GB, maximum size of a tmp-file is 32.0 GB


--------------------------------------------------------------
User input:
--------------------------------------------------------------

$molecule
0,2
C
C,1,CC
H,1,CH1,2,H1CC
X,1,1.,2,XCC,3,180.,0
H,1,CH2,4,HCX,2,90.,0
H,1,CH2,4,HCX,2,-90.,0
X,2,1.,1,90.,3,0.,0
O,2,CO,7,OCX,1,180.,0

CC=1.51705372
CH1=1.09673202
CH2=1.0950498
CO=1.18915198
H1CC=111.51713621
XCC=122.84016015
HCX=53.57981779
OCX=37.87178741

$end

$comment
neutral
$end

$xc_functional
   X HF 1.0
   X BNL 1.0
   C LYP 1.0
$end

$rem
SYMMETRY_DECOMPOSITION	0
exchange 		general
BASIS                   g3large
omega			1000
separate_jk		true
mem_static              760
max_scf_cycles          200
scf_final_print         1
sym_ignore              true
$end

--------------------------------------------------------------
 Writing REM_CC_EA            6
 ----------------------------------------------------
       Standard Nuclear Orientation (Angstroms)
    I     Atom         X            Y            Z
 ----------------------------------------------------
    1      C       0.000000     0.000000     0.000000
    2      C       0.000000     0.000000     1.517054
    3      H       1.020298     0.000000    -0.402259
    4      H      -0.546234    -0.881170    -0.352566
    5      H      -0.546234     0.881170    -0.352566
    6      O       0.938700     0.000000     2.247070
 ----------------------------------------------------
 Nuclear Repulsion Energy =    62.6720648786 hartrees
 There are       12 alpha and       11 beta electrons
 Requested basis set is G3large
 There are 48 shells and 156 basis functions

Total QAlloc Memory Limit   2000 MB
Mega-Array Size       743 MB
MEM_STATIC part       760 MB

                       Distance Matrix (Angstroms)
             C (  1)   C (  2)   H (  3)   H (  4)   H (  5)
   C (  2)  1.517054
   H (  3)  1.096732  2.173654
   H (  4)  1.095050  2.137828  1.798041
   H (  5)  1.095050  2.137828  1.798041  1.762340
   O (  6)  2.435258  1.189152  2.650585  3.120833  3.120833
 
 A cutoff of  1.0D-08 yielded   1110 shell pairs
 There are  11796 function pairs ( 14731 Cartesian)
Evaluating contribution to one-electron hamiltonian from nuclear
 Smallest overlap matrix eigenvalue = 1.57E-04
 Multipole matrices computed through 2nd order

  Scale SEOQF with 1.000000e-01/1.000000e-01/1.000000e-01

 Standard Electronic Orientation quadrupole field applied
 Nucleus-field energy     =    -0.0000000054 hartrees
 Guess from superposition of atomic densities
 Warning:  Energy on first SCF cycle will be non-variational
 An unrestricted hybrid HF-DFT SCF calculation will be
 performed using Pulay DIIS extrapolation
 Exchange:     1.0000 Hartree-Fock + 1.0000 BNL
 Correlation:  1.0000 LYP
 Using SG-1 standard quadrature grid
 SCF converges when DIIS error is below 1.0E-05
 ---------------------------------------
  Cycle       Energy         DIIS Error
 ---------------------------------------
    1    -152.4416373980      3.60E-02
    2    -151.8938327847      4.97E-03
    3    -151.9328468488      5.04E-03
    4    -151.9875870448      5.98E-04
    5    -151.9923204822      2.55E-04
    6    -151.9940258943      1.45E-04
    7    -151.9950208767      9.75E-05
    8    -151.9956428701      6.28E-05
    9    -151.9960296891      2.64E-05
   10    -151.9960802274      7.69E-06 Convergence criterion met
 ---------------------------------------
 One-Electron    Energy =  -331.2636161566
 Total Coulomb   Energy =   135.7959089211
 Alpha Exchange  Energy =    -4.5887090064
 Beta  Exchange  Energy =    -4.2099412158
 DFT   Exchange  Energy =    -9.6359388038
 DFT Correlation Energy =    -0.7658488390
 Nuclear Repu.   Energy =    62.6720648732
 Nuclear Attr.   Energy =  -482.1835031479
 Kinetic         Energy =   150.9198869914
 <S^2> = 0.7573
 SCF time:  CPU 66.58 s  wall 127.00 s
 Final Alpha MO Eigenvalues
            1           2           3           4           5           6
    1 -19.1316670 -10.4296195 -10.3483290  -1.3861931  -1.0316205  -0.7738192
            7           8           9          10          11          12
    1  -0.6866364  -0.6671987  -0.6461330  -0.5842689  -0.5666848  -0.3811811
           13          14          15          16          17
    1   0.0317545   0.0600520   0.0636317   0.0842786   0.0856252
 Final Beta MO Eigenvalues
            1           2           3           4           5           6
    1 -19.1234536 -10.4169654 -10.3449620  -1.3659906  -1.0114606  -0.7392430
            7           8           9          10          11          12
    1  -0.6422276  -0.6406899  -0.6332441  -0.5634650  -0.5258035   0.0163506
           13          14          15          16
    1   0.0574248   0.0593263   0.0619224   0.0925589
 Analysis of SCF Wavefunction
 
 --------------------------------------------------------------
                    Orbital Energies (a.u.)
 --------------------------------------------------------------
 
 Alpha MOs
 -- Occupied --
-19.132 -10.430 -10.348  -1.386  -1.032  -0.774  -0.687  -0.667
 -0.646  -0.584  -0.567  -0.381
 -- Virtual --
  0.032   0.060   0.064   0.084   0.086   0.122   0.124   0.139
  0.143   0.146   0.172   0.192   0.244   0.247   0.294   0.313
  0.328   0.342   0.368   0.390   0.514   0.521   0.566   0.612
  0.627   0.639   0.665   0.676   0.726   0.741   0.757   0.786
  0.882   0.891   0.950   0.986   1.083   1.126   1.167   1.222
  1.235   1.245   1.253   1.281   1.283   1.325   1.415   1.499
  1.515   1.554   1.584   1.598   1.684   1.701   1.803   1.866
  1.918   2.186   2.345   2.568   2.635   2.683   2.722   2.895
  2.911   2.927   3.036   3.074   3.125   3.136   3.172   3.277
  3.306   3.349   3.370   3.378   3.422   3.535   3.581   3.614
  3.652   3.689   3.795   3.837   3.846   4.015   4.059   4.091
  4.186   4.311   4.325   4.385   4.446   4.467   4.606   4.644
  4.710   4.753   4.875   5.259   5.338   5.351   5.362   5.382
  5.676   5.762   5.846   5.884   5.931   6.632   6.822   7.103
  7.108   7.219   7.502   7.586   7.884  24.587  24.808  27.598
 27.737  28.102  28.405  28.414  28.752  41.098  41.183  41.228
 41.305  41.358  41.449  41.480  41.521  41.563  41.564  43.955
 44.017  44.089  44.132  44.271  46.117  46.182  46.935  50.584
 
 Beta MOs
 -- Occupied --
-19.123 -10.417 -10.345  -1.366  -1.011  -0.739  -0.642  -0.641
 -0.633  -0.563  -0.526
 -- Virtual --
  0.016   0.057   0.059   0.062   0.093   0.095   0.121   0.128
  0.138   0.141   0.152   0.175   0.201   0.247   0.252   0.295
  0.316   0.328   0.343   0.371   0.400   0.522   0.526   0.578
  0.626   0.634   0.659   0.673   0.679   0.730   0.750   0.779
  0.793   0.885   0.904   0.967   0.987   1.090   1.128   1.172
  1.230   1.237   1.251   1.262   1.285   1.289   1.326   1.424
  1.512   1.519   1.563   1.586   1.602   1.690   1.704   1.814
  1.881   1.935   2.190   2.362   2.577   2.639   2.695   2.727
  2.905   2.927   2.938   3.053   3.088   3.138   3.139   3.180
  3.287   3.319   3.354   3.376   3.384   3.447   3.564   3.596
  3.630   3.669   3.694   3.815   3.843   3.858   4.026   4.064
  4.095   4.193   4.319   4.330   4.395   4.450   4.473   4.610
  4.645   4.712   4.761   4.889   5.265   5.349   5.365   5.375
  5.402   5.680   5.772   5.849   5.886   5.946   6.639   6.839
  7.127   7.131   7.232   7.508   7.610   7.896  24.593  24.821
 27.606  27.753  28.110  28.407  28.416  28.758  41.110  41.197
 41.230  41.312  41.373  41.456  41.483  41.525  41.566  41.577
 43.971  44.035  44.109  44.138  44.284  46.121  46.197  46.941
 50.593
 --------------------------------------------------------------
 
          Ground-State Mulliken Net Atomic Charges

     Atom                 Charge (a.u.)    Spin (a.u.)
  --------------------------------------------------------
      1 C                    -0.165578       0.105319
      2 C                     0.098218       0.665965
      3 H                     0.104629       0.033900
      4 H                     0.102731      -0.009476
      5 H                     0.102640      -0.009576
      6 O                    -0.242640       0.213868
  --------------------------------------------------------
  Sum of atomic charges =     0.000000
  Sum of spin   charges =     1.000000

 -----------------------------------------------------------------
                    Cartesian Multipole Moments
 -----------------------------------------------------------------
    Charge (ESU x 10^10)
                 0.0000
    Dipole Moment (Debye)
         X      -1.1666      Y      -0.0007      Z      -2.8802
       Tot       3.1075
    Quadrupole Moments (Debye-Ang)
        XX     -19.6300     XY      -0.0003     YY     -16.9637
        XZ      -2.8714     YZ      -0.0005     ZZ     -25.5650
    Octapole Moments (Debye-Ang^2)
       XXX     -15.5248    XXY      -0.0014    XYY      -5.7440
       YYY      -0.0015    XXZ     -24.7705    XYZ      -0.0011
       YYZ     -19.2877    XZZ     -11.9648    YZZ      -0.0009
       ZZZ     -78.1256
    Hexadecapole Moments (Debye-Ang^3)
      XXXX     -56.4385   XXXY      -0.0021   XXYY     -12.6694
      XYYY       0.0000   YYYY     -22.4144   XXXZ     -37.5100
      XXYZ      -0.0019   XYYZ     -10.6775   YYYZ      -0.0016
      XXZZ     -62.5592   XYZZ      -0.0005   YYZZ     -46.3332
      XZZZ     -50.8715   YZZZ       0.0006   ZZZZ    -310.1831
 -----------------------------------------------------------------
 Total job time:  140.39s(wall), 66.76s(cpu) 
 Tue Apr 12 22:50:14 2011

        *************************************************************
        *                                                           *
        *  Thank you very much for using Q-Chem.  Have a nice day.  *
        *                                                           *
        *************************************************************


0 sent ACK to 0 
now end server 0 ... 
 
**********************************************************************
Job 3 of 3 
**********************************************************************
 
Process 0 of 1 is on cl217.stfx.acenet.ca - thread support 1
initial socket setup ...start
initial socket setup ...done 
now start server 0 ... 

cmd = /usr/bin/ssh clhead /usr/local/qchem/bin/get_hostid 1002199587 > /globalscratch/itamblyn/bnl/g297_b3lyp_neut_g03Large_worked/g2g71138/omega1000/qchem2010/lic.dat
                  Welcome to Q-Chem
     A Quantum Leap Into The Future Of Chemistry

 Y. Shao, L. Fusti-Molnar, Y. Jung, J. Kussmann, C. Ochsenfeld,
 S. T. Brown, A. T. B. Gilbert, L. V. Slipchenko,S. V. Levchenko,
 D. P. O'Neill, R. A. DiStasio Jr., R. C. Lochan, T. Wang,
 G. J. O. Beran, N. A. Besley, J. M. Herbert, C. Y. Lin,
 T. Van Voorhis, S. H. Chien, A. Sodt, R. P. Steele, 
 V. A. Rassolov, P. E. Maslen, P. P. Korambath, R. D. Adamson,
 B. Austin, J. Baker, E. F. C. Byrd, H. Dachsel, R. J. Doerksen,
 A. Dreuw, B. D. Dunietz, A. D. Dutoi, T. R. Furlani,
 S. R. Gwaltney, A. Heyden, S. Hirata, C.-P. Hsu, G. Kedziora,
 R. Z. Khaliullin, P. Klunzinger, A. M. Lee, M. S. Lee, W. Liang,
 I. Lotan, N. Nair, B. Peters, E. I. Proynov, P. A. Pieniazek, 
 Y. M. Rhee, J. Ritchie, E. Rosta, C. D. Sherrill, 
 A. C. Simmonett, J. E. Subotnik, H. L. Woodcock III,
 W. Zhang, A. T. Bell, A. K. Chakraborty, D. M. Chipman,
 F. J. Keil, A. Warshel, W. J. Hehre, H. F. Schaefer III,
 J. Kong, A. I. Krylov, P. M. W. Gill, M. Head-Gordon,
 Q-Chem, Version 3.1, Q-Chem, Inc., Pittsburgh, PA (2007).

 Additional authors for Version 3.1: 
 Z. Gan, Y. Zhao, N. E. Schultz, D. Truhlar, E. Epifanovsky and M. Oana.

 Additional authors for Version 3.2: 
 R. Baer, B. R. Brooks, D. Casanova, J.-D. Chai, C.-L. Cheng, 
 C. Cramer, D. Crittenden, A. Ghysels, G. Hawkins, E. G. Hohenstein, 
 C. Kelley, W. Kurlancheek, D. Liotard, E. Livshits, P. Manohar, 
 A. Marenich, D. Neuhauser, R. Olson, M. A. Rohrdanz, K. S. Thanthiriwatte, 
 A. J. W. Thom, V. Vanovschi, C. F. Williams, Q. Wu and Z.-Q. You. 


 Intel X86 Linux Version

 Q-chem begins on Tue Apr 12 22:50:19 2011  

 Parallel job on  1  processors
Processing $rem in /usr/local/qchem/config/preferences.

theFileMan(): MAXOPENFILES=974 MAX_SUB_FILE_NUM=16
Maximum size of a physical file is 2.0 GB, maximum size of a tmp-file is 32.0 GB


--------------------------------------------------------------
User input:
--------------------------------------------------------------

$molecule
1,1
C
C,1,CC
H,1,CH1,2,H1CC
X,1,1.,2,XCC,3,180.,0
H,1,CH2,4,HCX,2,90.,0
H,1,CH2,4,HCX,2,-90.,0
X,2,1.,1,90.,3,0.,0
O,2,CO,7,OCX,1,180.,0

CC=1.51705372
CH1=1.09673202
CH2=1.0950498
CO=1.18915198
H1CC=111.51713621
XCC=122.84016015
HCX=53.57981779
OCX=37.87178741

$end

$comment
positive
$end

$xc_functional
   X HF 1.0
   X BNL 1.0
   C LYP 1.0
$end

$rem
SYMMETRY_DECOMPOSITION	0
exchange 		general
BASIS                   g3large
omega			1000
separate_jk		true
mem_static              760
max_scf_cycles          200
scf_final_print         1
sym_ignore              true
$end

--------------------------------------------------------------
 Writing REM_CC_EA            6
 ----------------------------------------------------
       Standard Nuclear Orientation (Angstroms)
    I     Atom         X            Y            Z
 ----------------------------------------------------
    1      C       0.000000     0.000000     0.000000
    2      C       0.000000     0.000000     1.517054
    3      H       1.020298     0.000000    -0.402259
    4      H      -0.546234    -0.881170    -0.352566
    5      H      -0.546234     0.881170    -0.352566
    6      O       0.938700     0.000000     2.247070
 ----------------------------------------------------
 Nuclear Repulsion Energy =    62.6720648786 hartrees
 There are       11 alpha and       11 beta electrons
 Requested basis set is G3large
 There are 48 shells and 156 basis functions

Total QAlloc Memory Limit   2000 MB
Mega-Array Size       743 MB
MEM_STATIC part       760 MB

                       Distance Matrix (Angstroms)
             C (  1)   C (  2)   H (  3)   H (  4)   H (  5)
   C (  2)  1.517054
   H (  3)  1.096732  2.173654
   H (  4)  1.095050  2.137828  1.798041
   H (  5)  1.095050  2.137828  1.798041  1.762340
   O (  6)  2.435258  1.189152  2.650585  3.120833  3.120833
 
 A cutoff of  1.0D-08 yielded   1110 shell pairs
 There are  11796 function pairs ( 14731 Cartesian)
Evaluating contribution to one-electron hamiltonian from nuclear
 Smallest overlap matrix eigenvalue = 1.57E-04
 Multipole matrices computed through 2nd order

  Scale SEOQF with 1.000000e-01/1.000000e-01/1.000000e-01

 Standard Electronic Orientation quadrupole field applied
 Nucleus-field energy     =    -0.0000000054 hartrees
 Guess from superposition of atomic densities
 Warning:  Energy on first SCF cycle will be non-variational
 A restricted hybrid HF-DFT SCF calculation will be
 performed using Pulay DIIS extrapolation
 Exchange:     1.0000 Hartree-Fock + 1.0000 BNL
 Correlation:  1.0000 LYP
 Using SG-1 standard quadrature grid
 SCF converges when DIIS error is below 1.0E-05
 Warning!  Inaccurate integrated density:
   Number of electrons =    22
   Numerical integral  =    22.999961579296
   Relative error      =     4.5452799059 %
 ---------------------------------------
  Cycle       Energy         DIIS Error
 ---------------------------------------
    1    -152.4416373980      3.60E-02
    2    -151.4927290240      6.54E-03
    3    -151.5123024668      8.11E-03
    4    -151.6480473035      9.26E-04
    5    -151.6516343809      3.87E-04
    6    -151.6525861865      1.33E-04
    7    -151.6528126651      5.58E-05
    8    -151.6528773605      2.31E-05
    9    -151.6528847741      8.58E-06 Convergence criterion met
 ---------------------------------------
 One-Electron    Energy =  -323.9916719385
 Total Coulomb   Energy =   128.4372811256
 Alpha Exchange  Energy =    -4.2430901329
 Beta  Exchange  Energy =    -4.2430901329
 DFT   Exchange  Energy =    -9.5458839112
 DFT Correlation Energy =    -0.7384946573
 Nuclear Repu.   Energy =    62.6720648732
 Nuclear Attr.   Energy =  -474.2858051565
 Kinetic         Energy =   150.2941332180
 SCF time:  CPU 48.08 s  wall 77.29 s
 Final Alpha MO Eigenvalues
            1           2           3           4           5           6
    1 -19.5135315 -10.8222363 -10.6308609  -1.7285460  -1.3078866  -1.0707104
            7           8           9          10          11          12
    1  -0.9608773  -0.9530049  -0.9489055  -0.8541352  -0.8468865  -0.3059167
           13          14          15          16
    1  -0.2134589  -0.1164897  -0.0833397  -0.0820506
 Analysis of SCF Wavefunction
 
 --------------------------------------------------------------
                    Orbital Energies (a.u.)
 --------------------------------------------------------------
 
 Alpha MOs
 -- Occupied --
-19.514 -10.822 -10.631  -1.729  -1.308  -1.071  -0.961  -0.953
 -0.949  -0.854  -0.847
 -- Virtual --
 -0.306  -0.213  -0.116  -0.083  -0.082  -0.075  -0.047  -0.040
 -0.030  -0.025  -0.014   0.019   0.034   0.064   0.065   0.098
  0.111   0.132   0.141   0.163   0.177   0.286   0.311   0.345
  0.367   0.371   0.392   0.440   0.444   0.475   0.487   0.507
  0.561   0.616   0.641   0.674   0.764   0.819   0.861   0.907
  0.957   0.975   0.992   1.008   1.027   1.046   1.068   1.162
  1.226   1.267   1.299   1.340   1.350   1.419   1.451   1.516
  1.566   1.614   1.881   2.043   2.289   2.368   2.382   2.461
  2.567   2.613   2.616   2.725   2.758   2.815   2.862   2.886
  2.982   3.000   3.060   3.100   3.110   3.117   3.214   3.273
  3.299   3.349   3.403   3.475   3.538   3.568   3.708   3.787
  3.825   3.906   4.012   4.046   4.087   4.176   4.204   4.337
  4.390   4.448   4.468   4.583   4.921   5.006   5.016   5.032
  5.079   5.345   5.429   5.585   5.603   5.626   6.290   6.475
  6.755   6.761   6.872   7.161   7.241   7.540  24.282  24.447
 27.208  27.354  27.763  28.124  28.133  28.406  40.708  40.805
 40.947  40.964  41.003  41.057  41.171  41.196  41.238  41.282
 43.579  43.641  43.712  43.758  43.895  45.739  45.799  46.557
 50.206
 --------------------------------------------------------------
 
          Ground-State Mulliken Net Atomic Charges

     Atom                 Charge (a.u.)
  ----------------------------------------
      1 C                    -0.103564
      2 C                     0.435493
      3 H                     0.191428
      4 H                     0.173718
      5 H                     0.173726
      6 O                     0.129199
  ----------------------------------------
  Sum of atomic charges =     1.000000

 -----------------------------------------------------------------
                    Cartesian Multipole Moments
 -----------------------------------------------------------------
    Charge (ESU x 10^10)
                 4.8032
    Dipole Moment (Debye)
         X      -0.3477      Y       0.0000      Z       3.2747
       Tot       3.2931
    Quadrupole Moments (Debye-Ang)
        XX     -14.0439     XY       0.0003     YY     -14.3236
        XZ      -1.0291     YZ       0.0005     ZZ      -8.6686
    Octapole Moments (Debye-Ang^2)
       XXX     -11.7745    XXY       0.0003    XYY      -5.8482
       YYY       0.0000    XXZ     -16.9324    XYZ       0.0004
       YYZ     -17.0754    XZZ      -6.1329    YZZ       0.0006
       ZZZ     -40.5434
    Hexadecapole Moments (Debye-Ang^3)
      XXXX     -41.0570   XXXY       0.0008   XXYY      -9.7314
      XYYY       0.0002   YYYY     -16.9484   XXXZ     -30.6752
      XXYZ       0.0008   XYYZ      -9.7501   YYYZ       0.0003
      XXZZ     -42.0952   XYZZ       0.0009   YYZZ     -38.8576
      XZZZ     -34.0191   YZZZ       0.0019   ZZZZ    -206.0186
 -----------------------------------------------------------------
 Total job time:  85.46s(wall), 48.25s(cpu) 
 Tue Apr 12 22:51:44 2011

        *************************************************************
        *                                                           *
        *  Thank you very much for using Q-Chem.  Have a nice day.  *
        *                                                           *
        *************************************************************


0 sent ACK to 0 
now end server 0 ... 
