Process 0 of 1 is on cl047.dal.acenet.ca - thread support 1
initial socket setup ...start
initial socket setup ...done 
now start server 0 ... 

cmd = /usr/bin/ssh glooscap.ace-net.ca /usr/local/qchem/bin/get_hostid 2114353881 > /tmp/179717.1.medium.q/qchem12181/lic.dat
                  Welcome to Q-Chem
     A Quantum Leap Into The Future Of Chemistry

 Y. Shao, L. Fusti-Molnar, Y. Jung, J. Kussmann, C. Ochsenfeld,
 S. T. Brown, A. T. B. Gilbert, L. V. Slipchenko,S. V. Levchenko,
 D. P. O'Neill, R. A. DiStasio Jr., R. C. Lochan, T. Wang,
 G. J. O. Beran, N. A. Besley, J. M. Herbert, C. Y. Lin,
 T. Van Voorhis, S. H. Chien, A. Sodt, R. P. Steele, 
 V. A. Rassolov, P. E. Maslen, P. P. Korambath, R. D. Adamson,
 B. Austin, J. Baker, E. F. C. Byrd, H. Dachsel, R. J. Doerksen,
 A. Dreuw, B. D. Dunietz, A. D. Dutoi, T. R. Furlani,
 S. R. Gwaltney, A. Heyden, S. Hirata, C.-P. Hsu, G. Kedziora,
 R. Z. Khaliullin, P. Klunzinger, A. M. Lee, M. S. Lee, W. Liang,
 I. Lotan, N. Nair, B. Peters, E. I. Proynov, P. A. Pieniazek, 
 Y. M. Rhee, J. Ritchie, E. Rosta, C. D. Sherrill, 
 A. C. Simmonett, J. E. Subotnik, H. L. Woodcock III,
 W. Zhang, A. T. Bell, A. K. Chakraborty, D. M. Chipman,
 F. J. Keil, A. Warshel, W. J. Hehre, H. F. Schaefer III,
 J. Kong, A. I. Krylov, P. M. W. Gill, M. Head-Gordon,
 Q-Chem, Version 3.1, Q-Chem, Inc., Pittsburgh, PA (2007).

 Additional authors for Version 3.1: 
 Z. Gan, Y. Zhao, N. E. Schultz, D. Truhlar, E. Epifanovsky and M. Oana.

 Additional authors for Version 3.2: 
 R. Baer, B. R. Brooks, D. Casanova, J.-D. Chai, C.-L. Cheng, 
 C. Cramer, D. Crittenden, A. Ghysels, G. Hawkins, E. G. Hohenstein, 
 C. Kelley, W. Kurlancheek, D. Liotard, E. Livshits, P. Manohar, 
 A. Marenich, D. Neuhauser, R. Olson, M. A. Rohrdanz, K. S. Thanthiriwatte, 
 A. J. W. Thom, V. Vanovschi, C. F. Williams, Q. Wu and Z.-Q. You. 


 Intel X86 Linux Version

 Q-chem begins on Tue Apr 12 12:07:56 2011  

 Parallel job on  1  processors
Processing $rem in /usr/local/qchem/config/preferences.

theFileMan(): MAXOPENFILES=974 MAX_SUB_FILE_NUM=16
Maximum size of a physical file is 2.0 GB, maximum size of a tmp-file is 32.0 GB


--------------------------------------------------------------
User input:
--------------------------------------------------------------

$molecule
-1,2
 C        25.045259       23.435011       24.198259
 C        23.883123       22.987669       23.571693
 C        22.952639       23.894247       23.036823
 C        23.225454       25.266073       23.167511
 C        24.388231       25.712584       23.794245
 C        25.325571       24.806040       24.316170
 H        25.746307       22.708881       24.618103
 H        23.683336       21.915379       23.505596
 H        22.506229       25.992571       22.782879
 H        24.569353       26.785936       23.895315
 H        21.333246       24.090744       21.797949
 H        21.790066       22.505487       22.079519
 H        26.780706       26.185043       24.738384
 H        27.238531       24.598999       25.019846
 N        26.464031       25.257441       25.008450
 N        21.747786       23.445486       22.464247

$end

$comment
negative
$end

$xc_functional
   X HF 1.0
   X BNL 1.0
   C LYP 1.0
$end

$rem
SYMMETRY_DECOMPOSITION	0
exchange 		general
BASIS                   g3large
omega			330
separate_jk		true
mem_static              760
max_scf_cycles          200
scf_final_print         1
sym_ignore              true
$end

--------------------------------------------------------------
 Writing REM_CC_EA           16
 ----------------------------------------------------
       Standard Nuclear Orientation (Angstroms)
    I     Atom         X            Y            Z
 ----------------------------------------------------
    1      C      25.045259    23.435011    24.198259
    2      C      23.883123    22.987669    23.571693
    3      C      22.952639    23.894247    23.036823
    4      C      23.225454    25.266073    23.167511
    5      C      24.388231    25.712584    23.794245
    6      C      25.325571    24.806040    24.316170
    7      H      25.746307    22.708881    24.618103
    8      H      23.683336    21.915379    23.505596
    9      H      22.506229    25.992571    22.782879
   10      H      24.569353    26.785936    23.895315
   11      H      21.333246    24.090744    21.797949
   12      H      21.790066    22.505487    22.079519
   13      H      26.780706    26.185043    24.738384
   14      H      27.238531    24.598999    25.019846
   15      N      26.464031    25.257441    25.008450
   16      N      21.747786    23.445486    22.464247
 ----------------------------------------------------
 Nuclear Repulsion Energy =   343.4676084748 hartrees
 There are       30 alpha and       29 beta electrons
 Requested basis set is G3large
 There are 128 shells and 416 basis functions

Total QAlloc Memory Limit   2000 MB
Mega-Array Size       743 MB
MEM_STATIC part       760 MB
 A cutoff of  1.0D-08 yielded   6564 shell pairs
 There are  69935 function pairs ( 87064 Cartesian)
Evaluating contribution to one-electron hamiltonian from nuclear
 Smallest overlap matrix eigenvalue = 7.45E-07

 Q-Chem warning in module mkSTV.C, line 194:

 Overlap eigenvalue is smaller than square root of threshold

 Linear dependence detected in AO basis
 Number of orthogonalized atomic orbitals = 415
 Maximum deviation from orthogonality = 8.255E-11
 Multipole matrices computed through 2nd order

  Scale SEOQF with 1.000000e-03/1.000000e-03/1.000000e-03

 Standard Electronic Orientation quadrupole field applied
 Nucleus-field energy     =     0.0000000019 hartrees
 Guess from superposition of atomic densities
 Warning:  Energy on first SCF cycle will be non-variational
 An unrestricted hybrid HF-DFT SCF calculation will be
 performed using Pulay DIIS extrapolation
 Exchange:     1.0000 Hartree-Fock + 1.0000 BNL
 Correlation:  1.0000 LYP
 Using SG-1 standard quadrature grid
 SCF converges when DIIS error is below 1.0E-05
 Warning!  Inaccurate integrated density:
   Number of electrons =    59
   Numerical integral  =    58.000465635056
   Relative error      =    -1.6941260423 %
 ---------------------------------------
  Cycle       Energy         DIIS Error
 ---------------------------------------
    1    -341.7602511958      2.50E-02
    2    -338.7259600843      2.87E-03
    3    -338.6896247818      3.34E-03
    4    -338.9380315563      5.85E-04
    5    -338.9475414256      2.50E-04
    6    -338.9491526017      7.81E-05
    7    -338.9497314111      5.71E-05
    8    -338.9502979922      5.18E-05
    9    -338.9506845237      5.27E-05
   10    -338.9508557796      5.37E-05
   11    -338.9489374155      5.52E-05
   12    -338.9475473371      1.01E-04
   13    -338.9477554385      9.48E-05
   14    -338.9479006598      9.90E-05
   15    -338.9478414353      9.68E-05
   16    -338.9475916307      8.69E-05
   17    -338.9474177572      8.89E-05
   18    -338.9473273170      9.65E-05
   19    -338.9473060040      9.99E-05
   20    -338.9473643447      8.29E-05
   21    -338.9473211536      7.50E-05
   22    -338.9473079151      7.22E-05
   23    -338.9472971393      6.53E-05
   24    -338.9473268801      5.56E-05
   25    -338.9474331206      2.19E-05
   26    -338.9475021812      1.21E-05
   27    -338.9475212439      7.46E-06 Convergence criterion met
 ---------------------------------------
 One-Electron    Energy = -1153.3803427859
 Total Coulomb   Energy =   516.3035394193
 Alpha Exchange  Energy =    -5.0436802429
 Beta  Exchange  Energy =    -4.8966403858
 DFT   Exchange  Energy =   -33.4176986034
 DFT Correlation Energy =    -1.9803071219
 Nuclear Repu.   Energy =   343.4676084767
 Nuclear Attr.   Energy = -1490.7545486586
 Kinetic         Energy =   337.3742058728
 <S^2> = 0.7620
 SCF time:  CPU 3759.37 s  wall 3762.80 s
 Final Alpha MO Eigenvalues
            1           2           3           4           5           6
    1 -13.8475911 -13.8466905  -9.7836365  -9.7835168  -9.7245483  -9.7242615
            7           8           9          10          11          12
    1  -9.7241869  -9.7239711  -0.8411166  -0.8350892  -0.7323817  -0.6488565
           13          14          15          16          17          18
    1  -0.6224063  -0.5366716  -0.5124715  -0.4564522  -0.4439497  -0.4187496
           19          20          21          22          23          24
    1  -0.4101793  -0.3398180  -0.3269694  -0.3257977  -0.3155715  -0.2860835
           25          26          27          28          29          30
    1  -0.2828993  -0.2381675  -0.2041873  -0.1676365  -0.1032011   0.0437011
           31          32          33          34          35
    1   0.1353476   0.1361153   0.1460726   0.1556233   0.1584577
 Final Beta MO Eigenvalues
            1           2           3           4           5           6
    1 -13.8476209 -13.8467035  -9.7850592  -9.7849353  -9.7207523  -9.7204592
            7           8           9          10          11          12
    1  -9.7203408  -9.7200927  -0.8406230  -0.8349893  -0.7282198  -0.6407713
           13          14          15          16          17          18
    1  -0.6191987  -0.5279414  -0.5112048  -0.4555549  -0.4413078  -0.4161506
           19          20          21          22          23          24
    1  -0.4073197  -0.3362638  -0.3239781  -0.3190525  -0.3116561  -0.2820375
           25          26          27          28          29          30
    1  -0.2797465  -0.2353638  -0.1980797  -0.1348510  -0.0879974   0.1315247
           31          32          33          34
    1   0.1324328   0.1422957   0.1499796   0.1552294
 Analysis of SCF Wavefunction
 
 --------------------------------------------------------------
                    Orbital Energies (a.u.)
 --------------------------------------------------------------
 
 Alpha MOs
 -- Occupied --
-13.848 -13.847  -9.784  -9.784  -9.725  -9.724  -9.724  -9.724
 -0.841  -0.835  -0.732  -0.649  -0.622  -0.537  -0.512  -0.456
 -0.444  -0.419  -0.410  -0.340  -0.327  -0.326  -0.316  -0.286
 -0.283  -0.238  -0.204  -0.168  -0.103   0.044
 -- Virtual --
  0.135   0.136   0.146   0.156   0.158   0.184   0.188   0.210
  0.229   0.242   0.249   0.267   0.270   0.277   0.280   0.287
  0.287   0.290   0.296   0.309   0.311   0.323   0.325   0.328
  0.331   0.340   0.344   0.350   0.356   0.365   0.366   0.375
  0.384   0.389   0.392   0.415   0.426   0.428   0.439   0.444
  0.449   0.451   0.470   0.486   0.494   0.501   0.502   0.507
  0.524   0.536   0.567   0.608   0.618   0.625   0.632   0.680
  0.728   0.751   0.777   0.778   0.781   0.787   0.794   0.798
  0.798   0.799   0.834   0.835   0.853   0.853   0.865   0.867
  0.877   0.890   0.893   0.916   0.917   0.921   0.926   0.930
  0.961   0.967   0.972   0.974   0.974   0.989   1.012   1.014
  1.030   1.031   1.040   1.060   1.070   1.085   1.095   1.097
  1.114   1.122   1.124   1.179   1.181   1.191   1.230   1.247
  1.279   1.307   1.308   1.327   1.329   1.343   1.347   1.361
  1.380   1.380   1.409   1.439   1.445   1.452   1.496   1.517
  1.535   1.539   1.544   1.551   1.569   1.588   1.589   1.592
  1.618   1.627   1.676   1.678   1.678   1.702   1.714   1.731
  1.756   1.765   1.796   1.839   1.894   1.916   1.944   1.989
  1.992   1.995   2.038   2.052   2.054   2.071   2.077   2.109
  2.132   2.148   2.161   2.201   2.294   2.418   2.487   2.502
  2.593   2.708   2.790   2.815   2.820   2.867   2.902   2.918
  2.941   2.971   2.991   2.998   3.004   3.046   3.049   3.058
  3.061   3.073   3.104   3.107   3.119   3.145   3.151   3.162
  3.169   3.195   3.205   3.219   3.229   3.261   3.314   3.349
  3.354   3.374   3.400   3.415   3.453   3.457   3.476   3.479
  3.494   3.496   3.503   3.508   3.538   3.540   3.547   3.592
  3.615   3.649   3.652   3.653   3.654   3.673   3.677   3.693
  3.719   3.733   3.752   3.758   3.808   3.812   3.826   3.834
  3.836   3.901   3.925   3.928   3.939   3.951   3.977   3.998
  4.012   4.016   4.059   4.079   4.126   4.156   4.157   4.167
  4.169   4.202   4.221   4.226   4.235   4.248   4.251   4.272
  4.282   4.323   4.365   4.372   4.401   4.440   4.520   4.532
  4.560   4.593   4.594   4.611   4.638   4.649   4.657   4.682
  4.696   4.729   4.733   4.761   4.769   4.786   4.803   4.837
  4.877   4.895   4.951   4.960   5.058   5.079   5.087   5.137
  5.169   5.178   5.241   5.278   5.282   5.340   5.388   5.426
  5.439   5.492   5.493   5.493   5.539   5.553   5.614   5.622
  5.679   5.809   5.825   5.859   5.917   5.933   6.065   6.069
  6.074   6.144   6.228   6.313   6.560   6.622   6.633   6.672
  6.765  24.111  24.653  24.686  24.925  24.937  25.419  27.452
 27.617  27.628  27.696  27.717  27.925  28.153  28.271  28.288
 28.440  28.463  28.468  28.698  28.725  28.797  28.820  28.853
 29.372  36.098  36.127  37.741  37.771  38.447  38.461  38.627
 38.722  40.689  40.703  40.732  40.753  40.851  40.853  40.887
 40.896  40.949  40.954  41.042  41.044  41.087  41.094  41.101
 41.106  41.115  41.121  41.191  41.223  41.315  41.320  41.369
 41.382  41.409  41.423  41.433  41.436  41.440  41.445  41.457
 41.466  41.505  41.535  41.575  41.586  41.645  41.675  41.727
 41.753
 
 Beta MOs
 -- Occupied --
-13.848 -13.847  -9.785  -9.785  -9.721  -9.720  -9.720  -9.720
 -0.841  -0.835  -0.728  -0.641  -0.619  -0.528  -0.511  -0.456
 -0.441  -0.416  -0.407  -0.336  -0.324  -0.319  -0.312  -0.282
 -0.280  -0.235  -0.198  -0.135  -0.088
 -- Virtual --
  0.132   0.132   0.142   0.150   0.155   0.180   0.184   0.205
  0.226   0.238   0.240   0.246   0.265   0.267   0.275   0.278
  0.285   0.285   0.287   0.294   0.307   0.321   0.323   0.325
  0.328   0.330   0.336   0.341   0.348   0.355   0.363   0.364
  0.376   0.381   0.387   0.392   0.413   0.425   0.426   0.437
  0.444   0.449   0.467   0.469   0.484   0.492   0.502   0.503
  0.505   0.526   0.537   0.569   0.611   0.619   0.625   0.632
  0.681   0.730   0.754   0.781   0.782   0.783   0.788   0.800
  0.801   0.802   0.804   0.836   0.838   0.853   0.855   0.866
  0.870   0.885   0.892   0.895   0.918   0.919   0.921   0.928
  0.932   0.968   0.970   0.975   0.975   0.982   0.989   1.012
  1.016   1.030   1.035   1.043   1.061   1.074   1.090   1.096
  1.098   1.117   1.123   1.126   1.180   1.181   1.193   1.233
  1.248   1.282   1.309   1.309   1.331   1.332   1.344   1.349
  1.364   1.381   1.382   1.410   1.438   1.446   1.454   1.498
  1.522   1.537   1.539   1.547   1.552   1.570   1.590   1.592
  1.594   1.620   1.629   1.677   1.680   1.686   1.703   1.715
  1.733   1.760   1.767   1.798   1.842   1.896   1.918   1.945
  1.991   1.995   1.999   2.042   2.055   2.056   2.071   2.079
  2.112   2.135   2.149   2.163   2.204   2.297   2.420   2.490
  2.504   2.593   2.712   2.794   2.820   2.825   2.872   2.907
  2.927   2.949   2.974   2.990   3.005   3.007   3.048   3.053
  3.065   3.066   3.076   3.111   3.112   3.125   3.149   3.161
  3.172   3.177   3.197   3.211   3.225   3.235   3.264   3.320
  3.351   3.359   3.377   3.407   3.419   3.457   3.461   3.482
  3.486   3.498   3.501   3.511   3.513   3.541   3.542   3.552
  3.595   3.621   3.651   3.655   3.656   3.658   3.676   3.684
  3.694   3.722   3.739   3.760   3.761   3.811   3.817   3.831
  3.834   3.842   3.906   3.929   3.930   3.943   3.956   3.983
  4.003   4.014   4.018   4.066   4.082   4.131   4.158   4.162
  4.170   4.170   4.205   4.223   4.231   4.236   4.248   4.253
  4.274   4.288   4.324   4.366   4.375   4.405   4.443   4.520
  4.535   4.565   4.596   4.598   4.614   4.643   4.653   4.660
  4.689   4.700   4.734   4.738   4.763   4.775   4.795   4.804
  4.839   4.881   4.896   4.954   4.962   5.058   5.080   5.092
  5.141   5.171   5.179   5.244   5.280   5.283   5.343   5.389
  5.428   5.439   5.492   5.493   5.494   5.540   5.554   5.615
  5.623   5.680   5.810   5.826   5.861   5.918   5.933   6.068
  6.072   6.074   6.145   6.230   6.315   6.560   6.622   6.633
  6.673   6.768  24.114  24.659  24.687  24.925  24.942  25.421
 27.456  27.625  27.628  27.697  27.725  27.929  28.154  28.272
 28.289  28.442  28.464  28.470  28.700  28.726  28.799  28.821
 28.855  29.374  36.098  36.127  37.741  37.771  38.447  38.461
 38.627  38.722  40.689  40.703  40.732  40.753  40.851  40.853
 40.887  40.896  40.949  40.954  41.041  41.044  41.089  41.097
 41.106  41.112  41.121  41.125  41.195  41.227  41.316  41.322
 41.368  41.381  41.415  41.429  41.438  41.440  41.444  41.451
 41.461  41.467  41.505  41.534  41.577  41.589  41.649  41.678
 41.729  41.755
 --------------------------------------------------------------
 
          Ground-State Mulliken Net Atomic Charges

     Atom                 Charge (a.u.)    Spin (a.u.)
  --------------------------------------------------------
      1 C                    -0.127822       0.267044
      2 C                    -0.191199       0.324786
      3 C                    -0.295644      -0.121820
      4 C                    -0.107853       0.242975
      5 C                    -0.189470       0.324930
      6 C                    -0.335595      -0.085754
      7 H                     0.095239      -0.019506
      8 H                     0.036635       0.041595
      9 H                     0.093742      -0.017580
     10 H                     0.087158      -0.010746
     11 H                     0.178396      -0.002535
     12 H                     0.134289       0.043271
     13 H                     0.164915       0.011418
     14 H                     0.169060       0.007552
     15 N                    -0.357786      -0.000730
     16 N                    -0.354066      -0.004901
  --------------------------------------------------------
  Sum of atomic charges =    -1.000000
  Sum of spin   charges =     1.000000

 -----------------------------------------------------------------
                    Cartesian Multipole Moments
 -----------------------------------------------------------------
    Charge (ESU x 10^10)
                -4.8032
    Dipole Moment (Debye)
         X    -115.0776      Y    -116.6446      Z    -114.9806
       Tot     200.1733
    Quadrupole Moments (Debye-Ang)
        XX   -2817.3023     XY   -2795.2564     YY   -2892.8888
        XZ   -2753.6863     YZ   -2793.4359     ZZ   -2814.7548
    Octapole Moments (Debye-Ang^2)
       XXX  -70389.6758    XXY  -68443.8288    XYY  -69348.9796
       YYY  -73182.2851    XXZ  -67379.1979    XYZ  -66918.4855
       YYZ  -69289.1743    XZZ  -67412.1981    YZZ  -68418.8526
       ZZZ  -70326.0373
    Hexadecapole Moments (Debye-Ang^3)
      XXXX ************   XXXY ************   XXYY ************
      XYYY ************   YYYY ************   XXXZ ************
      XXYZ ************   XYYZ ************   YYYZ ************
      XXZZ ************   XYZZ ************   YYZZ ************
      XZZZ ************   YZZZ ************   ZZZZ ************
 -----------------------------------------------------------------
 Total job time:  3764.27s(wall), 3760.82s(cpu) 
 Tue Apr 12 13:10:40 2011

        *************************************************************
        *                                                           *
        *  Thank you very much for using Q-Chem.  Have a nice day.  *
        *                                                           *
        *************************************************************


0 sent ACK to 0 
now end server 0 ... 
 
**********************************************************************
Job 2 of 3 
**********************************************************************
 
Process 0 of 1 is on cl047.dal.acenet.ca - thread support 1
initial socket setup ...start
initial socket setup ...done 
now start server 0 ... 

cmd = /usr/bin/ssh glooscap.ace-net.ca /usr/local/qchem/bin/get_hostid 968576913 > /tmp/179717.1.medium.q/qchem12181/lic.dat
                  Welcome to Q-Chem
     A Quantum Leap Into The Future Of Chemistry

 Y. Shao, L. Fusti-Molnar, Y. Jung, J. Kussmann, C. Ochsenfeld,
 S. T. Brown, A. T. B. Gilbert, L. V. Slipchenko,S. V. Levchenko,
 D. P. O'Neill, R. A. DiStasio Jr., R. C. Lochan, T. Wang,
 G. J. O. Beran, N. A. Besley, J. M. Herbert, C. Y. Lin,
 T. Van Voorhis, S. H. Chien, A. Sodt, R. P. Steele, 
 V. A. Rassolov, P. E. Maslen, P. P. Korambath, R. D. Adamson,
 B. Austin, J. Baker, E. F. C. Byrd, H. Dachsel, R. J. Doerksen,
 A. Dreuw, B. D. Dunietz, A. D. Dutoi, T. R. Furlani,
 S. R. Gwaltney, A. Heyden, S. Hirata, C.-P. Hsu, G. Kedziora,
 R. Z. Khaliullin, P. Klunzinger, A. M. Lee, M. S. Lee, W. Liang,
 I. Lotan, N. Nair, B. Peters, E. I. Proynov, P. A. Pieniazek, 
 Y. M. Rhee, J. Ritchie, E. Rosta, C. D. Sherrill, 
 A. C. Simmonett, J. E. Subotnik, H. L. Woodcock III,
 W. Zhang, A. T. Bell, A. K. Chakraborty, D. M. Chipman,
 F. J. Keil, A. Warshel, W. J. Hehre, H. F. Schaefer III,
 J. Kong, A. I. Krylov, P. M. W. Gill, M. Head-Gordon,
 Q-Chem, Version 3.1, Q-Chem, Inc., Pittsburgh, PA (2007).

 Additional authors for Version 3.1: 
 Z. Gan, Y. Zhao, N. E. Schultz, D. Truhlar, E. Epifanovsky and M. Oana.

 Additional authors for Version 3.2: 
 R. Baer, B. R. Brooks, D. Casanova, J.-D. Chai, C.-L. Cheng, 
 C. Cramer, D. Crittenden, A. Ghysels, G. Hawkins, E. G. Hohenstein, 
 C. Kelley, W. Kurlancheek, D. Liotard, E. Livshits, P. Manohar, 
 A. Marenich, D. Neuhauser, R. Olson, M. A. Rohrdanz, K. S. Thanthiriwatte, 
 A. J. W. Thom, V. Vanovschi, C. F. Williams, Q. Wu and Z.-Q. You. 


 Intel X86 Linux Version

 Q-chem begins on Tue Apr 12 13:11:01 2011  

 Parallel job on  1  processors
Processing $rem in /usr/local/qchem/config/preferences.

theFileMan(): MAXOPENFILES=974 MAX_SUB_FILE_NUM=16
Maximum size of a physical file is 2.0 GB, maximum size of a tmp-file is 32.0 GB


--------------------------------------------------------------
User input:
--------------------------------------------------------------

$molecule
0,1
 C        25.045259       23.435011       24.198259
 C        23.883123       22.987669       23.571693
 C        22.952639       23.894247       23.036823
 C        23.225454       25.266073       23.167511
 C        24.388231       25.712584       23.794245
 C        25.325571       24.806040       24.316170
 H        25.746307       22.708881       24.618103
 H        23.683336       21.915379       23.505596
 H        22.506229       25.992571       22.782879
 H        24.569353       26.785936       23.895315
 H        21.333246       24.090744       21.797949
 H        21.790066       22.505487       22.079519
 H        26.780706       26.185043       24.738384
 H        27.238531       24.598999       25.019846
 N        26.464031       25.257441       25.008450
 N        21.747786       23.445486       22.464247

$end

$comment
neutral
$end

$xc_functional
   X HF 1.0
   X BNL 1.0
   C LYP 1.0
$end

$rem
SYMMETRY_DECOMPOSITION	0
exchange 		general
BASIS                   g3large
omega			330
separate_jk		true
mem_static              760
max_scf_cycles          200
scf_final_print         1
sym_ignore              true
$end

--------------------------------------------------------------
 Writing REM_CC_EA           16
 ----------------------------------------------------
       Standard Nuclear Orientation (Angstroms)
    I     Atom         X            Y            Z
 ----------------------------------------------------
    1      C      25.045259    23.435011    24.198259
    2      C      23.883123    22.987669    23.571693
    3      C      22.952639    23.894247    23.036823
    4      C      23.225454    25.266073    23.167511
    5      C      24.388231    25.712584    23.794245
    6      C      25.325571    24.806040    24.316170
    7      H      25.746307    22.708881    24.618103
    8      H      23.683336    21.915379    23.505596
    9      H      22.506229    25.992571    22.782879
   10      H      24.569353    26.785936    23.895315
   11      H      21.333246    24.090744    21.797949
   12      H      21.790066    22.505487    22.079519
   13      H      26.780706    26.185043    24.738384
   14      H      27.238531    24.598999    25.019846
   15      N      26.464031    25.257441    25.008450
   16      N      21.747786    23.445486    22.464247
 ----------------------------------------------------
 Nuclear Repulsion Energy =   343.4676084748 hartrees
 There are       29 alpha and       29 beta electrons
 Requested basis set is G3large
 There are 128 shells and 416 basis functions

Total QAlloc Memory Limit   2000 MB
Mega-Array Size       743 MB
MEM_STATIC part       760 MB
 A cutoff of  1.0D-08 yielded   6564 shell pairs
 There are  69935 function pairs ( 87064 Cartesian)
Evaluating contribution to one-electron hamiltonian from nuclear
 Smallest overlap matrix eigenvalue = 7.45E-07

 Q-Chem warning in module mkSTV.C, line 194:

 Overlap eigenvalue is smaller than square root of threshold

 Linear dependence detected in AO basis
 Number of orthogonalized atomic orbitals = 415
 Maximum deviation from orthogonality = 8.255E-11
 Multipole matrices computed through 2nd order

  Scale SEOQF with 1.000000e-03/1.000000e-03/1.000000e-03

 Standard Electronic Orientation quadrupole field applied
 Nucleus-field energy     =     0.0000000019 hartrees
 Guess from superposition of atomic densities
 Warning:  Energy on first SCF cycle will be non-variational
 A restricted hybrid HF-DFT SCF calculation will be
 performed using Pulay DIIS extrapolation
 Exchange:     1.0000 Hartree-Fock + 1.0000 BNL
 Correlation:  1.0000 LYP
 Using SG-1 standard quadrature grid
 SCF converges when DIIS error is below 1.0E-05
 ---------------------------------------
  Cycle       Energy         DIIS Error
 ---------------------------------------
    1    -341.7602511958      2.50E-02
    2    -338.8962379337      2.07E-03
    3    -338.9643681664      1.33E-03
    4    -338.9964087383      2.30E-04
    5    -338.9977671591      7.17E-05
    6    -338.9978952984      3.90E-05
    7    -338.9979161612      6.79E-06 Convergence criterion met
 ---------------------------------------
 One-Electron    Energy = -1142.8574447955
 Total Coulomb   Energy =   505.4842762211
 Alpha Exchange  Energy =    -4.9077085374
 Beta  Exchange  Energy =    -4.9077085374
 DFT   Exchange  Energy =   -33.3216292019
 DFT Correlation Energy =    -1.9553097868
 Nuclear Repu.   Energy =   343.4676084767
 Nuclear Attr.   Energy = -1479.9595104246
 Kinetic         Energy =   337.1020656291
 SCF time:  CPU 746.72 s  wall 747.75 s
 Final Alpha MO Eigenvalues
            1           2           3           4           5           6
    1 -14.0054443 -14.0052798  -9.9689145  -9.9688210  -9.9318978  -9.9317783
            7           8           9          10          11          12
    1  -9.9314633  -9.9313880  -1.0117566  -1.0007231  -0.9186657  -0.8423756
           13          14          15          16          17          18
    1  -0.8047588  -0.7198410  -0.6921126  -0.6267416  -0.6240729  -0.5894775
           19          20          21          22          23          24
    1  -0.5725774  -0.5279518  -0.5142855  -0.5070611  -0.5041712  -0.4731165
           25          26          27          28          29          30
    1  -0.4491156  -0.4270960  -0.3711129  -0.3448847  -0.2677142   0.0286329
           31          32          33          34
    1   0.0337501   0.0406163   0.0541977   0.0547182
 Analysis of SCF Wavefunction
 
 --------------------------------------------------------------
                    Orbital Energies (a.u.)
 --------------------------------------------------------------
 
 Alpha MOs
 -- Occupied --
-14.005 -14.005  -9.969  -9.969  -9.932  -9.932  -9.931  -9.931
 -1.012  -1.001  -0.919  -0.842  -0.805  -0.720  -0.692  -0.627
 -0.624  -0.589  -0.573  -0.528  -0.514  -0.507  -0.504  -0.473
 -0.449  -0.427  -0.371  -0.345  -0.268
 -- Virtual --
  0.029   0.034   0.041   0.054   0.055   0.060   0.081   0.084
  0.086   0.103   0.115   0.126   0.131   0.134   0.136   0.149
  0.156   0.161   0.170   0.171   0.175   0.183   0.195   0.200
  0.202   0.203   0.217   0.218   0.224   0.228   0.229   0.236
  0.246   0.258   0.263   0.271   0.277   0.281   0.296   0.297
  0.300   0.311   0.313   0.333   0.350   0.352   0.354   0.359
  0.365   0.374   0.375   0.399   0.443   0.450   0.464   0.469
  0.518   0.559   0.581   0.608   0.610   0.610   0.622   0.623
  0.624   0.632   0.638   0.676   0.679   0.687   0.696   0.707
  0.707   0.712   0.722   0.728   0.751   0.752   0.766   0.767
  0.767   0.782   0.797   0.806   0.806   0.817   0.831   0.847
  0.861   0.862   0.868   0.873   0.892   0.904   0.909   0.925
  0.930   0.933   0.951   0.953   1.021   1.021   1.028   1.061
  1.092   1.108   1.137   1.145   1.161   1.162   1.174   1.182
  1.184   1.209   1.216   1.237   1.273   1.279   1.284   1.327
  1.339   1.361   1.367   1.376   1.377   1.398   1.412   1.421
  1.432   1.439   1.446   1.503   1.504   1.515   1.542   1.545
  1.567   1.586   1.598   1.631   1.667   1.714   1.748   1.782
  1.815   1.820   1.829   1.863   1.875   1.886   1.908   1.912
  1.942   1.962   1.986   1.990   2.021   2.110   2.236   2.315
  2.326   2.419   2.527   2.608   2.637   2.641   2.681   2.712
  2.733   2.749   2.791   2.814   2.819   2.828   2.864   2.867
  2.873   2.874   2.886   2.913   2.920   2.930   2.956   2.960
  2.971   2.979   3.006   3.014   3.030   3.046   3.077   3.130
  3.163   3.169   3.188   3.210   3.232   3.266   3.268   3.287
  3.288   3.307   3.308   3.313   3.323   3.355   3.358   3.358
  3.409   3.425   3.465   3.468   3.469   3.482   3.490   3.502
  3.516   3.536   3.546   3.573   3.584   3.631   3.633   3.639
  3.649   3.661   3.723   3.743   3.749   3.763   3.771   3.794
  3.809   3.844   3.850   3.875   3.912   3.946   3.973   3.979
  3.986   3.991   4.019   4.040   4.045   4.067   4.073   4.083
  4.083   4.095   4.158   4.188   4.202   4.214   4.257   4.337
  4.346   4.377   4.412   4.419   4.431   4.451   4.464   4.477
  4.494   4.518   4.540   4.551   4.580   4.586   4.594   4.629
  4.648   4.697   4.726   4.776   4.781   4.881   4.901   4.905
  4.950   4.993   5.001   5.064   5.095   5.103   5.159   5.211
  5.253   5.279   5.326   5.327   5.330   5.363   5.382   5.445
  5.449   5.507   5.638   5.641   5.682   5.752   5.768   5.874
  5.884   5.903   5.964   6.041   6.136   6.397   6.467   6.475
  6.503   6.576  23.911  24.449  24.491  24.732  24.734  25.221
 27.252  27.410  27.435  27.503  27.510  27.724  27.955  28.073
 28.093  28.238  28.265  28.267  28.499  28.523  28.594  28.621
 28.657  29.172  35.940  35.968  37.583  37.613  38.289  38.303
 38.468  38.564  40.531  40.545  40.574  40.594  40.692  40.694
 40.728  40.738  40.791  40.796  40.852  40.853  40.886  40.896
 40.900  40.904  40.909  40.923  40.986  41.017  41.118  41.122
 41.178  41.191  41.203  41.218  41.227  41.233  41.241  41.242
 41.254  41.269  41.312  41.345  41.374  41.381  41.442  41.472
 41.527  41.554
 --------------------------------------------------------------
 
          Ground-State Mulliken Net Atomic Charges

     Atom                 Charge (a.u.)
  ----------------------------------------
      1 C                    -0.001261
      2 C                     0.001556
      3 C                    -0.379572
      4 C                    -0.002433
      5 C                     0.002246
      6 C                    -0.381089
      7 H                     0.153615
      8 H                     0.153892
      9 H                     0.154092
     10 H                     0.153684
     11 H                     0.196532
     12 H                     0.196595
     13 H                     0.196800
     14 H                     0.196666
     15 N                    -0.320777
     16 N                    -0.320545
  ----------------------------------------
  Sum of atomic charges =     0.000000

 -----------------------------------------------------------------
                    Cartesian Multipole Moments
 -----------------------------------------------------------------
    Charge (ESU x 10^10)
                 0.0000
    Dipole Moment (Debye)
         X       1.0130      Y      -0.0352      Z      -1.8393
       Tot       2.1001
    Quadrupole Moments (Debye-Ang)
        XX       6.0091     XY      24.7444     YY     -43.4755
        XZ     -13.8882     YZ     -45.3626     ZZ    -138.3643
    Octapole Moments (Debye-Ang^2)
       XXX   -1306.5210    XXY     177.3963    XYY    -401.9927
       YYY   -3113.4675    XXZ    -621.7796    XYZ    -334.8102
       YYZ   -2110.8780    XZZ   -2478.5989    YZZ   -3383.7639
       ZZZ   -6751.1047
    Hexadecapole Moments (Debye-Ang^3)
      XXXX  -90834.1136   XXXY  -30285.1400   XXYY  -19339.0223
      XYYY  -58819.4386   YYYY -150969.1124   XXXZ  -46050.1709
      XXYZ  -14493.8875   XYYZ  -32025.0455   YYYZ -100100.9144
      XXZZ  -63574.0655   XYZZ  -60440.3771   YYZZ -106436.3861
      XZZZ -139826.3937   YZZZ -164975.4522   ZZZZ -271912.0688
 -----------------------------------------------------------------
 Total job time:  749.15s(wall), 748.11s(cpu) 
 Tue Apr 12 13:23:30 2011

        *************************************************************
        *                                                           *
        *  Thank you very much for using Q-Chem.  Have a nice day.  *
        *                                                           *
        *************************************************************


0 sent ACK to 0 
now end server 0 ... 
 
**********************************************************************
Job 3 of 3 
**********************************************************************
 
Process 0 of 1 is on cl047.dal.acenet.ca - thread support 1
initial socket setup ...start
initial socket setup ...done 
now start server 0 ... 

cmd = /usr/bin/ssh glooscap.ace-net.ca /usr/local/qchem/bin/get_hostid 250398654 > /tmp/179717.1.medium.q/qchem12181/lic.dat
                  Welcome to Q-Chem
     A Quantum Leap Into The Future Of Chemistry

 Y. Shao, L. Fusti-Molnar, Y. Jung, J. Kussmann, C. Ochsenfeld,
 S. T. Brown, A. T. B. Gilbert, L. V. Slipchenko,S. V. Levchenko,
 D. P. O'Neill, R. A. DiStasio Jr., R. C. Lochan, T. Wang,
 G. J. O. Beran, N. A. Besley, J. M. Herbert, C. Y. Lin,
 T. Van Voorhis, S. H. Chien, A. Sodt, R. P. Steele, 
 V. A. Rassolov, P. E. Maslen, P. P. Korambath, R. D. Adamson,
 B. Austin, J. Baker, E. F. C. Byrd, H. Dachsel, R. J. Doerksen,
 A. Dreuw, B. D. Dunietz, A. D. Dutoi, T. R. Furlani,
 S. R. Gwaltney, A. Heyden, S. Hirata, C.-P. Hsu, G. Kedziora,
 R. Z. Khaliullin, P. Klunzinger, A. M. Lee, M. S. Lee, W. Liang,
 I. Lotan, N. Nair, B. Peters, E. I. Proynov, P. A. Pieniazek, 
 Y. M. Rhee, J. Ritchie, E. Rosta, C. D. Sherrill, 
 A. C. Simmonett, J. E. Subotnik, H. L. Woodcock III,
 W. Zhang, A. T. Bell, A. K. Chakraborty, D. M. Chipman,
 F. J. Keil, A. Warshel, W. J. Hehre, H. F. Schaefer III,
 J. Kong, A. I. Krylov, P. M. W. Gill, M. Head-Gordon,
 Q-Chem, Version 3.1, Q-Chem, Inc., Pittsburgh, PA (2007).

 Additional authors for Version 3.1: 
 Z. Gan, Y. Zhao, N. E. Schultz, D. Truhlar, E. Epifanovsky and M. Oana.

 Additional authors for Version 3.2: 
 R. Baer, B. R. Brooks, D. Casanova, J.-D. Chai, C.-L. Cheng, 
 C. Cramer, D. Crittenden, A. Ghysels, G. Hawkins, E. G. Hohenstein, 
 C. Kelley, W. Kurlancheek, D. Liotard, E. Livshits, P. Manohar, 
 A. Marenich, D. Neuhauser, R. Olson, M. A. Rohrdanz, K. S. Thanthiriwatte, 
 A. J. W. Thom, V. Vanovschi, C. F. Williams, Q. Wu and Z.-Q. You. 


 Intel X86 Linux Version

 Q-chem begins on Tue Apr 12 13:23:53 2011  

 Parallel job on  1  processors
Processing $rem in /usr/local/qchem/config/preferences.

theFileMan(): MAXOPENFILES=974 MAX_SUB_FILE_NUM=16
Maximum size of a physical file is 2.0 GB, maximum size of a tmp-file is 32.0 GB


--------------------------------------------------------------
User input:
--------------------------------------------------------------

$molecule
1,2
 C        25.045259       23.435011       24.198259
 C        23.883123       22.987669       23.571693
 C        22.952639       23.894247       23.036823
 C        23.225454       25.266073       23.167511
 C        24.388231       25.712584       23.794245
 C        25.325571       24.806040       24.316170
 H        25.746307       22.708881       24.618103
 H        23.683336       21.915379       23.505596
 H        22.506229       25.992571       22.782879
 H        24.569353       26.785936       23.895315
 H        21.333246       24.090744       21.797949
 H        21.790066       22.505487       22.079519
 H        26.780706       26.185043       24.738384
 H        27.238531       24.598999       25.019846
 N        26.464031       25.257441       25.008450
 N        21.747786       23.445486       22.464247

$end

$comment
positive
$end

$xc_functional
   X HF 1.0
   X BNL 1.0
   C LYP 1.0
$end

$rem
SYMMETRY_DECOMPOSITION	0
exchange 		general
BASIS                   g3large
omega			330
separate_jk		true
mem_static              760
max_scf_cycles          200
scf_final_print         1
sym_ignore              true
$end

--------------------------------------------------------------
 Writing REM_CC_EA           16
 ----------------------------------------------------
       Standard Nuclear Orientation (Angstroms)
    I     Atom         X            Y            Z
 ----------------------------------------------------
    1      C      25.045259    23.435011    24.198259
    2      C      23.883123    22.987669    23.571693
    3      C      22.952639    23.894247    23.036823
    4      C      23.225454    25.266073    23.167511
    5      C      24.388231    25.712584    23.794245
    6      C      25.325571    24.806040    24.316170
    7      H      25.746307    22.708881    24.618103
    8      H      23.683336    21.915379    23.505596
    9      H      22.506229    25.992571    22.782879
   10      H      24.569353    26.785936    23.895315
   11      H      21.333246    24.090744    21.797949
   12      H      21.790066    22.505487    22.079519
   13      H      26.780706    26.185043    24.738384
   14      H      27.238531    24.598999    25.019846
   15      N      26.464031    25.257441    25.008450
   16      N      21.747786    23.445486    22.464247
 ----------------------------------------------------
 Nuclear Repulsion Energy =   343.4676084748 hartrees
 There are       29 alpha and       28 beta electrons
 Requested basis set is G3large
 There are 128 shells and 416 basis functions

Total QAlloc Memory Limit   2000 MB
Mega-Array Size       743 MB
MEM_STATIC part       760 MB
 A cutoff of  1.0D-08 yielded   6564 shell pairs
 There are  69935 function pairs ( 87064 Cartesian)
Evaluating contribution to one-electron hamiltonian from nuclear
 Smallest overlap matrix eigenvalue = 7.45E-07

 Q-Chem warning in module mkSTV.C, line 194:

 Overlap eigenvalue is smaller than square root of threshold

 Linear dependence detected in AO basis
 Number of orthogonalized atomic orbitals = 415
 Maximum deviation from orthogonality = 8.255E-11
 Multipole matrices computed through 2nd order

  Scale SEOQF with 1.000000e-03/1.000000e-03/1.000000e-03

 Standard Electronic Orientation quadrupole field applied
 Nucleus-field energy     =     0.0000000019 hartrees
 Guess from superposition of atomic densities
 Warning:  Energy on first SCF cycle will be non-variational
 An unrestricted hybrid HF-DFT SCF calculation will be
 performed using Pulay DIIS extrapolation
 Exchange:     1.0000 Hartree-Fock + 1.0000 BNL
 Correlation:  1.0000 LYP
 Using SG-1 standard quadrature grid
 SCF converges when DIIS error is below 1.0E-05
 Warning!  Inaccurate integrated density:
   Number of electrons =    57
   Numerical integral  =    58.000465635056
   Relative error      =     1.7552028685 %
 ---------------------------------------
  Cycle       Energy         DIIS Error
 ---------------------------------------
    1    -341.7602511958      2.50E-02
    2    -338.6645432521      1.62E-03
    3    -338.7221337136      7.94E-04
    4    -338.7330877111      3.06E-04
    5    -338.7352493382      8.61E-05
    6    -338.7354724656      3.73E-05
    7    -338.7355209503      9.82E-06 Convergence criterion met
 ---------------------------------------
 One-Electron    Energy = -1131.2130533417
 Total Coulomb   Energy =   493.7788407657
 Alpha Exchange  Energy =    -4.9217179214
 Beta  Exchange  Energy =    -4.7417893299
 DFT   Exchange  Energy =   -33.1825338998
 DFT Correlation Energy =    -1.9228756999
 Nuclear Repu.   Energy =   343.4676084767
 Nuclear Attr.   Energy = -1468.0148425630
 Kinetic         Energy =   336.8017892213
 <S^2> = 0.7701
 SCF time:  CPU 951.97 s  wall 952.84 s
 Final Alpha MO Eigenvalues
            1           2           3           4           5           6
    1 -14.2232447 -14.2230227 -10.1910452 -10.1909455 -10.1337471 -10.1336252
            7           8           9          10          11          12
    1 -10.1328843 -10.1328015  -1.2202947  -1.2086465  -1.1250739  -1.0399174
           13          14          15          16          17          18
    1  -1.0154826  -0.9214120  -0.8914759  -0.8242183  -0.8237624  -0.7922050
           19          20          21          22          23          24
    1  -0.7696252  -0.7214598  -0.7169050  -0.7148430  -0.6973776  -0.6726233
           25          26          27          28          29          30
    1  -0.6646183  -0.6224738  -0.5826871  -0.5407619  -0.4848284  -0.1308930
           31          32          33          34
    1  -0.1162888  -0.0922016  -0.0867712  -0.0727135
 Final Beta MO Eigenvalues
            1           2           3           4           5           6
    1 -14.2177743 -14.2175498 -10.1879516 -10.1878682 -10.1328914 -10.1327715
            7           8           9          10          11          12
    1 -10.1321242 -10.1320550  -1.2129120  -1.2005564  -1.1180389  -1.0377595
           13          14          15          16          17          18
    1  -1.0025775  -0.9169205  -0.8871581  -0.8211900  -0.8201562  -0.7868939
           19          20          21          22          23          24
    1  -0.7648872  -0.7185171  -0.7109191  -0.6986796  -0.6961797  -0.6685341
           25          26          27          28          29          30
    1  -0.6325303  -0.6198498  -0.5384279  -0.5311856  -0.2580665  -0.1138264
           31          32          33
    1  -0.0943475  -0.0862327  -0.0857976
 Analysis of SCF Wavefunction
 
 --------------------------------------------------------------
                    Orbital Energies (a.u.)
 --------------------------------------------------------------
 
 Alpha MOs
 -- Occupied --
-14.223 -14.223 -10.191 -10.191 -10.134 -10.134 -10.133 -10.133
 -1.220  -1.209  -1.125  -1.040  -1.015  -0.921  -0.891  -0.824
 -0.824  -0.792  -0.770  -0.721  -0.717  -0.715  -0.697  -0.673
 -0.665  -0.622  -0.583  -0.541  -0.485
 -- Virtual --
 -0.131  -0.116  -0.092  -0.087  -0.073  -0.059  -0.053  -0.037
 -0.026  -0.024  -0.023  -0.005   0.002   0.007   0.009   0.009
  0.033   0.034   0.039   0.046   0.046   0.052   0.054   0.061
  0.065   0.076   0.076   0.084   0.086   0.095   0.096   0.098
  0.103   0.114   0.128   0.130   0.138   0.142   0.149   0.149
  0.162   0.166   0.180   0.181   0.186   0.201   0.210   0.211
  0.220   0.220   0.225   0.231   0.281   0.284   0.293   0.293
  0.350   0.371   0.408   0.430   0.438   0.438   0.443   0.444
  0.453   0.454   0.463   0.504   0.507   0.508   0.526   0.526
  0.532   0.539   0.546   0.549   0.578   0.580   0.595   0.595
  0.602   0.603   0.620   0.626   0.634   0.636   0.653   0.675
  0.684   0.686   0.691   0.704   0.709   0.720   0.733   0.741
  0.744   0.757   0.768   0.773   0.841   0.846   0.853   0.882
  0.913   0.927   0.953   0.968   0.982   0.984   0.995   1.002
  1.003   1.031   1.045   1.048   1.102   1.103   1.106   1.145
  1.151   1.172   1.184   1.192   1.199   1.210   1.234   1.235
  1.250   1.254   1.260   1.319   1.321   1.336   1.364   1.370
  1.384   1.417   1.423   1.447   1.483   1.525   1.557   1.589
  1.633   1.633   1.639   1.677   1.687   1.694   1.717   1.721
  1.750   1.772   1.789   1.801   1.836   1.920   2.041   2.122
  2.132   2.230   2.324   2.404   2.443   2.446   2.490   2.516
  2.538   2.546   2.602   2.610   2.620   2.638   2.666   2.669
  2.671   2.676   2.694   2.713   2.718   2.730   2.758   2.760
  2.772   2.773   2.798   2.807   2.826   2.845   2.869   2.932
  2.960   2.970   2.988   3.007   3.027   3.061   3.070   3.081
  3.088   3.107   3.110   3.118   3.120   3.152   3.158   3.160
  3.203   3.225   3.260   3.266   3.273   3.285   3.293   3.304
  3.311   3.337   3.350   3.376   3.385   3.431   3.434   3.434
  3.454   3.461   3.526   3.544   3.545   3.564   3.568   3.592
  3.611   3.641   3.647   3.674   3.715   3.749   3.765   3.780
  3.784   3.796   3.823   3.838   3.848   3.873   3.878   3.885
  3.886   3.894   3.962   3.993   4.004   4.031   4.072   4.145
  4.146   4.178   4.215   4.217   4.233   4.260   4.271   4.283
  4.290   4.318   4.335   4.350   4.383   4.384   4.395   4.421
  4.454   4.497   4.525   4.574   4.584   4.676   4.694   4.706
  4.749   4.797   4.798   4.865   4.892   4.898   4.953   5.009
  5.045   5.067   5.115   5.116   5.117   5.164   5.177   5.241
  5.245   5.298   5.434   5.442   5.478   5.546   5.561   5.682
  5.685   5.698   5.762   5.836   5.940   6.195   6.268   6.277
  6.300   6.375  23.705  24.247  24.279  24.518  24.530  25.012
 27.043  27.208  27.218  27.286  27.308  27.515  27.745  27.864
 27.882  28.033  28.056  28.062  28.292  28.318  28.390  28.414
 28.448  28.966  35.722  35.750  37.361  37.391  38.074  38.088
 38.253  38.348  40.309  40.322  40.356  40.375  40.471  40.473
 40.509  40.518  40.575  40.580  40.632  40.635  40.679  40.685
 40.692  40.697  40.705  40.713  40.784  40.815  40.906  40.910
 40.959  40.972  41.000  41.014  41.025  41.028  41.031  41.035
 41.047  41.058  41.097  41.128  41.167  41.178  41.237  41.267
 41.320  41.346
 
 Beta MOs
 -- Occupied --
-14.218 -14.218 -10.188 -10.188 -10.133 -10.133 -10.132 -10.132
 -1.213  -1.201  -1.118  -1.038  -1.003  -0.917  -0.887  -0.821
 -0.820  -0.787  -0.765  -0.719  -0.711  -0.699  -0.696  -0.669
 -0.633  -0.620  -0.538  -0.531
 -- Virtual --
 -0.258  -0.114  -0.094  -0.086  -0.086  -0.072  -0.058  -0.053
 -0.036  -0.026  -0.024  -0.021  -0.004   0.002   0.007   0.010
  0.010   0.033   0.035   0.039   0.046   0.047   0.053   0.055
  0.066   0.067   0.076   0.079   0.087   0.087   0.096   0.097
  0.100   0.103   0.115   0.130   0.131   0.139   0.146   0.149
  0.150   0.162   0.168   0.181   0.182   0.189   0.202   0.212
  0.213   0.221   0.222   0.229   0.232   0.283   0.285   0.296
  0.297   0.351   0.375   0.410   0.433   0.440   0.443   0.446
  0.447   0.455   0.458   0.464   0.507   0.510   0.512   0.530
  0.531   0.536   0.543   0.549   0.553   0.580   0.581   0.599
  0.600   0.604   0.605   0.621   0.630   0.635   0.642   0.657
  0.677   0.687   0.689   0.695   0.705   0.715   0.724   0.735
  0.745   0.746   0.758   0.773   0.775   0.845   0.847   0.854
  0.885   0.918   0.930   0.957   0.970   0.985   0.986   0.999
  1.003   1.005   1.033   1.046   1.051   1.103   1.105   1.107
  1.147   1.154   1.176   1.186   1.195   1.201   1.215   1.236
  1.239   1.254   1.256   1.262   1.323   1.324   1.339   1.367
  1.371   1.389   1.418   1.425   1.451   1.486   1.528   1.562
  1.595   1.635   1.636   1.645   1.680   1.691   1.701   1.720
  1.727   1.756   1.777   1.794   1.806   1.838   1.924   2.043
  2.126   2.135   2.232   2.330   2.410   2.447   2.450   2.493
  2.520   2.542   2.552   2.605   2.620   2.623   2.641   2.670
  2.675   2.676   2.680   2.698   2.716   2.723   2.734   2.760
  2.764   2.777   2.779   2.806   2.815   2.832   2.850   2.877
  2.935   2.966   2.973   2.992   3.011   3.032   3.067   3.073
  3.088   3.092   3.112   3.113   3.121   3.126   3.158   3.162
  3.163   3.210   3.228   3.267   3.272   3.277   3.290   3.296
  3.309   3.319   3.341   3.354   3.381   3.391   3.437   3.441
  3.441   3.457   3.467   3.531   3.549   3.550   3.571   3.576
  3.598   3.615   3.651   3.654   3.680   3.720   3.754   3.774
  3.784   3.795   3.798   3.827   3.843   3.853   3.876   3.884
  3.888   3.892   3.899   3.968   3.995   4.011   4.032   4.074
  4.149   4.149   4.183   4.220   4.223   4.238   4.263   4.275
  4.287   4.296   4.323   4.340   4.355   4.387   4.390   4.399
  4.430   4.456   4.502   4.531   4.579   4.589   4.682   4.701
  4.710   4.754   4.800   4.804   4.869   4.897   4.905   4.961
  5.013   5.055   5.081   5.127   5.128   5.132   5.171   5.184
  5.250   5.252   5.310   5.442   5.445   5.484   5.553   5.569
  5.685   5.686   5.703   5.766   5.840   5.944   6.200   6.274
  6.282   6.305   6.378  23.707  24.248  24.282  24.521  24.531
 25.014  27.046  27.210  27.223  27.291  27.310  27.518  27.747
 27.865  27.883  28.034  28.057  28.062  28.293  28.319  28.391
 28.415  28.449  28.967  35.729  35.758  37.371  37.401  38.078
 38.092  38.257  38.352  40.321  40.335  40.364  40.384  40.482
 40.484  40.518  40.527  40.580  40.585  40.638  40.639  40.681
 40.687  40.695  40.699  40.707  40.715  40.785  40.816  40.909
 40.913  40.964  40.977  41.002  41.016  41.026  41.030  41.033
 41.037  41.049  41.060  41.100  41.131  41.168  41.179  41.238
 41.268  41.320  41.347
 --------------------------------------------------------------
 
          Ground-State Mulliken Net Atomic Charges

     Atom                 Charge (a.u.)    Spin (a.u.)
  --------------------------------------------------------
      1 C                     0.056005       0.047228
      2 C                     0.058066       0.041200
      3 C                    -0.332627       0.193734
      4 C                     0.054434       0.047435
      5 C                     0.059246       0.041312
      6 C                    -0.333413       0.193484
      7 H                     0.203265      -0.003083
      8 H                     0.203129      -0.002774
      9 H                     0.203791      -0.003061
     10 H                     0.202978      -0.002782
     11 H                     0.239127      -0.001328
     12 H                     0.239326      -0.001411
     13 H                     0.239554      -0.001339
     14 H                     0.239365      -0.001406
     15 N                    -0.166261       0.226418
     16 N                    -0.165985       0.226373
  --------------------------------------------------------
  Sum of atomic charges =     1.000000
  Sum of spin   charges =     1.000000

 -----------------------------------------------------------------
                    Cartesian Multipole Moments
 -----------------------------------------------------------------
    Charge (ESU x 10^10)
                 4.8032
    Dipole Moment (Debye)
         X     116.8913      Y     116.9263      Z     112.0043
       Tot     199.7005
    Quadrupole Moments (Debye-Ang)
        XX    2823.6676     XY    2851.7365     YY    2816.1146
        XZ    2741.8981     YZ    2729.5656     ZZ    2569.8310
    Octapole Moments (Debye-Ang^2)
       XXX   67733.5674    XXY   69043.2287    XYY   68843.0200
       YYY   67079.2339    XXZ   66609.5304    XYZ   66962.2584
       YYZ   65799.8316    XZZ   63298.2321    YZZ   62693.8257
       ZZZ   57908.3351
    Hexadecapole Moments (Debye-Ang^3)
      XXXX 1613407.5214   XXXY 1660105.5496   XXYY 1670511.0469
      XYYY 1643997.1573   YYYY 1578780.6076   XXXZ 1606618.0922
      XXYZ 1630290.6464   XYYZ 1617960.0554   YYYZ 1568468.1813
      XXZZ 1546408.0557   XYZZ 1547424.4849   YYZZ 1512255.5491
      XZZZ 1435846.9301   YZZZ 1414218.7255   ZZZZ 1277429.6343
 -----------------------------------------------------------------
 Total job time:  954.25s(wall), 953.37s(cpu) 
 Tue Apr 12 13:39:47 2011

        *************************************************************
        *                                                           *
        *  Thank you very much for using Q-Chem.  Have a nice day.  *
        *                                                           *
        *************************************************************


0 sent ACK to 0 
now end server 0 ... 
