Process 0 of 1 is on cl196.stfx.acenet.ca - thread support 1
initial socket setup ...start
initial socket setup ...done 
now start server 0 ... 

cmd = /usr/bin/ssh clhead /usr/local/qchem/bin/get_hostid 1593205842 > /globalscratch/itamblyn/bnl/g297_b3lyp_neut_g03Large/g2g71128/omega2000/qchem8649/lic.dat
                  Welcome to Q-Chem
     A Quantum Leap Into The Future Of Chemistry

 Y. Shao, L. Fusti-Molnar, Y. Jung, J. Kussmann, C. Ochsenfeld,
 S. T. Brown, A. T. B. Gilbert, L. V. Slipchenko,S. V. Levchenko,
 D. P. O'Neill, R. A. DiStasio Jr., R. C. Lochan, T. Wang,
 G. J. O. Beran, N. A. Besley, J. M. Herbert, C. Y. Lin,
 T. Van Voorhis, S. H. Chien, A. Sodt, R. P. Steele, 
 V. A. Rassolov, P. E. Maslen, P. P. Korambath, R. D. Adamson,
 B. Austin, J. Baker, E. F. C. Byrd, H. Dachsel, R. J. Doerksen,
 A. Dreuw, B. D. Dunietz, A. D. Dutoi, T. R. Furlani,
 S. R. Gwaltney, A. Heyden, S. Hirata, C.-P. Hsu, G. Kedziora,
 R. Z. Khaliullin, P. Klunzinger, A. M. Lee, M. S. Lee, W. Liang,
 I. Lotan, N. Nair, B. Peters, E. I. Proynov, P. A. Pieniazek, 
 Y. M. Rhee, J. Ritchie, E. Rosta, C. D. Sherrill, 
 A. C. Simmonett, J. E. Subotnik, H. L. Woodcock III,
 W. Zhang, A. T. Bell, A. K. Chakraborty, D. M. Chipman,
 F. J. Keil, A. Warshel, W. J. Hehre, H. F. Schaefer III,
 J. Kong, A. I. Krylov, P. M. W. Gill, M. Head-Gordon,
 Q-Chem, Version 3.1, Q-Chem, Inc., Pittsburgh, PA (2007).

 Additional authors for Version 3.1: 
 Z. Gan, Y. Zhao, N. E. Schultz, D. Truhlar, E. Epifanovsky and M. Oana.

 Additional authors for Version 3.2: 
 R. Baer, B. R. Brooks, D. Casanova, J.-D. Chai, C.-L. Cheng, 
 C. Cramer, D. Crittenden, A. Ghysels, G. Hawkins, E. G. Hohenstein, 
 C. Kelley, W. Kurlancheek, D. Liotard, E. Livshits, P. Manohar, 
 A. Marenich, D. Neuhauser, R. Olson, M. A. Rohrdanz, K. S. Thanthiriwatte, 
 A. J. W. Thom, V. Vanovschi, C. F. Williams, Q. Wu and Z.-Q. You. 


 Intel X86 Linux Version

 Q-chem begins on Mon Apr 11 18:39:57 2011  

 Parallel job on  1  processors
Processing $rem in /usr/local/qchem/config/preferences.

theFileMan(): MAXOPENFILES=974 MAX_SUB_FILE_NUM=16
Maximum size of a physical file is 2.0 GB, maximum size of a tmp-file is 32.0 GB


--------------------------------------------------------------
User input:
--------------------------------------------------------------

$molecule
-1,2
O
C,1,R2
C,1,R3,2,A3
C,2,R4,1,A4,3,180.00000,0
H,2,R5,1,A5,3,D5,0
H,2,R5,1,A5,3,-D5,0
H,3,R7,1,A7,2,180.00000,0
H,3,R8,1,A8,2,D8,0
H,3,R8,1,A8,2,-D8,0
H,4,R10,2,A10,1,D10,0
H,4,R10,2,A10,1,-D10,0
H,4,R12,2,A12,1,180.00000,0

R2=1.41675112
R3=1.40988351
R4=1.51994245
R5=1.10428107
R7=1.093453
R8=1.10273501
R10=1.0947991
R12=1.09563348
A3=112.75284332
A4=108.46400259
A5=110.13979657
A7=107.26869591
A8=111.84043784
A10=110.46751022
A12=110.51510558
D5=-58.85684437
D8=-60.70965124
D10=-59.85049125

$end

$comment
negative
$end

$xc_functional
   X HF 1.0
   X BNL 1.0
   C LYP 1.0
$end

$rem
SYMMETRY_DECOMPOSITION	0
exchange 		general
BASIS                   g3large
omega			2000
separate_jk		true
mem_static              760
max_scf_cycles          200
scf_final_print         1
sym_ignore              true
$end

--------------------------------------------------------------
 Writing REM_CC_EA           12
 ----------------------------------------------------
       Standard Nuclear Orientation (Angstroms)
    I     Atom         X            Y            Z
 ----------------------------------------------------
    1      O       0.000000     0.000000     0.000000
    2      C       0.000000     0.000000     1.416751
    3      C       1.300169     0.000000    -0.545282
    4      C      -1.441700     0.000000     1.898130
    5      H       0.536190    -0.887340     1.796968
    6      H       0.536190     0.887340     1.796968
    7      H       1.195667     0.000000    -1.633730
    8      H       1.872165     0.892721    -0.242141
    9      H       1.872165    -0.892721    -0.242141
   10      H      -1.967974     0.886928     1.530735
   11      H      -1.967974    -0.886928     1.530735
   12      H      -1.480914     0.000000     2.993062
 ----------------------------------------------------
 Nuclear Repulsion Energy =   133.3117913381 hartrees
 There are       18 alpha and       17 beta electrons
 Requested basis set is G3large
 There are 88 shells and 248 basis functions

Total QAlloc Memory Limit   2000 MB
Mega-Array Size       743 MB
MEM_STATIC part       760 MB

                       Distance Matrix (Angstroms)
             O (  1)   C (  2)   C (  3)   C (  4)   H (  5)   H (  6)
   C (  2)  1.416751
   C (  3)  1.409884  2.353723
   C (  4)  2.383568  1.519942  3.672616
   H (  5)  2.074600  1.104281  2.618620  2.170174
   H (  6)  2.074600  1.104281  2.618620  2.170174  1.774680
   H (  7)  2.024523  3.276439  1.093453  4.407918  3.604438  3.604438
   H (  8)  2.088201  2.655914  1.102735  4.044678  3.018512  2.437792
   H (  9)  2.088201  2.655914  1.102735  4.044678  2.437792  3.018512
   H ( 10)  2.646264  2.161609  3.972058  1.094799  3.080543  2.518276
   H ( 11)  2.646264  2.161609  3.972058  1.094799  2.518276  3.080543
   H ( 12)  3.339390  2.162836  4.500477  1.095633  2.507333  2.507333
             H (  7)   H (  8)   H (  9)   H ( 10)   H ( 11)
   H (  8)  1.786370
   H (  9)  1.786370  1.785442
   H ( 10)  4.561699  4.229632  4.588781
   H ( 11)  4.561699  4.588781  4.229632  1.773856
   H ( 12)  5.345212  4.744115  4.744115  1.778277  1.778277
 
 A cutoff of  1.0D-08 yielded   3516 shell pairs
 There are  27999 function pairs ( 33744 Cartesian)
Evaluating contribution to one-electron hamiltonian from nuclear
 Smallest overlap matrix eigenvalue = 6.48E-05

 Q-Chem warning in module mkSTV.C, line 194:

 Overlap eigenvalue is smaller than square root of threshold

 Multipole matrices computed through 2nd order

  Scale SEOQF with 1.000000e-01/1.000000e-01/1.000000e-01

 Standard Electronic Orientation quadrupole field applied
 Nucleus-field energy     =    -0.0000000044 hartrees
 Guess from superposition of atomic densities
 Warning:  Energy on first SCF cycle will be non-variational
 An unrestricted hybrid HF-DFT SCF calculation will be
 performed using Pulay DIIS extrapolation
 Exchange:     1.0000 Hartree-Fock + 1.0000 BNL
 Correlation:  1.0000 LYP
 Using SG-1 standard quadrature grid
 SCF converges when DIIS error is below 1.0E-05
 Warning!  Inaccurate integrated density:
   Number of electrons =    35
   Numerical integral  =    34.000119070330
   Relative error      =    -2.8568026562 %
 ---------------------------------------
  Cycle       Energy         DIIS Error
 ---------------------------------------
    1    -194.6043191549      3.07E-02
    2    -193.2455642013      3.23E-03
    3    -193.3410630948      1.60E-03
    4    -193.3582633209      5.95E-04
    5    -193.3622087497      1.14E-04
    6    -193.3626818292      4.44E-05
    7    -193.3628075955      1.83E-05
    8    -193.3628790142      1.21E-05
    9    -193.3629300853      8.51E-06 Convergence criterion met
 ---------------------------------------
 One-Electron    Energy =  -530.8157673345
 Total Coulomb   Energy =   231.0411855621
 Alpha Exchange  Energy =    -8.8686855021
 Beta  Exchange  Energy =    -8.7914708550
 DFT   Exchange  Energy =    -8.1226725196
 DFT Correlation Energy =    -1.1173107699
 Nuclear Repu.   Energy =   133.3117913337
 Nuclear Attr.   Energy =  -722.2737692904
 Kinetic         Energy =   191.4580019559
 <S^2> = 0.7502
 SCF time:  CPU 229.31 s  wall 256.54 s
 Final Alpha MO Eigenvalues
            1           2           3           4           5           6
    1 -19.4591557 -10.6580314 -10.6537996 -10.6043152  -1.2544763  -0.9187022
            7           8           9          10          11          12
    1  -0.8093419  -0.7269496  -0.5690618  -0.5583320  -0.5300129  -0.4840387
           13          14          15          16          17          18
    1  -0.4417326  -0.4118948  -0.4050694  -0.3809290  -0.3224052   0.0364071
           19          20          21          22          23
    1   0.1265500   0.1425222   0.1455633   0.1684241   0.1781639
 Final Beta MO Eigenvalues
            1           2           3           4           5           6
    1 -19.4588840 -10.6574859 -10.6532352 -10.6039380  -1.2537738  -0.9174486
            7           8           9          10          11          12
    1  -0.8070422  -0.7238919  -0.5685307  -0.5565171  -0.5286252  -0.4836620
           13          14          15          16          17          18
    1  -0.4409619  -0.4106056  -0.4047218  -0.3782725  -0.3220208   0.1229533
           19          20          21          22
    1   0.1315245   0.1449615   0.1479572   0.1601660
 Analysis of SCF Wavefunction
 
 --------------------------------------------------------------
                    Orbital Energies (a.u.)
 --------------------------------------------------------------
 
 Alpha MOs
 -- Occupied --
-19.459 -10.658 -10.654 -10.604  -1.254  -0.919  -0.809  -0.727
 -0.569  -0.558  -0.530  -0.484  -0.442  -0.412  -0.405  -0.381
 -0.322   0.036
 -- Virtual --
  0.127   0.143   0.146   0.168   0.178   0.179   0.199   0.230
  0.242   0.249   0.261   0.273   0.278   0.287   0.292   0.306
  0.317   0.320   0.329   0.385   0.394   0.401   0.409   0.429
  0.431   0.455   0.460   0.490   0.508   0.509   0.524   0.550
  0.578   0.593   0.659   0.671   0.676   0.701   0.732   0.780
  0.790   0.796   0.817   0.823   0.835   0.837   0.861   0.865
  0.889   0.900   0.919   0.940   0.946   0.991   1.028   1.063
  1.107   1.126   1.154   1.155   1.166   1.251   1.266   1.312
  1.320   1.338   1.370   1.371   1.413   1.414   1.447   1.451
  1.472   1.497   1.518   1.537   1.554   1.584   1.615   1.638
  1.652   1.685   1.702   1.715   1.729   1.745   1.775   1.787
  1.788   1.801   1.822   1.874   1.902   1.904   1.930   2.060
  2.150   2.377   2.405   2.450   2.612   2.752   2.777   2.863
  2.888   2.908   2.997   3.024   3.056   3.119   3.209   3.237
  3.257   3.341   3.347   3.420   3.444   3.469   3.478   3.510
  3.526   3.536   3.569   3.578   3.619   3.668   3.730   3.745
  3.753   3.787   3.789   3.815   3.859   3.923   3.943   3.964
  3.977   4.038   4.087   4.092   4.115   4.152   4.200   4.214
  4.283   4.333   4.342   4.369   4.415   4.452   4.495   4.518
  4.538   4.587   4.625   4.663   4.663   4.676   4.690   4.711
  4.740   4.761   4.802   4.867   4.889   4.950   4.955   4.986
  5.029   5.030   5.118   5.434   5.609   5.659   5.744   5.777
  5.904   5.998   6.027   6.049   6.084   6.104   6.165   6.175
  6.366   6.391   6.775   6.998   7.145   7.794   7.804   7.924
  8.305   8.377  25.060  25.160  25.204  28.461  28.778  28.815
 28.842  28.854  28.916  28.949  28.956  29.211  41.704  41.717
 41.756  41.766  41.780  41.816  41.887  41.918  41.940  41.954
 41.977  41.978  41.984  42.008  42.037  44.597  44.658  44.687
 44.766  44.815  46.647  46.932  47.354  51.037
 
 Beta MOs
 -- Occupied --
-19.459 -10.657 -10.653 -10.604  -1.254  -0.917  -0.807  -0.724
 -0.569  -0.557  -0.529  -0.484  -0.441  -0.411  -0.405  -0.378
 -0.322
 -- Virtual --
  0.123   0.132   0.145   0.148   0.160   0.169   0.171   0.188
  0.219   0.231   0.238   0.248   0.260   0.269   0.278   0.282
  0.293   0.304   0.308   0.314   0.378   0.387   0.393   0.402
  0.420   0.423   0.447   0.455   0.482   0.499   0.500   0.518
  0.545   0.573   0.587   0.654   0.666   0.672   0.697   0.729
  0.777   0.789   0.792   0.812   0.818   0.830   0.831   0.855
  0.861   0.886   0.896   0.915   0.935   0.941   0.991   1.026
  1.062   1.105   1.124   1.153   1.153   1.165   1.249   1.264
  1.311   1.318   1.337   1.368   1.369   1.411   1.412   1.445
  1.450   1.469   1.495   1.517   1.535   1.552   1.583   1.614
  1.637   1.651   1.684   1.701   1.714   1.726   1.743   1.773
  1.785   1.785   1.800   1.820   1.872   1.900   1.902   1.928
  2.060   2.149   2.377   2.405   2.450   2.612   2.752   2.777
  2.863   2.887   2.907   2.996   3.023   3.056   3.118   3.209
  3.237   3.257   3.341   3.347   3.421   3.444   3.469   3.478
  3.511   3.526   3.536   3.569   3.578   3.619   3.668   3.730
  3.745   3.753   3.787   3.789   3.815   3.859   3.923   3.943
  3.964   3.977   4.038   4.087   4.092   4.115   4.152   4.199
  4.214   4.283   4.333   4.341   4.369   4.415   4.452   4.495
  4.518   4.537   4.587   4.624   4.663   4.663   4.676   4.690
  4.711   4.740   4.760   4.802   4.867   4.889   4.950   4.955
  4.986   5.029   5.030   5.118   5.433   5.609   5.659   5.744
  5.777   5.904   5.998   6.027   6.049   6.084   6.104   6.165
  6.175   6.366   6.391   6.775   6.998   7.145   7.794   7.805
  7.924   8.306   8.377  25.061  25.161  25.204  28.461  28.779
 28.816  28.842  28.854  28.916  28.950  28.956  29.212  41.704
 41.717  41.757  41.766  41.780  41.816  41.887  41.918  41.940
 41.955  41.977  41.978  41.985  42.008  42.037  44.598  44.659
 44.687  44.767  44.816  46.647  46.932  47.354  51.038
 --------------------------------------------------------------
 
          Ground-State Mulliken Net Atomic Charges

     Atom                 Charge (a.u.)    Spin (a.u.)
  --------------------------------------------------------
      1 O                    -0.428416       0.182865
      2 C                     0.767599      -0.767579
      3 C                     1.515068      -1.558550
      4 C                     1.129989      -1.402547
      5 H                    -0.563850       0.634326
      6 H                    -0.592049       0.664312
      7 H                    -0.539734       0.611013
      8 H                    -0.652684       0.721539
      9 H                    -0.636970       0.704303
     10 H                    -0.220158       0.298232
     11 H                    -0.208425       0.285558
     12 H                    -0.570371       0.626526
  --------------------------------------------------------
  Sum of atomic charges =    -1.000000
  Sum of spin   charges =     1.000000

 -----------------------------------------------------------------
                    Cartesian Multipole Moments
 -----------------------------------------------------------------
    Charge (ESU x 10^10)
                -4.8032
    Dipole Moment (Debye)
         X      -3.4714      Y      -0.1700      Z      -5.0041
       Tot       6.0927
    Quadrupole Moments (Debye-Ang)
        XX     -59.7715     XY      -0.1449     YY     -55.7473
        XZ       1.6416     YZ      -0.2460     ZZ     -65.9711
    Octapole Moments (Debye-Ang^2)
       XXX     -64.6991    XXY      -1.0738    XYY     -25.7618
       YYY      -2.0803    XXZ     -49.8676    XYZ      -0.0629
       YYZ     -51.7278    XZZ     -10.6233    YZZ      -1.0399
       ZZZ    -174.2138
    Hexadecapole Moments (Debye-Ang^3)
      XXXX    -789.1026   XXXY      -1.5286   XXYY    -213.1911
      XYYY      -1.4428   YYYY    -419.5613   XXXZ     122.4787
      XXYZ      -1.1581   XYYZ      35.3878   YYYZ      -2.7132
      XXZZ    -306.6403   XYZZ      -0.4441   YYZZ    -244.2853
      XZZZ     160.8041   YZZZ      -3.2350   ZZZZ   -1136.6883
 -----------------------------------------------------------------
 Total job time:  259.46s(wall), 229.66s(cpu) 
 Mon Apr 11 18:44:17 2011

        *************************************************************
        *                                                           *
        *  Thank you very much for using Q-Chem.  Have a nice day.  *
        *                                                           *
        *************************************************************


0 sent ACK to 0 
now end server 0 ... 
 
**********************************************************************
Job 2 of 3 
**********************************************************************
 
Process 0 of 1 is on cl196.stfx.acenet.ca - thread support 1
initial socket setup ...start
initial socket setup ...done 
now start server 0 ... 

cmd = /usr/bin/ssh clhead /usr/local/qchem/bin/get_hostid 1363467189 > /globalscratch/itamblyn/bnl/g297_b3lyp_neut_g03Large/g2g71128/omega2000/qchem8649/lic.dat
                  Welcome to Q-Chem
     A Quantum Leap Into The Future Of Chemistry

 Y. Shao, L. Fusti-Molnar, Y. Jung, J. Kussmann, C. Ochsenfeld,
 S. T. Brown, A. T. B. Gilbert, L. V. Slipchenko,S. V. Levchenko,
 D. P. O'Neill, R. A. DiStasio Jr., R. C. Lochan, T. Wang,
 G. J. O. Beran, N. A. Besley, J. M. Herbert, C. Y. Lin,
 T. Van Voorhis, S. H. Chien, A. Sodt, R. P. Steele, 
 V. A. Rassolov, P. E. Maslen, P. P. Korambath, R. D. Adamson,
 B. Austin, J. Baker, E. F. C. Byrd, H. Dachsel, R. J. Doerksen,
 A. Dreuw, B. D. Dunietz, A. D. Dutoi, T. R. Furlani,
 S. R. Gwaltney, A. Heyden, S. Hirata, C.-P. Hsu, G. Kedziora,
 R. Z. Khaliullin, P. Klunzinger, A. M. Lee, M. S. Lee, W. Liang,
 I. Lotan, N. Nair, B. Peters, E. I. Proynov, P. A. Pieniazek, 
 Y. M. Rhee, J. Ritchie, E. Rosta, C. D. Sherrill, 
 A. C. Simmonett, J. E. Subotnik, H. L. Woodcock III,
 W. Zhang, A. T. Bell, A. K. Chakraborty, D. M. Chipman,
 F. J. Keil, A. Warshel, W. J. Hehre, H. F. Schaefer III,
 J. Kong, A. I. Krylov, P. M. W. Gill, M. Head-Gordon,
 Q-Chem, Version 3.1, Q-Chem, Inc., Pittsburgh, PA (2007).

 Additional authors for Version 3.1: 
 Z. Gan, Y. Zhao, N. E. Schultz, D. Truhlar, E. Epifanovsky and M. Oana.

 Additional authors for Version 3.2: 
 R. Baer, B. R. Brooks, D. Casanova, J.-D. Chai, C.-L. Cheng, 
 C. Cramer, D. Crittenden, A. Ghysels, G. Hawkins, E. G. Hohenstein, 
 C. Kelley, W. Kurlancheek, D. Liotard, E. Livshits, P. Manohar, 
 A. Marenich, D. Neuhauser, R. Olson, M. A. Rohrdanz, K. S. Thanthiriwatte, 
 A. J. W. Thom, V. Vanovschi, C. F. Williams, Q. Wu and Z.-Q. You. 


 Intel X86 Linux Version

 Q-chem begins on Mon Apr 11 18:44:20 2011  

 Parallel job on  1  processors
Processing $rem in /usr/local/qchem/config/preferences.

theFileMan(): MAXOPENFILES=974 MAX_SUB_FILE_NUM=16
Maximum size of a physical file is 2.0 GB, maximum size of a tmp-file is 32.0 GB


--------------------------------------------------------------
User input:
--------------------------------------------------------------

$molecule
0,1
O
C,1,R2
C,1,R3,2,A3
C,2,R4,1,A4,3,180.00000,0
H,2,R5,1,A5,3,D5,0
H,2,R5,1,A5,3,-D5,0
H,3,R7,1,A7,2,180.00000,0
H,3,R8,1,A8,2,D8,0
H,3,R8,1,A8,2,-D8,0
H,4,R10,2,A10,1,D10,0
H,4,R10,2,A10,1,-D10,0
H,4,R12,2,A12,1,180.00000,0

R2=1.41675112
R3=1.40988351
R4=1.51994245
R5=1.10428107
R7=1.093453
R8=1.10273501
R10=1.0947991
R12=1.09563348
A3=112.75284332
A4=108.46400259
A5=110.13979657
A7=107.26869591
A8=111.84043784
A10=110.46751022
A12=110.51510558
D5=-58.85684437
D8=-60.70965124
D10=-59.85049125

$end

$comment
neutral
$end

$xc_functional
   X HF 1.0
   X BNL 1.0
   C LYP 1.0
$end

$rem
SYMMETRY_DECOMPOSITION	0
exchange 		general
BASIS                   g3large
omega			2000
separate_jk		true
mem_static              760
max_scf_cycles          200
scf_final_print         1
sym_ignore              true
$end

--------------------------------------------------------------
 Writing REM_CC_EA           12
 ----------------------------------------------------
       Standard Nuclear Orientation (Angstroms)
    I     Atom         X            Y            Z
 ----------------------------------------------------
    1      O       0.000000     0.000000     0.000000
    2      C       0.000000     0.000000     1.416751
    3      C       1.300169     0.000000    -0.545282
    4      C      -1.441700     0.000000     1.898130
    5      H       0.536190    -0.887340     1.796968
    6      H       0.536190     0.887340     1.796968
    7      H       1.195667     0.000000    -1.633730
    8      H       1.872165     0.892721    -0.242141
    9      H       1.872165    -0.892721    -0.242141
   10      H      -1.967974     0.886928     1.530735
   11      H      -1.967974    -0.886928     1.530735
   12      H      -1.480914     0.000000     2.993062
 ----------------------------------------------------
 Nuclear Repulsion Energy =   133.3117913381 hartrees
 There are       17 alpha and       17 beta electrons
 Requested basis set is G3large
 There are 88 shells and 248 basis functions

Total QAlloc Memory Limit   2000 MB
Mega-Array Size       743 MB
MEM_STATIC part       760 MB

                       Distance Matrix (Angstroms)
             O (  1)   C (  2)   C (  3)   C (  4)   H (  5)   H (  6)
   C (  2)  1.416751
   C (  3)  1.409884  2.353723
   C (  4)  2.383568  1.519942  3.672616
   H (  5)  2.074600  1.104281  2.618620  2.170174
   H (  6)  2.074600  1.104281  2.618620  2.170174  1.774680
   H (  7)  2.024523  3.276439  1.093453  4.407918  3.604438  3.604438
   H (  8)  2.088201  2.655914  1.102735  4.044678  3.018512  2.437792
   H (  9)  2.088201  2.655914  1.102735  4.044678  2.437792  3.018512
   H ( 10)  2.646264  2.161609  3.972058  1.094799  3.080543  2.518276
   H ( 11)  2.646264  2.161609  3.972058  1.094799  2.518276  3.080543
   H ( 12)  3.339390  2.162836  4.500477  1.095633  2.507333  2.507333
             H (  7)   H (  8)   H (  9)   H ( 10)   H ( 11)
   H (  8)  1.786370
   H (  9)  1.786370  1.785442
   H ( 10)  4.561699  4.229632  4.588781
   H ( 11)  4.561699  4.588781  4.229632  1.773856
   H ( 12)  5.345212  4.744115  4.744115  1.778277  1.778277
 
 A cutoff of  1.0D-08 yielded   3516 shell pairs
 There are  27999 function pairs ( 33744 Cartesian)
Evaluating contribution to one-electron hamiltonian from nuclear
 Smallest overlap matrix eigenvalue = 6.48E-05

 Q-Chem warning in module mkSTV.C, line 194:

 Overlap eigenvalue is smaller than square root of threshold

 Multipole matrices computed through 2nd order

  Scale SEOQF with 1.000000e-01/1.000000e-01/1.000000e-01

 Standard Electronic Orientation quadrupole field applied
 Nucleus-field energy     =    -0.0000000044 hartrees
 Guess from superposition of atomic densities
 Warning:  Energy on first SCF cycle will be non-variational
 A restricted hybrid HF-DFT SCF calculation will be
 performed using Pulay DIIS extrapolation
 Exchange:     1.0000 Hartree-Fock + 1.0000 BNL
 Correlation:  1.0000 LYP
 Using SG-1 standard quadrature grid
 SCF converges when DIIS error is below 1.0E-05
 ---------------------------------------
  Cycle       Energy         DIIS Error
 ---------------------------------------
    1    -194.6043191549      3.07E-02
    2    -193.2956163255      3.21E-03
    3    -193.3815785692      1.55E-03
    4    -193.3961077992      5.87E-04
    5    -193.3990440783      1.09E-04
    6    -193.3992269527      3.66E-05
    7    -193.3992453001      9.72E-06 Convergence criterion met
 ---------------------------------------
 One-Electron    Energy =  -526.5279718859
 Total Coulomb   Energy =   226.6485920020
 Alpha Exchange  Energy =    -8.7992379721
 Beta  Exchange  Energy =    -8.7992379721
 DFT   Exchange  Energy =    -8.1214062619
 DFT Correlation Energy =    -1.1117745439
 Nuclear Repu.   Energy =   133.3117913337
 Nuclear Attr.   Energy =  -717.9182645361
 Kinetic         Energy =   191.3902926502
 SCF time:  CPU 139.80 s  wall 159.75 s
 Final Alpha MO Eigenvalues
            1           2           3           4           5           6
    1 -19.5870480 -10.7896948 -10.7836325 -10.7264474  -1.3820408  -1.0441237
            7           8           9          10          11          12
    1  -0.9350828  -0.8531063  -0.6978351  -0.6856665  -0.6557383  -0.6107223
           13          14          15          16          17          18
    1  -0.5644163  -0.5375279  -0.5310015  -0.5064045  -0.4514784   0.0343221
           19          20          21          22
    1   0.0464439   0.0567115   0.0581405   0.0770712
 Analysis of SCF Wavefunction
 
 --------------------------------------------------------------
                    Orbital Energies (a.u.)
 --------------------------------------------------------------
 
 Alpha MOs
 -- Occupied --
-19.587 -10.790 -10.784 -10.726  -1.382  -1.044  -0.935  -0.853
 -0.698  -0.686  -0.656  -0.611  -0.564  -0.538  -0.531  -0.506
 -0.451
 -- Virtual --
  0.034   0.046   0.057   0.058   0.077   0.082   0.084   0.097
  0.121   0.132   0.146   0.152   0.162   0.168   0.173   0.184
  0.193   0.202   0.207   0.213   0.264   0.278   0.282   0.289
  0.304   0.309   0.334   0.339   0.369   0.388   0.390   0.407
  0.425   0.458   0.471   0.536   0.548   0.556   0.579   0.608
  0.656   0.661   0.671   0.693   0.700   0.709   0.714   0.735
  0.737   0.764   0.773   0.793   0.812   0.827   0.863   0.906
  0.937   0.982   0.999   1.029   1.029   1.042   1.127   1.140
  1.185   1.189   1.212   1.245   1.245   1.287   1.289   1.323
  1.325   1.343   1.369   1.393   1.411   1.427   1.458   1.489
  1.515   1.528   1.559   1.576   1.588   1.601   1.617   1.652
  1.659   1.661   1.675   1.692   1.747   1.776   1.779   1.807
  1.933   2.023   2.250   2.278   2.322   2.485   2.625   2.649
  2.735   2.764   2.782   2.870   2.901   2.929   2.989   3.082
  3.111   3.130   3.215   3.222   3.292   3.316   3.342   3.352
  3.384   3.399   3.409   3.441   3.452   3.494   3.540   3.602
  3.621   3.626   3.659   3.662   3.686   3.731   3.797   3.816
  3.839   3.853   3.909   3.958   3.965   3.986   4.024   4.074
  4.086   4.154   4.206   4.214   4.246   4.290   4.324   4.368
  4.390   4.410   4.460   4.496   4.534   4.534   4.552   4.568
  4.582   4.614   4.632   4.675   4.739   4.761   4.825   4.827
  4.858   4.902   4.906   4.991   5.305   5.482   5.532   5.616
  5.650   5.777   5.871   5.896   5.922   5.958   5.981   6.040
  6.048   6.238   6.263   6.648   6.870   7.017   7.667   7.677
  7.797   8.178   8.250  24.935  25.031  25.076  28.333  28.648
 28.685  28.712  28.726  28.792  28.821  28.830  29.085  41.574
 41.587  41.626  41.637  41.657  41.690  41.757  41.787  41.810
 41.831  41.847  41.848  41.854  41.884  41.915  44.469  44.530
 44.559  44.638  44.687  46.519  46.804  47.226  50.910
 --------------------------------------------------------------
 
          Ground-State Mulliken Net Atomic Charges

     Atom                 Charge (a.u.)
  ----------------------------------------
      1 O                    -0.242033
      2 C                    -0.027089
      3 C                    -0.056780
      4 C                    -0.281039
      5 H                     0.069368
      6 H                     0.069362
      7 H                     0.092199
      8 H                     0.066391
      9 H                     0.066416
     10 H                     0.091765
     11 H                     0.091750
     12 H                     0.059692
  ----------------------------------------
  Sum of atomic charges =     0.000000

 -----------------------------------------------------------------
                    Cartesian Multipole Moments
 -----------------------------------------------------------------
    Charge (ESU x 10^10)
                 0.0000
    Dipole Moment (Debye)
         X       1.1851      Y       0.0002      Z       0.8768
       Tot       1.4742
    Quadrupole Moments (Debye-Ang)
        XX     -25.1586     XY       0.0005     YY     -26.1614
        XZ      -1.0698     YZ      -0.0003     ZZ     -24.1461
    Octapole Moments (Debye-Ang^2)
       XXX       1.8870    XXY       0.0014    XYY       0.7690
       YYY       0.0006    XXZ     -20.3539    XYZ      -0.0006
       YYZ     -18.9788    XZZ       0.6784    YZZ      -0.0005
       ZZZ     -58.0909
    Hexadecapole Moments (Debye-Ang^3)
      XXXX    -230.1699   XXXY       0.0034   XXYY     -42.3940
      XYYY       0.0013   YYYY     -46.3724   XXXZ      79.2837
      XXYZ      -0.0009   XYYZ      27.1847   YYYZ      -0.0001
      XXZZ     -91.6007   XYZZ      -0.0001   YYZZ     -60.6544
      XZZZ      75.6767   YZZZ      -0.0025   ZZZZ    -296.6067
 -----------------------------------------------------------------
 Total job time:  162.35s(wall), 140.15s(cpu) 
 Mon Apr 11 18:47:02 2011

        *************************************************************
        *                                                           *
        *  Thank you very much for using Q-Chem.  Have a nice day.  *
        *                                                           *
        *************************************************************


0 sent ACK to 0 
now end server 0 ... 
 
**********************************************************************
Job 3 of 3 
**********************************************************************
 
Process 0 of 1 is on cl196.stfx.acenet.ca - thread support 1
initial socket setup ...start
initial socket setup ...done 
now start server 0 ... 

cmd = /usr/bin/ssh clhead /usr/local/qchem/bin/get_hostid 273358328 > /globalscratch/itamblyn/bnl/g297_b3lyp_neut_g03Large/g2g71128/omega2000/qchem8649/lic.dat
                  Welcome to Q-Chem
     A Quantum Leap Into The Future Of Chemistry

 Y. Shao, L. Fusti-Molnar, Y. Jung, J. Kussmann, C. Ochsenfeld,
 S. T. Brown, A. T. B. Gilbert, L. V. Slipchenko,S. V. Levchenko,
 D. P. O'Neill, R. A. DiStasio Jr., R. C. Lochan, T. Wang,
 G. J. O. Beran, N. A. Besley, J. M. Herbert, C. Y. Lin,
 T. Van Voorhis, S. H. Chien, A. Sodt, R. P. Steele, 
 V. A. Rassolov, P. E. Maslen, P. P. Korambath, R. D. Adamson,
 B. Austin, J. Baker, E. F. C. Byrd, H. Dachsel, R. J. Doerksen,
 A. Dreuw, B. D. Dunietz, A. D. Dutoi, T. R. Furlani,
 S. R. Gwaltney, A. Heyden, S. Hirata, C.-P. Hsu, G. Kedziora,
 R. Z. Khaliullin, P. Klunzinger, A. M. Lee, M. S. Lee, W. Liang,
 I. Lotan, N. Nair, B. Peters, E. I. Proynov, P. A. Pieniazek, 
 Y. M. Rhee, J. Ritchie, E. Rosta, C. D. Sherrill, 
 A. C. Simmonett, J. E. Subotnik, H. L. Woodcock III,
 W. Zhang, A. T. Bell, A. K. Chakraborty, D. M. Chipman,
 F. J. Keil, A. Warshel, W. J. Hehre, H. F. Schaefer III,
 J. Kong, A. I. Krylov, P. M. W. Gill, M. Head-Gordon,
 Q-Chem, Version 3.1, Q-Chem, Inc., Pittsburgh, PA (2007).

 Additional authors for Version 3.1: 
 Z. Gan, Y. Zhao, N. E. Schultz, D. Truhlar, E. Epifanovsky and M. Oana.

 Additional authors for Version 3.2: 
 R. Baer, B. R. Brooks, D. Casanova, J.-D. Chai, C.-L. Cheng, 
 C. Cramer, D. Crittenden, A. Ghysels, G. Hawkins, E. G. Hohenstein, 
 C. Kelley, W. Kurlancheek, D. Liotard, E. Livshits, P. Manohar, 
 A. Marenich, D. Neuhauser, R. Olson, M. A. Rohrdanz, K. S. Thanthiriwatte, 
 A. J. W. Thom, V. Vanovschi, C. F. Williams, Q. Wu and Z.-Q. You. 


 Intel X86 Linux Version

 Q-chem begins on Mon Apr 11 18:47:05 2011  

 Parallel job on  1  processors
Processing $rem in /usr/local/qchem/config/preferences.

theFileMan(): MAXOPENFILES=974 MAX_SUB_FILE_NUM=16
Maximum size of a physical file is 2.0 GB, maximum size of a tmp-file is 32.0 GB


--------------------------------------------------------------
User input:
--------------------------------------------------------------

$molecule
1,2
O
C,1,R2
C,1,R3,2,A3
C,2,R4,1,A4,3,180.00000,0
H,2,R5,1,A5,3,D5,0
H,2,R5,1,A5,3,-D5,0
H,3,R7,1,A7,2,180.00000,0
H,3,R8,1,A8,2,D8,0
H,3,R8,1,A8,2,-D8,0
H,4,R10,2,A10,1,D10,0
H,4,R10,2,A10,1,-D10,0
H,4,R12,2,A12,1,180.00000,0

R2=1.41675112
R3=1.40988351
R4=1.51994245
R5=1.10428107
R7=1.093453
R8=1.10273501
R10=1.0947991
R12=1.09563348
A3=112.75284332
A4=108.46400259
A5=110.13979657
A7=107.26869591
A8=111.84043784
A10=110.46751022
A12=110.51510558
D5=-58.85684437
D8=-60.70965124
D10=-59.85049125

$end

$comment
positive
$end

$xc_functional
   X HF 1.0
   X BNL 1.0
   C LYP 1.0
$end

$rem
SYMMETRY_DECOMPOSITION	0
exchange 		general
BASIS                   g3large
omega			2000
separate_jk		true
mem_static              760
max_scf_cycles          200
scf_final_print         1
sym_ignore              true
$end

--------------------------------------------------------------
 Writing REM_CC_EA           12
 ----------------------------------------------------
       Standard Nuclear Orientation (Angstroms)
    I     Atom         X            Y            Z
 ----------------------------------------------------
    1      O       0.000000     0.000000     0.000000
    2      C       0.000000     0.000000     1.416751
    3      C       1.300169     0.000000    -0.545282
    4      C      -1.441700     0.000000     1.898130
    5      H       0.536190    -0.887340     1.796968
    6      H       0.536190     0.887340     1.796968
    7      H       1.195667     0.000000    -1.633730
    8      H       1.872165     0.892721    -0.242141
    9      H       1.872165    -0.892721    -0.242141
   10      H      -1.967974     0.886928     1.530735
   11      H      -1.967974    -0.886928     1.530735
   12      H      -1.480914     0.000000     2.993062
 ----------------------------------------------------
 Nuclear Repulsion Energy =   133.3117913381 hartrees
 There are       17 alpha and       16 beta electrons
 Requested basis set is G3large
 There are 88 shells and 248 basis functions

Total QAlloc Memory Limit   2000 MB
Mega-Array Size       743 MB
MEM_STATIC part       760 MB

                       Distance Matrix (Angstroms)
             O (  1)   C (  2)   C (  3)   C (  4)   H (  5)   H (  6)
   C (  2)  1.416751
   C (  3)  1.409884  2.353723
   C (  4)  2.383568  1.519942  3.672616
   H (  5)  2.074600  1.104281  2.618620  2.170174
   H (  6)  2.074600  1.104281  2.618620  2.170174  1.774680
   H (  7)  2.024523  3.276439  1.093453  4.407918  3.604438  3.604438
   H (  8)  2.088201  2.655914  1.102735  4.044678  3.018512  2.437792
   H (  9)  2.088201  2.655914  1.102735  4.044678  2.437792  3.018512
   H ( 10)  2.646264  2.161609  3.972058  1.094799  3.080543  2.518276
   H ( 11)  2.646264  2.161609  3.972058  1.094799  2.518276  3.080543
   H ( 12)  3.339390  2.162836  4.500477  1.095633  2.507333  2.507333
             H (  7)   H (  8)   H (  9)   H ( 10)   H ( 11)
   H (  8)  1.786370
   H (  9)  1.786370  1.785442
   H ( 10)  4.561699  4.229632  4.588781
   H ( 11)  4.561699  4.588781  4.229632  1.773856
   H ( 12)  5.345212  4.744115  4.744115  1.778277  1.778277
 
 A cutoff of  1.0D-08 yielded   3516 shell pairs
 There are  27999 function pairs ( 33744 Cartesian)
Evaluating contribution to one-electron hamiltonian from nuclear
 Smallest overlap matrix eigenvalue = 6.48E-05

 Q-Chem warning in module mkSTV.C, line 194:

 Overlap eigenvalue is smaller than square root of threshold

 Multipole matrices computed through 2nd order

  Scale SEOQF with 1.000000e-01/1.000000e-01/1.000000e-01

 Standard Electronic Orientation quadrupole field applied
 Nucleus-field energy     =    -0.0000000044 hartrees
 Guess from superposition of atomic densities
 Warning:  Energy on first SCF cycle will be non-variational
 An unrestricted hybrid HF-DFT SCF calculation will be
 performed using Pulay DIIS extrapolation
 Exchange:     1.0000 Hartree-Fock + 1.0000 BNL
 Correlation:  1.0000 LYP
 Using SG-1 standard quadrature grid
 SCF converges when DIIS error is below 1.0E-05
 Warning!  Inaccurate integrated density:
   Number of electrons =    33
   Numerical integral  =    34.000119070330
   Relative error      =     3.0306638495 %
 ---------------------------------------
  Cycle       Energy         DIIS Error
 ---------------------------------------
    1    -194.6043191549      3.07E-02
    2    -192.8553866501      3.09E-03
    3    -192.9702412423      1.43E-03
    4    -192.9961359224      5.31E-04
    5    -193.0143128810      5.02E-04
    6    -193.0222053597      3.44E-04
    7    -193.0345093582      1.20E-04
    8    -193.0361260468      8.51E-05
    9    -193.0366562104      4.34E-05
   10    -193.0368405958      3.38E-05
   11    -193.0370715930      2.28E-05
   12    -193.0371947134      1.65E-05
   13    -193.0372384477      9.63E-06 Convergence criterion met
 ---------------------------------------
 One-Electron    Energy =  -517.3710479828
 Total Coulomb   Energy =   217.5205585298
 Alpha Exchange  Energy =    -8.9541239459
 Beta  Exchange  Energy =    -8.3541625808
 DFT   Exchange  Energy =    -8.1159520046
 DFT Correlation Energy =    -1.0743017970
 Nuclear Repu.   Energy =   133.3117913337
 Nuclear Attr.   Energy =  -708.5627036369
 Kinetic         Energy =   191.1916556541
 <S^2> = 0.7610
 SCF time:  CPU 329.90 s  wall 377.88 s
 Final Alpha MO Eigenvalues
            1           2           3           4           5           6
    1 -20.0283570 -11.0386297 -11.0379083 -10.9180275  -1.7914004  -1.3053735
            7           8           9          10          11          12
    1  -1.1983101  -1.1136233  -1.0783172  -0.9946781  -0.9592892  -0.8564108
           13          14          15          16          17          18
    1  -0.8152121  -0.8136963  -0.7673075  -0.7539720  -0.7298124  -0.1086725
           19          20          21          22
    1  -0.0806582  -0.0775804  -0.0771959  -0.0582468
 Final Beta MO Eigenvalues
            1           2           3           4           5           6
    1 -19.9967723 -11.0397528 -11.0391521 -10.9180428  -1.6835978  -1.2973463
            7           8           9          10          11          12
    1  -1.1775132  -1.0981652  -0.9717854  -0.9398758  -0.9012460  -0.8312746
           13          14          15          16          17          18
    1  -0.8036026  -0.7645497  -0.7514827  -0.7283787  -0.2755717  -0.1089542
           19          20          21
    1  -0.0801610  -0.0772642  -0.0771391
 Analysis of SCF Wavefunction
 
 --------------------------------------------------------------
                    Orbital Energies (a.u.)
 --------------------------------------------------------------
 
 Alpha MOs
 -- Occupied --
-20.028 -11.039 -11.038 -10.918  -1.791  -1.305  -1.198  -1.114
 -1.078  -0.995  -0.959  -0.856  -0.815  -0.814  -0.767  -0.754
 -0.730
 -- Virtual --
 -0.109  -0.081  -0.078  -0.077  -0.058  -0.046  -0.038  -0.035
 -0.023  -0.021   0.004   0.006   0.017   0.022   0.030   0.042
  0.052   0.057   0.062   0.070   0.085   0.101   0.105   0.108
  0.122   0.130   0.144   0.156   0.167   0.185   0.189   0.217
  0.233   0.252   0.267   0.333   0.355   0.361   0.386   0.392
  0.441   0.457   0.470   0.494   0.495   0.502   0.513   0.523
  0.551   0.558   0.570   0.582   0.601   0.628   0.660   0.705
  0.732   0.760   0.775   0.803   0.809   0.862   0.884   0.908
  0.953   0.956   0.977   0.983   1.025   1.074   1.075   1.089
  1.111   1.131   1.140   1.150   1.174   1.192   1.229   1.241
  1.292   1.311   1.322   1.342   1.358   1.376   1.399   1.424
  1.452   1.457   1.467   1.484   1.528   1.556   1.568   1.616
  1.667   1.741   1.922   1.974   1.997   2.167   2.316   2.407
  2.491   2.538   2.568   2.644   2.668   2.713   2.746   2.851
  2.890   2.893   2.965   3.002   3.056   3.060   3.092   3.121
  3.150   3.161   3.173   3.197   3.221   3.279   3.286   3.353
  3.379   3.407   3.407   3.431   3.442   3.486   3.552   3.567
  3.610   3.643   3.655   3.711   3.714   3.732   3.763   3.832
  3.857   3.893   3.952   3.983   4.042   4.070   4.075   4.127
  4.158   4.185   4.226   4.255   4.281   4.288   4.337   4.359
  4.368   4.373   4.389   4.430   4.500   4.521   4.587   4.608
  4.621   4.689   4.694   4.767   5.029   5.039   5.236   5.245
  5.299   5.469   5.559   5.581   5.601   5.708   5.728   5.802
  5.826   5.865   5.933   6.312   6.510   6.664   7.219   7.243
  7.355   7.786   7.869  24.712  24.776  24.854  28.109  28.396
 28.432  28.458  28.492  28.556  28.614  28.624  28.866  41.329
 41.335  41.373  41.393  41.458  41.488  41.504  41.535  41.560
 41.593  41.597  41.600  41.645  41.689  41.724  44.001  44.072
 44.100  44.215  44.266  46.057  46.380  46.802  50.474
 
 Beta MOs
 -- Occupied --
-19.997 -11.040 -11.039 -10.918  -1.684  -1.297  -1.178  -1.098
 -0.972  -0.940  -0.901  -0.831  -0.804  -0.765  -0.751  -0.728
 -- Virtual --
 -0.276  -0.109  -0.080  -0.077  -0.077  -0.057  -0.046  -0.038
 -0.029  -0.022  -0.019   0.006   0.007   0.018   0.023   0.031
  0.042   0.053   0.058   0.062   0.070   0.093   0.106   0.107
  0.110   0.123   0.140   0.146   0.157   0.173   0.186   0.205
  0.219   0.234   0.254   0.268   0.339   0.357   0.363   0.387
  0.414   0.448   0.458   0.469   0.495   0.496   0.503   0.517
  0.524   0.553   0.560   0.573   0.586   0.604   0.635   0.660
  0.706   0.734   0.762   0.776   0.803   0.813   0.863   0.893
  0.909   0.960   0.962   0.984   1.022   1.028   1.077   1.080
  1.097   1.113   1.133   1.152   1.154   1.182   1.196   1.230
  1.262   1.294   1.312   1.329   1.345   1.359   1.377   1.400
  1.426   1.453   1.459   1.468   1.485   1.530   1.557   1.569
  1.617   1.684   1.752   1.962   1.989   2.036   2.198   2.323
  2.414   2.499   2.540   2.570   2.647   2.674   2.714   2.750
  2.852   2.892   2.894   2.967   3.006   3.058   3.060   3.094
  3.121   3.152   3.162   3.175   3.200   3.221   3.279   3.292
  3.357   3.379   3.407   3.411   3.432   3.444   3.486   3.556
  3.570   3.613   3.643   3.657   3.711   3.716   3.734   3.765
  3.834   3.858   3.895   3.955   3.985   4.043   4.073   4.077
  4.130   4.161   4.186   4.229   4.257   4.287   4.291   4.341
  4.359   4.371   4.376   4.392   4.435   4.503   4.524   4.590
  4.610   4.624   4.691   4.695   4.769   5.045   5.120   5.269
  5.275   5.316   5.501   5.565   5.594   5.616   5.711   5.737
  5.810   5.827   5.897   5.952   6.321   6.534   6.678   7.295
  7.306   7.427   7.816   7.887  24.712  24.775  24.854  28.108
 28.395  28.431  28.457  28.492  28.556  28.614  28.624  28.866
 41.328  41.334  41.372  41.392  41.458  41.488  41.503  41.534
 41.559  41.593  41.596  41.599  41.645  41.689  41.724  44.058
 44.122  44.151  44.238  44.287  46.100  46.396  46.818  50.500
 --------------------------------------------------------------
 
          Ground-State Mulliken Net Atomic Charges

     Atom                 Charge (a.u.)    Spin (a.u.)
  --------------------------------------------------------
      1 O                     0.279417       0.915641
      2 C                    -0.162742      -0.069617
      3 C                    -0.071144      -0.068014
      4 C                    -0.237998       0.003415
      5 H                     0.175491       0.056944
      6 H                     0.175071       0.054995
      7 H                     0.157922       0.001215
      8 H                     0.161887       0.052994
      9 H                     0.162051       0.053590
     10 H                     0.124246       0.000114
     11 H                     0.124351      -0.000053
     12 H                     0.111447      -0.001226
  --------------------------------------------------------
  Sum of atomic charges =     1.000000
  Sum of spin   charges =     1.000000

 -----------------------------------------------------------------
                    Cartesian Multipole Moments
 -----------------------------------------------------------------
    Charge (ESU x 10^10)
                 4.8032
    Dipole Moment (Debye)
         X       2.6832      Y       0.0004      Z       2.8049
       Tot       3.8816
    Quadrupole Moments (Debye-Ang)
        XX     -16.0242     XY      -0.0069     YY     -21.4856
        XZ      -3.8504     YZ      -0.0072     ZZ     -14.2355
    Octapole Moments (Debye-Ang^2)
       XXX       8.0391    XXY      -0.0069    XYY       3.0451
       YYY      -0.0022    XXZ     -16.2050    XYZ      -0.0023
       YYZ     -16.1623    XZZ      -1.4138    YZZ      -0.0099
       ZZZ     -39.8697
    Hexadecapole Moments (Debye-Ang^3)
      XXXX    -178.3539   XXXY      -0.0173   XXYY     -31.6080
      XYYY      -0.0076   YYYY     -36.1954   XXXZ      60.4017
      XXYZ      -0.0029   XYYZ      25.3996   YYYZ      -0.0062
      XXZZ     -68.4187   XYZZ      -0.0074   YYZZ     -51.0392
      XZZZ      56.1916   YZZZ      -0.0254   ZZZZ    -226.0114
 -----------------------------------------------------------------
 Total job time:  381.37s(wall), 330.26s(cpu) 
 Mon Apr 11 18:53:27 2011

        *************************************************************
        *                                                           *
        *  Thank you very much for using Q-Chem.  Have a nice day.  *
        *                                                           *
        *************************************************************


0 sent ACK to 0 
now end server 0 ... 
