Process 0 of 1 is on cl233.stfx.acenet.ca - thread support 1
initial socket setup ...start
initial socket setup ...done 
now start server 0 ... 

cmd = /usr/bin/ssh clhead /usr/local/qchem/bin/get_hostid 1775668461 > /scratch/tmp/6028638.1.long.q/qchem18642/lic.dat
                  Welcome to Q-Chem
     A Quantum Leap Into The Future Of Chemistry

 Y. Shao, L. Fusti-Molnar, Y. Jung, J. Kussmann, C. Ochsenfeld,
 S. T. Brown, A. T. B. Gilbert, L. V. Slipchenko,S. V. Levchenko,
 D. P. O'Neill, R. A. DiStasio Jr., R. C. Lochan, T. Wang,
 G. J. O. Beran, N. A. Besley, J. M. Herbert, C. Y. Lin,
 T. Van Voorhis, S. H. Chien, A. Sodt, R. P. Steele, 
 V. A. Rassolov, P. E. Maslen, P. P. Korambath, R. D. Adamson,
 B. Austin, J. Baker, E. F. C. Byrd, H. Dachsel, R. J. Doerksen,
 A. Dreuw, B. D. Dunietz, A. D. Dutoi, T. R. Furlani,
 S. R. Gwaltney, A. Heyden, S. Hirata, C.-P. Hsu, G. Kedziora,
 R. Z. Khaliullin, P. Klunzinger, A. M. Lee, M. S. Lee, W. Liang,
 I. Lotan, N. Nair, B. Peters, E. I. Proynov, P. A. Pieniazek, 
 Y. M. Rhee, J. Ritchie, E. Rosta, C. D. Sherrill, 
 A. C. Simmonett, J. E. Subotnik, H. L. Woodcock III,
 W. Zhang, A. T. Bell, A. K. Chakraborty, D. M. Chipman,
 F. J. Keil, A. Warshel, W. J. Hehre, H. F. Schaefer III,
 J. Kong, A. I. Krylov, P. M. W. Gill, M. Head-Gordon,
 Q-Chem, Version 3.1, Q-Chem, Inc., Pittsburgh, PA (2007).

 Additional authors for Version 3.1: 
 Z. Gan, Y. Zhao, N. E. Schultz, D. Truhlar, E. Epifanovsky and M. Oana.

 Additional authors for Version 3.2: 
 R. Baer, B. R. Brooks, D. Casanova, J.-D. Chai, C.-L. Cheng, 
 C. Cramer, D. Crittenden, A. Ghysels, G. Hawkins, E. G. Hohenstein, 
 C. Kelley, W. Kurlancheek, D. Liotard, E. Livshits, P. Manohar, 
 A. Marenich, D. Neuhauser, R. Olson, M. A. Rohrdanz, K. S. Thanthiriwatte, 
 A. J. W. Thom, V. Vanovschi, C. F. Williams, Q. Wu and Z.-Q. You. 


 Intel X86 Linux Version

 Q-chem begins on Tue Jun  4 15:55:51 2013  

 Parallel job on  1  processors
Processing $rem in /usr/local/qchem/config/preferences.

theFileMan(): MAXOPENFILES=974 MAX_SUB_FILE_NUM=16
Maximum size of a physical file is 2.0 GB, maximum size of a tmp-file is 32.0 GB


--------------------------------------------------------------
User input:
--------------------------------------------------------------

$molecule
-1,2
C          0.00012        0.00000        0.01772
Si        -0.00002       -0.00000        1.88416
H          1.04598        0.00000       -0.35160
H         -0.52304       -0.90592       -0.35164
H         -0.52304        0.90592       -0.35164
H         -1.38674       -0.00000        2.37295
H          0.69337       -1.20095        2.37296
H          0.69337        1.20095        2.37296
$end

$comment
negative
$end

$xc_functional
C PBE   1.00
X wPBE  1.00
$end

$rem
SYMMETRY_DECOMPOSITION	0
exchange 		general
LRC_DFT                 true
BASIS                   g3large
omega			570
mem_static              760
max_scf_cycles          200
scf_final_print         1
sym_ignore              true
$end

--------------------------------------------------------------
 Writing REM_CC_EA            8
 ----------------------------------------------------
       Standard Nuclear Orientation (Angstroms)
    I     Atom         X            Y            Z
 ----------------------------------------------------
    1      C       0.000120     0.000000     0.017720
    2      Si     -0.000020     0.000000     1.884160
    3      H       1.045980     0.000000    -0.351600
    4      H      -0.523040    -0.905920    -0.351640
    5      H      -0.523040     0.905920    -0.351640
    6      H      -1.386740     0.000000     2.372950
    7      H       0.693370    -1.200950     2.372960
    8      H       0.693370     1.200950     2.372960
 ----------------------------------------------------
 Nuclear Repulsion Energy =    63.0377166733 hartrees
 There are       14 alpha and       13 beta electrons
 Requested basis set is G3large
 There are 65 shells and 168 basis functions

Total QAlloc Memory Limit   2000 MB
Mega-Array Size       743 MB
MEM_STATIC part       760 MB

                       Distance Matrix (Angstroms)
             C (  1)   Si(  2)   H (  3)   H (  4)   H (  5)   H (  6)
   Si(  2)  1.866440
   H (  3)  1.109153  2.468347
   H (  4)  1.109421  2.468409  1.811771
   H (  5)  1.109421  2.468409  1.811771  1.811840
   H (  6)  2.733220  1.470343  3.652574  2.998343  2.998343
   H (  7)  2.733136  1.470373  2.998307  2.998356  3.652670  2.401903
   H (  8)  2.733136  1.470373  2.998307  3.652670  2.998356  2.401903
             H (  7)
   H (  8)  2.401900
 
 A cutoff of  1.0D-08 yielded   2047 shell pairs
 There are  13856 function pairs ( 17267 Cartesian)
Evaluating contribution to one-electron hamiltonian from nuclear
 Smallest overlap matrix eigenvalue = 1.34E-04
 Multipole matrices computed through 2nd order

  Scale SEOQF with 1.000000e-01/1.000000e-01/1.000000e-01

 Standard Electronic Orientation quadrupole field applied
 Nucleus-field energy     =    -0.0000000067 hartrees
 Guess from superposition of atomic densities
 Warning:  Energy on first SCF cycle will be non-variational
 Long-range K will be added via erf
 Coulomb attenuation parameter = 0.57 bohr**(-1)
 An unrestricted Kohn-Sham SCF calculation will be
 performed using Pulay DIIS extrapolation
 Exchange:  wPBE + LR-HF      Correlation:  PBE
 Using SG-1 standard quadrature grid
 SCF converges when DIIS error is below 1.0E-05
 Requested basis set is G3large
 There are 65 shells and 168 basis functions
 A cutoff of  1.0D-08 yielded   2047 shell pairs
 There are  13856 function pairs ( 17267 Cartesian)
 Warning!  Inaccurate integrated density:
   Number of electrons =    27
   Numerical integral  =    25.999996505265
   Relative error      =    -3.7037166472 %
 ---------------------------------------
  Cycle       Energy         DIIS Error
 ---------------------------------------
    1    -331.2933363119      2.76E-02
    2    -331.0260280500      2.94E-03
    3    -331.0753765023      1.81E-03
    4    -331.0911556209      3.73E-04
    5    -331.0962774026      1.59E-04
    6    -331.0982136848      8.73E-05
    7    -331.0990930842      3.71E-05
    8    -331.0993474972      1.60E-05
    9    -331.0994056304      7.44E-06 Convergence criterion met
 ---------------------------------------
 One-Electron    Energy =  -584.7661514100
 Total Coulomb   Energy =   219.1950516754
 Alpha Exchange  Energy =    -3.5163008624
 Beta  Exchange  Energy =    -3.4473205140
 DFT   Exchange  Energy =   -20.7154574080
 DFT Correlation Energy =    -0.8869437780
 Nuclear Repu.   Energy =    63.0377166666
 Nuclear Attr.   Energy =  -915.0760865323
 Kinetic         Energy =   330.3099351223
 <S^2> = 0.7502
 SCF time:  CPU 92.03 s  wall 93.30 s
 Final Alpha MO Eigenvalues
            1           2           3           4           5           6
    1 -65.5694818 -10.0369978  -5.2334793  -3.6230251  -3.6230055  -3.6218493
            7           8           9          10          11          12
    1  -0.7601925  -0.5679876  -0.4222072  -0.4221093  -0.3471225  -0.3470635
           13          14          15          16          17          18
    1  -0.3228341   0.0293827   0.1485522   0.1508117   0.1509092   0.1767410
           19
    1   0.1892094
 Final Beta MO Eigenvalues
            1           2           3           4           5           6
    1 -65.5693879 -10.0364025  -5.2333699  -3.6229555  -3.6229358  -3.6215852
            7           8           9          10          11          12
    1  -0.7580193  -0.5658424  -0.4215259  -0.4214293  -0.3472162  -0.3471514
           13          14          15          16          17          18
    1  -0.3213356   0.1394287   0.1555302   0.1656722   0.1659446   0.1832638
 Analysis of SCF Wavefunction
 
 --------------------------------------------------------------
                    Orbital Energies (a.u.)
 --------------------------------------------------------------
 
 Alpha MOs
 -- Occupied --
-65.569 -10.037  -5.233  -3.623  -3.623  -3.622  -0.760  -0.568
 -0.422  -0.422  -0.347  -0.347  -0.323   0.029
 -- Virtual --
  0.149   0.151   0.151   0.177   0.189   0.189   0.200   0.200
  0.258   0.271   0.271   0.273   0.302   0.312   0.312   0.319
  0.362   0.374   0.374   0.435   0.436   0.486   0.486   0.486
  0.493   0.537   0.537   0.629   0.644   0.644   0.655   0.680
  0.729   0.729   0.740   0.788   0.788   0.789   0.834   0.834
  0.892   0.936   0.939   0.939   0.986   0.986   1.054   1.077
  1.077   1.105   1.107   1.174   1.239   1.239   1.300   1.300
  1.347   1.367   1.367   1.439   1.439   1.491   1.534   1.565
  1.565   1.576   1.593   1.593   1.675   1.675   1.742   1.742
  1.763   1.816   1.816   1.847   1.895   2.406   2.441   2.446
  2.446   2.506   2.506   2.626   2.826   2.826   2.940   3.123
  3.123   3.238   3.270   3.404   3.404   3.411   3.521   3.522
  3.608   3.608   3.671   3.847   3.848   3.965   3.971   3.972
  4.094   4.095   4.163   4.225   4.225   4.356   4.356   4.376
  4.405   4.420   4.420   4.499   4.499   4.533   4.654   4.655
  4.656   4.754   4.842   4.928   4.929   5.363   5.882   5.883
  6.558  11.694  11.694  12.015  17.822  17.897  18.001  18.070
 18.129  22.426  22.441  22.446  22.447  22.455  22.456  22.483
 24.296  28.048  28.306  28.307  41.211  41.220  41.435  41.465
 41.504 141.377
 
 Beta MOs
 -- Occupied --
-65.569 -10.036  -5.233  -3.623  -3.623  -3.622  -0.758  -0.566
 -0.422  -0.421  -0.347  -0.347  -0.321
 -- Virtual --
  0.139   0.156   0.166   0.166   0.183   0.191   0.191   0.202
  0.202   0.257   0.267   0.267   0.277   0.298   0.313   0.313
  0.321   0.363   0.375   0.375   0.436   0.436   0.480   0.486
  0.486   0.494   0.536   0.536   0.629   0.642   0.642   0.653
  0.680   0.729   0.729   0.739   0.788   0.788   0.788   0.831
  0.831   0.889   0.936   0.940   0.940   0.986   0.986   1.054
  1.077   1.077   1.105   1.108   1.174   1.239   1.239   1.300
  1.300   1.347   1.367   1.367   1.439   1.439   1.491   1.534
  1.565   1.565   1.576   1.593   1.593   1.676   1.676   1.741
  1.741   1.763   1.816   1.816   1.847   1.895   2.406   2.442
  2.447   2.447   2.507   2.507   2.627   2.826   2.826   2.940
  3.123   3.123   3.238   3.270   3.404   3.404   3.411   3.522
  3.522   3.609   3.609   3.672   3.848   3.848   3.967   3.971
  3.972   4.094   4.095   4.163   4.225   4.225   4.356   4.356
  4.376   4.404   4.420   4.420   4.499   4.499   4.533   4.654
  4.654   4.655   4.754   4.842   4.928   4.929   5.364   5.883
  5.883   6.558  11.694  11.694  12.016  17.822  17.897  18.001
 18.070  18.129  22.426  22.441  22.446  22.447  22.455  22.456
 22.483  24.297  28.049  28.307  28.307  41.211  41.220  41.436
 41.465  41.505 141.377
 --------------------------------------------------------------
 
          Ground-State Mulliken Net Atomic Charges

     Atom                 Charge (a.u.)    Spin (a.u.)
  --------------------------------------------------------
      1 C                     2.544877      -2.786322
      2 Si                    0.865552      -0.637836
      3 H                    -1.161656       1.256010
      4 H                    -1.178412       1.273400
      5 H                    -1.144054       1.237790
      6 H                    -0.309142       0.219448
      7 H                    -0.309305       0.220016
      8 H                    -0.307860       0.217493
  --------------------------------------------------------
  Sum of atomic charges =    -1.000000
  Sum of spin   charges =     1.000000

 -----------------------------------------------------------------
                    Cartesian Multipole Moments
 -----------------------------------------------------------------
    Charge (ESU x 10^10)
                -4.8032
    Dipole Moment (Debye)
         X      -0.0007      Y       0.1468      Z       1.7645
       Tot       1.7706
    Quadrupole Moments (Debye-Ang)
        XX     -49.8404     XY      -0.0984     YY     -49.8289
        XZ      -0.0046     YZ      -0.0435     ZZ     -47.3497
    Octapole Moments (Debye-Ang^2)
       XXX      -1.1500    XXY       0.5842    XYY       1.1291
       YYY       1.7523    XXZ     -22.1370    XYZ       0.0471
       YYZ     -22.1249    XZZ      -0.0064    YZZ       0.5465
       ZZZ     -75.0005
    Hexadecapole Moments (Debye-Ang^3)
      XXXX    -382.8440   XXXY      -0.7775   XXYY    -127.5766
      XYYY      -0.8653   YYYY    -382.6233   XXXZ       7.9649
      XXYZ      -0.0274   XYYZ      -8.0138   YYYZ      -0.0825
      XXZZ    -181.8589   XYZZ      -0.2445   YYZZ    -181.8082
      XZZZ      -0.0397   YZZZ      -0.0665   ZZZZ    -661.4561
 -----------------------------------------------------------------
 Total job time:  93.51s(wall), 92.22s(cpu) 
 Tue Jun  4 15:57:25 2013

        *************************************************************
        *                                                           *
        *  Thank you very much for using Q-Chem.  Have a nice day.  *
        *                                                           *
        *************************************************************


0 sent ACK to 0 
now end server 0 ... 
 
**********************************************************************
Job 2 of 3 
**********************************************************************
 
Process 0 of 1 is on cl233.stfx.acenet.ca - thread support 1
initial socket setup ...start
initial socket setup ...done 
now start server 0 ... 

cmd = /usr/bin/ssh clhead /usr/local/qchem/bin/get_hostid 203097310 > /scratch/tmp/6028638.1.long.q/qchem18642/lic.dat
                  Welcome to Q-Chem
     A Quantum Leap Into The Future Of Chemistry

 Y. Shao, L. Fusti-Molnar, Y. Jung, J. Kussmann, C. Ochsenfeld,
 S. T. Brown, A. T. B. Gilbert, L. V. Slipchenko,S. V. Levchenko,
 D. P. O'Neill, R. A. DiStasio Jr., R. C. Lochan, T. Wang,
 G. J. O. Beran, N. A. Besley, J. M. Herbert, C. Y. Lin,
 T. Van Voorhis, S. H. Chien, A. Sodt, R. P. Steele, 
 V. A. Rassolov, P. E. Maslen, P. P. Korambath, R. D. Adamson,
 B. Austin, J. Baker, E. F. C. Byrd, H. Dachsel, R. J. Doerksen,
 A. Dreuw, B. D. Dunietz, A. D. Dutoi, T. R. Furlani,
 S. R. Gwaltney, A. Heyden, S. Hirata, C.-P. Hsu, G. Kedziora,
 R. Z. Khaliullin, P. Klunzinger, A. M. Lee, M. S. Lee, W. Liang,
 I. Lotan, N. Nair, B. Peters, E. I. Proynov, P. A. Pieniazek, 
 Y. M. Rhee, J. Ritchie, E. Rosta, C. D. Sherrill, 
 A. C. Simmonett, J. E. Subotnik, H. L. Woodcock III,
 W. Zhang, A. T. Bell, A. K. Chakraborty, D. M. Chipman,
 F. J. Keil, A. Warshel, W. J. Hehre, H. F. Schaefer III,
 J. Kong, A. I. Krylov, P. M. W. Gill, M. Head-Gordon,
 Q-Chem, Version 3.1, Q-Chem, Inc., Pittsburgh, PA (2007).

 Additional authors for Version 3.1: 
 Z. Gan, Y. Zhao, N. E. Schultz, D. Truhlar, E. Epifanovsky and M. Oana.

 Additional authors for Version 3.2: 
 R. Baer, B. R. Brooks, D. Casanova, J.-D. Chai, C.-L. Cheng, 
 C. Cramer, D. Crittenden, A. Ghysels, G. Hawkins, E. G. Hohenstein, 
 C. Kelley, W. Kurlancheek, D. Liotard, E. Livshits, P. Manohar, 
 A. Marenich, D. Neuhauser, R. Olson, M. A. Rohrdanz, K. S. Thanthiriwatte, 
 A. J. W. Thom, V. Vanovschi, C. F. Williams, Q. Wu and Z.-Q. You. 


 Intel X86 Linux Version

 Q-chem begins on Tue Jun  4 15:57:28 2013  

 Parallel job on  1  processors
Processing $rem in /usr/local/qchem/config/preferences.

theFileMan(): MAXOPENFILES=974 MAX_SUB_FILE_NUM=16
Maximum size of a physical file is 2.0 GB, maximum size of a tmp-file is 32.0 GB


--------------------------------------------------------------
User input:
--------------------------------------------------------------

$molecule
0,1
C          0.00012        0.00000        0.01772
Si        -0.00002       -0.00000        1.88416
H          1.04598        0.00000       -0.35160
H         -0.52304       -0.90592       -0.35164
H         -0.52304        0.90592       -0.35164
H         -1.38674       -0.00000        2.37295
H          0.69337       -1.20095        2.37296
H          0.69337        1.20095        2.37296
$end

$comment
neutral
$end

$xc_functional
C PBE   1.00
X wPBE  1.00
$end


$rem
SYMMETRY_DECOMPOSITION	0
LRC_DFT                 true
exchange 		general
BASIS                   g3large
omega			570
mem_static              760
max_scf_cycles          200
scf_final_print         1
sym_ignore              true
$end

--------------------------------------------------------------
 Writing REM_CC_EA            8
 ----------------------------------------------------
       Standard Nuclear Orientation (Angstroms)
    I     Atom         X            Y            Z
 ----------------------------------------------------
    1      C       0.000120     0.000000     0.017720
    2      Si     -0.000020     0.000000     1.884160
    3      H       1.045980     0.000000    -0.351600
    4      H      -0.523040    -0.905920    -0.351640
    5      H      -0.523040     0.905920    -0.351640
    6      H      -1.386740     0.000000     2.372950
    7      H       0.693370    -1.200950     2.372960
    8      H       0.693370     1.200950     2.372960
 ----------------------------------------------------
 Nuclear Repulsion Energy =    63.0377166733 hartrees
 There are       13 alpha and       13 beta electrons
 Requested basis set is G3large
 There are 65 shells and 168 basis functions

Total QAlloc Memory Limit   2000 MB
Mega-Array Size       743 MB
MEM_STATIC part       760 MB

                       Distance Matrix (Angstroms)
             C (  1)   Si(  2)   H (  3)   H (  4)   H (  5)   H (  6)
   Si(  2)  1.866440
   H (  3)  1.109153  2.468347
   H (  4)  1.109421  2.468409  1.811771
   H (  5)  1.109421  2.468409  1.811771  1.811840
   H (  6)  2.733220  1.470343  3.652574  2.998343  2.998343
   H (  7)  2.733136  1.470373  2.998307  2.998356  3.652670  2.401903
   H (  8)  2.733136  1.470373  2.998307  3.652670  2.998356  2.401903
             H (  7)
   H (  8)  2.401900
 
 A cutoff of  1.0D-08 yielded   2047 shell pairs
 There are  13856 function pairs ( 17267 Cartesian)
Evaluating contribution to one-electron hamiltonian from nuclear
 Smallest overlap matrix eigenvalue = 1.34E-04
 Multipole matrices computed through 2nd order

  Scale SEOQF with 1.000000e-01/1.000000e-01/1.000000e-01

 Standard Electronic Orientation quadrupole field applied
 Nucleus-field energy     =    -0.0000000067 hartrees
 Guess from superposition of atomic densities
 Warning:  Energy on first SCF cycle will be non-variational
 Long-range K will be added via erf
 Coulomb attenuation parameter = 0.57 bohr**(-1)
 A restricted Kohn-Sham SCF calculation will be
 performed using Pulay DIIS extrapolation
 Exchange:  wPBE + LR-HF      Correlation:  PBE
 Using SG-1 standard quadrature grid
 SCF converges when DIIS error is below 1.0E-05
 Requested basis set is G3large
 There are 65 shells and 168 basis functions
 A cutoff of  1.0D-08 yielded   2047 shell pairs
 There are  13856 function pairs ( 17267 Cartesian)
 ---------------------------------------
  Cycle       Energy         DIIS Error
 ---------------------------------------
    1    -331.2933363119      2.76E-02
    2    -331.0991733663      2.53E-03
    3    -331.1282464728      1.08E-03
    4    -331.1325720479      3.15E-04
    5    -331.1330847967      5.50E-05
    6    -331.1331064571      1.43E-05
    7    -331.1331087087      2.89E-06 Convergence criterion met
 ---------------------------------------
 One-Electron    Energy =  -581.3161181971
 Total Coulomb   Energy =   215.6374981636
 Alpha Exchange  Energy =    -3.4498840506
 Beta  Exchange  Energy =    -3.4498840506
 DFT   Exchange  Energy =   -20.7133484975
 DFT Correlation Energy =    -0.8790887431
 Nuclear Repu.   Energy =    63.0377166666
 Nuclear Attr.   Energy =  -911.5656877245
 Kinetic         Energy =   330.2495695274
 SCF time:  CPU 56.48 s  wall 57.54 s
 Final Alpha MO Eigenvalues
            1           2           3           4           5           6
    1 -65.6984687 -10.1823923  -5.3624914  -3.7517850  -3.7517682  -3.7513221
            7           8           9          10          11          12
    1  -0.9020433  -0.6960236  -0.5647234  -0.5646594  -0.4753064  -0.4752801
           13          14          15          16          17          18
    1  -0.4597453   0.0400236   0.0621006   0.0684042   0.0684053   0.0871787
 Analysis of SCF Wavefunction
 
 --------------------------------------------------------------
                    Orbital Energies (a.u.)
 --------------------------------------------------------------
 
 Alpha MOs
 -- Occupied --
-65.698 -10.182  -5.362  -3.752  -3.752  -3.751  -0.902  -0.696
 -0.565  -0.565  -0.475  -0.475  -0.460
 -- Virtual --
  0.040   0.062   0.068   0.068   0.087   0.096   0.096   0.104
  0.104   0.159   0.160   0.160   0.164   0.191   0.195   0.195
  0.209   0.245   0.245   0.248   0.309   0.309   0.360   0.370
  0.370   0.376   0.420   0.420   0.510   0.514   0.514   0.528
  0.553   0.601   0.601   0.616   0.657   0.657   0.662   0.699
  0.699   0.756   0.808   0.812   0.812   0.860   0.860   0.927
  0.954   0.954   0.965   0.971   1.045   1.105   1.105   1.169
  1.169   1.217   1.223   1.223   1.315   1.315   1.348   1.404
  1.428   1.428   1.451   1.464   1.464   1.535   1.535   1.602
  1.602   1.628   1.691   1.691   1.712   1.759   2.279   2.312
  2.313   2.313   2.377   2.377   2.499   2.683   2.683   2.798
  2.997   2.997   3.092   3.127   3.263   3.263   3.285   3.378
  3.378   3.466   3.466   3.534   3.706   3.706   3.822   3.836
  3.837   3.966   3.967   4.019   4.086   4.086   4.231   4.231
  4.251   4.279   4.286   4.286   4.361   4.361   4.405   4.510
  4.510   4.510   4.609   4.713   4.800   4.800   5.218   5.736
  5.737   6.429  11.565  11.565  11.886  17.693  17.768  17.872
 17.941  18.000  22.297  22.312  22.317  22.318  22.326  22.327
 22.354  24.151  27.904  28.161  28.161  41.066  41.074  41.290
 41.320  41.359 141.248
 --------------------------------------------------------------
 
          Ground-State Mulliken Net Atomic Charges

     Atom                 Charge (a.u.)
  ----------------------------------------
      1 C                    -0.290830
      2 Si                    0.220547
      3 H                     0.093369
      4 H                     0.093329
      5 H                     0.093267
      6 H                    -0.069816
      7 H                    -0.069921
      8 H                    -0.069945
  ----------------------------------------
  Sum of atomic charges =     0.000000

 -----------------------------------------------------------------
                    Cartesian Multipole Moments
 -----------------------------------------------------------------
    Charge (ESU x 10^10)
                 0.0000
    Dipole Moment (Debye)
         X      -0.0005      Y       0.0000      Z      -0.6082
       Tot       0.6082
    Quadrupole Moments (Debye-Ang)
        XX     -22.6429     XY       0.0000     YY     -22.6440
        XZ      -0.0014     YZ       0.0000     ZZ     -24.6556
    Octapole Moments (Debye-Ang^2)
       XXX       1.7377    XXY      -0.0001    XYY      -1.7406
       YYY      -0.0003    XXZ     -31.2701    XYZ      -0.0002
       YYZ     -31.2720    XZZ      -0.0035    YZZ       0.0000
       ZZZ     -90.8579
    Hexadecapole Moments (Debye-Ang^3)
      XXXX     -54.8993   XXXY       0.0001   XXYY     -18.3008
      XYYY       0.0000   YYYY     -54.9060   XXXZ       1.2008
      XXYZ      -0.0001   XYYZ      -1.2048   YYYZ      -0.0002
      XXZZ     -79.7100   XYZZ      -0.0005   YYZZ     -79.7155
      XZZZ      -0.0084   YZZZ      -0.0002   ZZZZ    -399.1604
 -----------------------------------------------------------------
 Total job time:  57.74s(wall), 56.65s(cpu) 
 Tue Jun  4 15:58:25 2013

        *************************************************************
        *                                                           *
        *  Thank you very much for using Q-Chem.  Have a nice day.  *
        *                                                           *
        *************************************************************


0 sent ACK to 0 
now end server 0 ... 
 
**********************************************************************
Job 3 of 3 
**********************************************************************
 
Process 0 of 1 is on cl233.stfx.acenet.ca - thread support 1
initial socket setup ...start
initial socket setup ...done 
now start server 0 ... 

cmd = /usr/bin/ssh clhead /usr/local/qchem/bin/get_hostid 2052872283 > /scratch/tmp/6028638.1.long.q/qchem18642/lic.dat
                  Welcome to Q-Chem
     A Quantum Leap Into The Future Of Chemistry

 Y. Shao, L. Fusti-Molnar, Y. Jung, J. Kussmann, C. Ochsenfeld,
 S. T. Brown, A. T. B. Gilbert, L. V. Slipchenko,S. V. Levchenko,
 D. P. O'Neill, R. A. DiStasio Jr., R. C. Lochan, T. Wang,
 G. J. O. Beran, N. A. Besley, J. M. Herbert, C. Y. Lin,
 T. Van Voorhis, S. H. Chien, A. Sodt, R. P. Steele, 
 V. A. Rassolov, P. E. Maslen, P. P. Korambath, R. D. Adamson,
 B. Austin, J. Baker, E. F. C. Byrd, H. Dachsel, R. J. Doerksen,
 A. Dreuw, B. D. Dunietz, A. D. Dutoi, T. R. Furlani,
 S. R. Gwaltney, A. Heyden, S. Hirata, C.-P. Hsu, G. Kedziora,
 R. Z. Khaliullin, P. Klunzinger, A. M. Lee, M. S. Lee, W. Liang,
 I. Lotan, N. Nair, B. Peters, E. I. Proynov, P. A. Pieniazek, 
 Y. M. Rhee, J. Ritchie, E. Rosta, C. D. Sherrill, 
 A. C. Simmonett, J. E. Subotnik, H. L. Woodcock III,
 W. Zhang, A. T. Bell, A. K. Chakraborty, D. M. Chipman,
 F. J. Keil, A. Warshel, W. J. Hehre, H. F. Schaefer III,
 J. Kong, A. I. Krylov, P. M. W. Gill, M. Head-Gordon,
 Q-Chem, Version 3.1, Q-Chem, Inc., Pittsburgh, PA (2007).

 Additional authors for Version 3.1: 
 Z. Gan, Y. Zhao, N. E. Schultz, D. Truhlar, E. Epifanovsky and M. Oana.

 Additional authors for Version 3.2: 
 R. Baer, B. R. Brooks, D. Casanova, J.-D. Chai, C.-L. Cheng, 
 C. Cramer, D. Crittenden, A. Ghysels, G. Hawkins, E. G. Hohenstein, 
 C. Kelley, W. Kurlancheek, D. Liotard, E. Livshits, P. Manohar, 
 A. Marenich, D. Neuhauser, R. Olson, M. A. Rohrdanz, K. S. Thanthiriwatte, 
 A. J. W. Thom, V. Vanovschi, C. F. Williams, Q. Wu and Z.-Q. You. 


 Intel X86 Linux Version

 Q-chem begins on Tue Jun  4 15:58:29 2013  

 Parallel job on  1  processors
Processing $rem in /usr/local/qchem/config/preferences.

theFileMan(): MAXOPENFILES=974 MAX_SUB_FILE_NUM=16
Maximum size of a physical file is 2.0 GB, maximum size of a tmp-file is 32.0 GB


--------------------------------------------------------------
User input:
--------------------------------------------------------------

$molecule
1,2
C          0.00012        0.00000        0.01772
Si        -0.00002       -0.00000        1.88416
H          1.04598        0.00000       -0.35160
H         -0.52304       -0.90592       -0.35164
H         -0.52304        0.90592       -0.35164
H         -1.38674       -0.00000        2.37295
H          0.69337       -1.20095        2.37296
H          0.69337        1.20095        2.37296
$end

$comment
positive
$end

$xc_functional
C PBE   1.00
X wPBE  1.00
$end

$rem
SYMMETRY_DECOMPOSITION	0
LRC_DFT                 true
exchange 		general
BASIS                   g3large
omega			570
mem_static              760
max_scf_cycles          200
scf_final_print         1
sym_ignore              true
$end

--------------------------------------------------------------
 Writing REM_CC_EA            8
 ----------------------------------------------------
       Standard Nuclear Orientation (Angstroms)
    I     Atom         X            Y            Z
 ----------------------------------------------------
    1      C       0.000120     0.000000     0.017720
    2      Si     -0.000020     0.000000     1.884160
    3      H       1.045980     0.000000    -0.351600
    4      H      -0.523040    -0.905920    -0.351640
    5      H      -0.523040     0.905920    -0.351640
    6      H      -1.386740     0.000000     2.372950
    7      H       0.693370    -1.200950     2.372960
    8      H       0.693370     1.200950     2.372960
 ----------------------------------------------------
 Nuclear Repulsion Energy =    63.0377166733 hartrees
 There are       13 alpha and       12 beta electrons
 Requested basis set is G3large
 There are 65 shells and 168 basis functions

Total QAlloc Memory Limit   2000 MB
Mega-Array Size       743 MB
MEM_STATIC part       760 MB

                       Distance Matrix (Angstroms)
             C (  1)   Si(  2)   H (  3)   H (  4)   H (  5)   H (  6)
   Si(  2)  1.866440
   H (  3)  1.109153  2.468347
   H (  4)  1.109421  2.468409  1.811771
   H (  5)  1.109421  2.468409  1.811771  1.811840
   H (  6)  2.733220  1.470343  3.652574  2.998343  2.998343
   H (  7)  2.733136  1.470373  2.998307  2.998356  3.652670  2.401903
   H (  8)  2.733136  1.470373  2.998307  3.652670  2.998356  2.401903
             H (  7)
   H (  8)  2.401900
 
 A cutoff of  1.0D-08 yielded   2047 shell pairs
 There are  13856 function pairs ( 17267 Cartesian)
Evaluating contribution to one-electron hamiltonian from nuclear
 Smallest overlap matrix eigenvalue = 1.34E-04
 Multipole matrices computed through 2nd order

  Scale SEOQF with 1.000000e-01/1.000000e-01/1.000000e-01

 Standard Electronic Orientation quadrupole field applied
 Nucleus-field energy     =    -0.0000000067 hartrees
 Guess from superposition of atomic densities
 Warning:  Energy on first SCF cycle will be non-variational
 Long-range K will be added via erf
 Coulomb attenuation parameter = 0.57 bohr**(-1)
 An unrestricted Kohn-Sham SCF calculation will be
 performed using Pulay DIIS extrapolation
 Exchange:  wPBE + LR-HF      Correlation:  PBE
 Using SG-1 standard quadrature grid
 SCF converges when DIIS error is below 1.0E-05
 Requested basis set is G3large
 There are 65 shells and 168 basis functions
 A cutoff of  1.0D-08 yielded   2047 shell pairs
 There are  13856 function pairs ( 17267 Cartesian)
 Warning!  Inaccurate integrated density:
   Number of electrons =    25
   Numerical integral  =    25.999996505265
   Relative error      =     3.9999860211 %
 ---------------------------------------
  Cycle       Energy         DIIS Error
 ---------------------------------------
    1    -331.2933363119      2.76E-02
    2    -330.6102813595      3.02E-03
    3    -330.6670172443      1.32E-03
    4    -330.6744779629      4.30E-04
    5    -330.6758313505      9.56E-05
    6    -330.6761622891      5.61E-05
    7    -330.6763959599      5.09E-05
    8    -330.6766635309      4.93E-05
    9    -330.6768364447      5.08E-05
   10    -330.6759236408      5.05E-05
   11    -330.6751705520      7.29E-05
   12    -330.6752347568      8.92E-05
   13    -330.6747734066      6.34E-05
   14    -330.6747935222      3.57E-05
   15    -330.6748080983      3.22E-05
   16    -330.6748140169      1.72E-05
   17    -330.6748150059      1.12E-05
   18    -330.6748194975      8.82E-06 Convergence criterion met
 ---------------------------------------
 One-Electron    Energy =  -574.4512916010
 Total Coulomb   Energy =   208.8843537897
 Alpha Exchange  Energy =    -3.4748054053
 Beta  Exchange  Energy =    -3.1971599714
 DFT   Exchange  Energy =   -20.6287780893
 DFT Correlation Energy =    -0.8448548868
 Nuclear Repu.   Energy =    63.0377166666
 Nuclear Attr.   Energy =  -904.4229438042
 Kinetic         Energy =   329.9716522032
 <S^2> = 0.7787
 SCF time:  CPU 181.56 s  wall 183.81 s
 Final Alpha MO Eigenvalues
            1           2           3           4           5           6
    1 -65.9919351 -10.3972411  -5.6556915  -4.0521353  -4.0422550  -4.0407116
            7           8           9          10          11          12
    1  -1.1255287  -0.9982939  -0.8540232  -0.7865925  -0.7587073  -0.7341009
           13          14          15          16          17          18
    1  -0.6926243  -0.1221073  -0.1010244  -0.0998348  -0.0953522  -0.0705495
 Final Beta MO Eigenvalues
            1           2           3           4           5           6
    1 -65.9912624 -10.3968587  -5.6548795  -4.0482046  -4.0425172  -4.0404998
            7           8           9          10          11          12
    1  -1.1158713  -0.9258910  -0.7754257  -0.7567328  -0.7039914  -0.6854566
           13          14          15          16          17
    1  -0.4378557  -0.1174298  -0.0969828  -0.0886686  -0.0780117
 Analysis of SCF Wavefunction
 
 --------------------------------------------------------------
                    Orbital Energies (a.u.)
 --------------------------------------------------------------
 
 Alpha MOs
 -- Occupied --
-65.992 -10.397  -5.656  -4.052  -4.042  -4.041  -1.126  -0.998
 -0.854  -0.787  -0.759  -0.734  -0.693
 -- Virtual --
 -0.122  -0.101  -0.100  -0.095  -0.071  -0.062  -0.057  -0.029
 -0.026  -0.025  -0.013  -0.008   0.014   0.020   0.021   0.035
  0.050   0.061   0.064   0.068   0.112   0.116   0.160   0.177
  0.182   0.197   0.230   0.235   0.284   0.313   0.319   0.323
  0.331   0.375   0.385   0.402   0.430   0.441   0.461   0.507
  0.507   0.563   0.577   0.587   0.601   0.614   0.622   0.683
  0.698   0.708   0.749   0.758   0.808   0.886   0.889   0.916
  0.945   0.974   1.022   1.027   1.047   1.075   1.142   1.169
  1.196   1.198   1.203   1.224   1.234   1.315   1.325   1.375
  1.390   1.406   1.422   1.452   1.482   1.551   1.981   2.034
  2.040   2.060   2.095   2.101   2.215   2.469   2.474   2.580
  2.645   2.717   2.886   2.913   2.985   3.030   3.042   3.164
  3.168   3.244   3.247   3.290   3.478   3.481   3.581   3.584
  3.609   3.647   3.688   3.805   3.822   3.838   3.868   3.887
  3.932   3.951   4.034   4.042   4.103   4.129   4.136   4.288
  4.296   4.304   4.399   4.415   4.480   4.533   5.010   5.527
  5.532   6.141  11.264  11.277  11.600  17.399  17.474  17.581
 17.647  17.707  22.002  22.018  22.022  22.028  22.033  22.035
 22.062  23.936  27.688  27.946  27.948  40.850  40.860  41.075
 41.105  41.145 140.955
 
 Beta MOs
 -- Occupied --
-65.991 -10.397  -5.655  -4.048  -4.043  -4.040  -1.116  -0.926
 -0.775  -0.757  -0.704  -0.685
 -- Virtual --
 -0.438  -0.117  -0.097  -0.089  -0.078  -0.066  -0.061  -0.054
 -0.025  -0.024  -0.014  -0.010  -0.005   0.014   0.023   0.027
  0.048   0.054   0.066   0.067   0.069   0.116   0.120   0.177
  0.179   0.184   0.198   0.233   0.238   0.305   0.325   0.327
  0.329   0.333   0.386   0.390   0.406   0.445   0.446   0.465
  0.509   0.510   0.565   0.585   0.590   0.605   0.624   0.627
  0.704   0.710   0.721   0.752   0.766   0.819   0.892   0.893
  0.936   0.951   0.990   1.026   1.029   1.067   1.084   1.150
  1.176   1.204   1.208   1.216   1.231   1.235   1.322   1.326
  1.388   1.395   1.409   1.438   1.458   1.482   1.553   1.998
  2.042   2.052   2.059   2.106   2.109   2.229   2.474   2.476
  2.589   2.718   2.748   2.888   2.915   3.023   3.037   3.043
  3.167   3.170   3.247   3.248   3.294   3.481   3.482   3.586
  3.587   3.610   3.682   3.702   3.810   3.857   3.858   3.943
  3.948   3.980   4.004   4.045   4.050   4.133   4.138   4.144
  4.298   4.301   4.306   4.403   4.443   4.518   4.543   5.013
  5.532   5.535   6.147  11.271  11.278  11.599  17.401  17.475
 17.582  17.649  17.708  22.003  22.019  22.023  22.028  22.034
 22.035  22.063  23.937  27.688  27.948  27.948  40.851  40.861
 41.076  41.105  41.145 140.956
 --------------------------------------------------------------
 
          Ground-State Mulliken Net Atomic Charges

     Atom                 Charge (a.u.)    Spin (a.u.)
  --------------------------------------------------------
      1 C                    -0.203910       0.021882
      2 Si                    0.398998       0.087933
      3 H                     0.148818       0.022969
      4 H                     0.150350       0.023002
      5 H                     0.140179       0.003158
      6 H                     0.137702       0.348533
      7 H                     0.054723       0.017151
      8 H                     0.173139       0.475371
  --------------------------------------------------------
  Sum of atomic charges =     1.000000
  Sum of spin   charges =     1.000000

 -----------------------------------------------------------------
                    Cartesian Multipole Moments
 -----------------------------------------------------------------
    Charge (ESU x 10^10)
                 4.8032
    Dipole Moment (Debye)
         X      -0.2372      Y       1.0950      Z       8.0140
       Tot       8.0920
    Quadrupole Moments (Debye-Ang)
        XX     -15.6223     XY       1.6788     YY     -16.2820
        XZ      -0.7603     YZ       2.8741     ZZ      -0.7265
    Octapole Moments (Debye-Ang^2)
       XXX      -1.2914    XXY       0.7736    XYY       0.5582
       YYY       2.3083    XXZ     -17.6036    XYZ       3.6829
       YYZ     -19.0484    XZZ      -1.8935    YZZ       6.8030
       ZZZ     -30.7473
    Hexadecapole Moments (Debye-Ang^3)
      XXXX     -33.7263   XXXY       2.2093   XXYY     -11.6419
      XYYY       2.6391   YYYY     -35.7132   XXXZ      -6.9113
      XXYZ       1.9553   XYYZ       4.8663   YYYZ       5.8402
      XXZZ     -43.2812   XYZZ       9.0351   YYZZ     -46.9203
      XZZZ      -5.1886   YZZZ      17.2820   ZZZZ    -228.2133
 -----------------------------------------------------------------
 Total job time:  184.01s(wall), 181.74s(cpu) 
 Tue Jun  4 16:01:33 2013

        *************************************************************
        *                                                           *
        *  Thank you very much for using Q-Chem.  Have a nice day.  *
        *                                                           *
        *************************************************************


0 sent ACK to 0 
now end server 0 ... 
