Process 0 of 1 is on cl151.stfx.acenet.ca - thread support 1
initial socket setup ...start
initial socket setup ...done 
now start server 0 ... 

cmd = /usr/bin/ssh clhead /usr/local/qchem/bin/get_hostid 765175227 > /scratch/tmp/6028656.1.medium.q/qchem28555/lic.dat
                  Welcome to Q-Chem
     A Quantum Leap Into The Future Of Chemistry

 Y. Shao, L. Fusti-Molnar, Y. Jung, J. Kussmann, C. Ochsenfeld,
 S. T. Brown, A. T. B. Gilbert, L. V. Slipchenko,S. V. Levchenko,
 D. P. O'Neill, R. A. DiStasio Jr., R. C. Lochan, T. Wang,
 G. J. O. Beran, N. A. Besley, J. M. Herbert, C. Y. Lin,
 T. Van Voorhis, S. H. Chien, A. Sodt, R. P. Steele, 
 V. A. Rassolov, P. E. Maslen, P. P. Korambath, R. D. Adamson,
 B. Austin, J. Baker, E. F. C. Byrd, H. Dachsel, R. J. Doerksen,
 A. Dreuw, B. D. Dunietz, A. D. Dutoi, T. R. Furlani,
 S. R. Gwaltney, A. Heyden, S. Hirata, C.-P. Hsu, G. Kedziora,
 R. Z. Khaliullin, P. Klunzinger, A. M. Lee, M. S. Lee, W. Liang,
 I. Lotan, N. Nair, B. Peters, E. I. Proynov, P. A. Pieniazek, 
 Y. M. Rhee, J. Ritchie, E. Rosta, C. D. Sherrill, 
 A. C. Simmonett, J. E. Subotnik, H. L. Woodcock III,
 W. Zhang, A. T. Bell, A. K. Chakraborty, D. M. Chipman,
 F. J. Keil, A. Warshel, W. J. Hehre, H. F. Schaefer III,
 J. Kong, A. I. Krylov, P. M. W. Gill, M. Head-Gordon,
 Q-Chem, Version 3.1, Q-Chem, Inc., Pittsburgh, PA (2007).

 Additional authors for Version 3.1: 
 Z. Gan, Y. Zhao, N. E. Schultz, D. Truhlar, E. Epifanovsky and M. Oana.

 Additional authors for Version 3.2: 
 R. Baer, B. R. Brooks, D. Casanova, J.-D. Chai, C.-L. Cheng, 
 C. Cramer, D. Crittenden, A. Ghysels, G. Hawkins, E. G. Hohenstein, 
 C. Kelley, W. Kurlancheek, D. Liotard, E. Livshits, P. Manohar, 
 A. Marenich, D. Neuhauser, R. Olson, M. A. Rohrdanz, K. S. Thanthiriwatte, 
 A. J. W. Thom, V. Vanovschi, C. F. Williams, Q. Wu and Z.-Q. You. 


 Intel X86 Linux Version

 Q-chem begins on Tue Jun  4 15:58:05 2013  

 Parallel job on  1  processors
Processing $rem in /usr/local/qchem/config/preferences.

theFileMan(): MAXOPENFILES=974 MAX_SUB_FILE_NUM=16
Maximum size of a physical file is 2.0 GB, maximum size of a tmp-file is 32.0 GB


--------------------------------------------------------------
User input:
--------------------------------------------------------------

$molecule
-1,2
Si        -0.00000       -0.00000        0.05795
Si         0.00000        0.00000        2.29228
H          1.38673       -0.00000       -0.43020
H         -0.69338       -1.20095       -0.43019
H         -0.69338        1.20095       -0.43019
H         -1.38673       -0.00000        2.78043
H          0.69338       -1.20095        2.78042
H          0.69338        1.20095        2.78042
$end

$comment
negative
$end

$xc_functional
C PBE   1.00
X wPBE  1.00
$end

$rem
SYMMETRY_DECOMPOSITION	0
exchange 		general
LRC_DFT                 true
BASIS                   g3large
omega			340
mem_static              760
max_scf_cycles          200
scf_final_print         1
sym_ignore              true
$end

--------------------------------------------------------------
 Writing REM_CC_EA            8
 ----------------------------------------------------
       Standard Nuclear Orientation (Angstroms)
    I     Atom         X            Y            Z
 ----------------------------------------------------
    1      Si      0.000000     0.000000     0.057950
    2      Si      0.000000     0.000000     2.292280
    3      H       1.386730     0.000000    -0.430200
    4      H      -0.693380    -1.200950    -0.430190
    5      H      -0.693380     1.200950    -0.430190
    6      H      -1.386730     0.000000     2.780430
    7      H       0.693380    -1.200950     2.780420
    8      H       0.693380     1.200950     2.780420
 ----------------------------------------------------
 Nuclear Repulsion Energy =    93.8088899611 hartrees
 There are       18 alpha and       17 beta electrons
 Requested basis set is G3large
 There are 74 shells and 192 basis functions

Total QAlloc Memory Limit   2000 MB
Mega-Array Size       743 MB
MEM_STATIC part       760 MB

                       Distance Matrix (Angstroms)
             Si(  1)   Si(  2)   H (  3)   H (  4)   H (  5)   H (  6)
   Si(  2)  2.234330
   H (  3)  1.470140  3.055310
   H (  4)  1.470149  3.055307  2.401903
   H (  5)  1.470149  3.055307  2.401903  2.401900
   H (  6)  3.055310  1.470140  4.242667  3.497298  3.497298
   H (  7)  3.055307  1.470149  3.497298  3.497302  4.242669  2.401903
   H (  8)  3.055307  1.470149  3.497298  4.242669  3.497302  2.401903
             H (  7)
   H (  8)  2.401900
 
 A cutoff of  1.0D-08 yielded   2559 shell pairs
 There are  17404 function pairs ( 22567 Cartesian)
Evaluating contribution to one-electron hamiltonian from nuclear
 Smallest overlap matrix eigenvalue = 1.65E-04
 Multipole matrices computed through 2nd order

  Scale SEOQF with 1.000000e-01/1.000000e-01/1.000000e-01

 Standard Electronic Orientation quadrupole field applied
 Nucleus-field energy     =    -0.0000000098 hartrees
 Guess from superposition of atomic densities
 Warning:  Energy on first SCF cycle will be non-variational
 Long-range K will be added via erf
 Coulomb attenuation parameter = 0.34 bohr**(-1)
 An unrestricted Kohn-Sham SCF calculation will be
 performed using Pulay DIIS extrapolation
 Exchange:  wPBE + LR-HF      Correlation:  PBE
 Using SG-1 standard quadrature grid
 SCF converges when DIIS error is below 1.0E-05
 Requested basis set is G3large
 There are 74 shells and 192 basis functions
 A cutoff of  1.0D-08 yielded   2559 shell pairs
 There are  17404 function pairs ( 22567 Cartesian)
 Warning!  Inaccurate integrated density:
   Number of electrons =    35
   Numerical integral  =    34.000156064543
   Relative error      =    -2.8566969584 %
 ---------------------------------------
  Cycle       Energy         DIIS Error
 ---------------------------------------
    1    -582.3982546115      2.30E-02
    2    -582.2532126957      1.64E-03
    3    -582.2823369462      7.69E-04
    4    -582.2857706709      1.86E-04
    5    -582.2864230327      6.27E-05
    6    -582.2866277530      2.85E-05
    7    -582.2867248021      1.68E-05
    8    -582.2868188056      1.65E-05
    9    -582.2867976693      1.60E-05
   10    -582.2866825414      1.14E-05
   11    -582.2866508368      6.26E-06 Convergence criterion met
 ---------------------------------------
 One-Electron    Energy =  -999.5050665968
 Total Coulomb   Energy =   367.4360168901
 Alpha Exchange  Energy =    -3.1101212156
 Beta  Exchange  Energy =    -2.9906579793
 DFT   Exchange  Energy =   -36.7024807284
 DFT Correlation Energy =    -1.2232311582
 Nuclear Repu.   Energy =    93.8088899513
 Nuclear Attr.   Energy = -1581.0733921950
 Kinetic         Energy =   581.5683255982
 <S^2> = 0.7551
 SCF time:  CPU 166.64 s  wall 174.78 s
 Final Alpha MO Eigenvalues
            1           2           3           4           5           6
    1 -65.3776450 -65.3776408  -5.0391211  -5.0389485  -3.4443126  -3.4442464
            7           8           9          10          11          12
    1  -3.4435415  -3.4430698  -3.4427597  -3.4423573  -0.5157692  -0.4386864
           13          14          15          16          17          18
    1  -0.2935949  -0.2927683  -0.2619433  -0.2588701  -0.2070832   0.0662822
           19          20          21          22          23
    1   0.1625032   0.1651400   0.1944112   0.1973850   0.2003469
 Final Beta MO Eigenvalues
            1           2           3           4           5           6
    1 -65.3775999 -65.3775958  -5.0389054  -5.0387445  -3.4442595  -3.4442206
            7           8           9          10          11          12
    1  -3.4434679  -3.4427223  -3.4420709  -3.4420111  -0.5067297  -0.4348915
           13          14          15          16          17          18
    1  -0.2893165  -0.2777663  -0.2575118  -0.2474669  -0.1935449   0.1644556
           19          20          21          22
    1   0.1673152   0.1958683   0.1990537   0.2016732
 Analysis of SCF Wavefunction
 
 --------------------------------------------------------------
                    Orbital Energies (a.u.)
 --------------------------------------------------------------
 
 Alpha MOs
 -- Occupied --
-65.378 -65.378  -5.039  -5.039  -3.444  -3.444  -3.444  -3.443
 -3.443  -3.442  -0.516  -0.439  -0.294  -0.293  -0.262  -0.259
 -0.207   0.066
 -- Virtual --
  0.163   0.165   0.194   0.197   0.200   0.201   0.204   0.211
  0.211   0.222   0.227   0.261   0.295   0.297   0.299   0.304
  0.328   0.336   0.362   0.378   0.399   0.402   0.449   0.483
  0.489   0.491   0.492   0.494   0.541   0.543   0.553   0.558
  0.579   0.587   0.589   0.665   0.672   0.678   0.712   0.714
  0.721   0.736   0.755   0.758   0.760   0.883   0.884   0.893
  0.904   0.921   0.923   0.936   0.940   0.944   0.967   0.967
  1.004   1.100   1.101   1.111   1.112   1.146   1.177   1.178
  1.224   1.225   1.229   1.267   1.333   1.372   1.384   1.386
  1.423   1.424   1.473   1.474   1.519   1.519   1.521   1.590
  1.619   1.622   1.624   1.686   1.695   1.696   1.787   1.789
  1.800   1.803   1.888   1.966   2.318   2.347   2.349   2.391
  2.411   2.457   2.457   2.520   2.540   2.541   2.631   2.664
  2.665   2.800   3.102   3.107   3.111   3.116   3.367   3.368
  3.816   3.817   3.880   3.883   3.884   4.051   4.055   4.064
  4.067   4.314   4.327   4.329   4.332   4.335   4.344   4.386
  4.392   4.393   4.418   4.425   4.485   4.486   4.604   4.734
  4.738   4.778   4.833   4.837   6.273   6.418  11.650  11.651
 11.698  11.699  11.769  11.889  17.707  17.748  17.758  17.801
 17.834  17.954  18.010  18.019  18.043  18.076  22.358  22.365
 22.368  22.372  22.376  22.386  22.388  22.393  22.399  22.401
 22.403  22.405  22.418  22.435 141.143 141.323
 
 Beta MOs
 -- Occupied --
-65.378 -65.378  -5.039  -5.039  -3.444  -3.444  -3.443  -3.443
 -3.442  -3.442  -0.507  -0.435  -0.289  -0.278  -0.258  -0.247
 -0.194
 -- Virtual --
  0.164   0.167   0.196   0.199   0.202   0.206   0.207   0.213
  0.215   0.223   0.229   0.231   0.298   0.301   0.304   0.307
  0.315   0.342   0.345   0.365   0.383   0.404   0.405   0.456
  0.488   0.491   0.494   0.498   0.500   0.550   0.552   0.563
  0.568   0.580   0.591   0.597   0.675   0.682   0.685   0.722
  0.726   0.729   0.742   0.760   0.767   0.768   0.890   0.896
  0.896   0.906   0.928   0.930   0.942   0.942   0.947   0.969
  0.973   1.013   1.103   1.104   1.114   1.119   1.149   1.183
  1.191   1.227   1.233   1.238   1.270   1.338   1.379   1.390
  1.391   1.427   1.431   1.479   1.480   1.523   1.526   1.528
  1.596   1.625   1.626   1.633   1.692   1.698   1.706   1.791
  1.798   1.804   1.811   1.895   1.970   2.320   2.347   2.356
  2.396   2.416   2.461   2.465   2.523   2.545   2.547   2.637
  2.665   2.672   2.804   3.105   3.113   3.116   3.125   3.373
  3.374   3.817   3.819   3.881   3.884   3.887   4.053   4.061
  4.066   4.073   4.317   4.330   4.334   4.339   4.344   4.349
  4.389   4.397   4.401   4.421   4.434   4.491   4.493   4.610
  4.736   4.745   4.783   4.835   4.845   6.274   6.420  11.650
 11.653  11.698  11.700  11.770  11.889  17.707  17.749  17.759
 17.801  17.834  17.954  18.011  18.019  18.043  18.076  22.358
 22.366  22.368  22.372  22.376  22.386  22.388  22.393  22.399
 22.401  22.404  22.405  22.419  22.435 141.143 141.323
 --------------------------------------------------------------
 
          Ground-State Mulliken Net Atomic Charges

     Atom                 Charge (a.u.)    Spin (a.u.)
  --------------------------------------------------------
      1 Si                   -0.098678       0.472251
      2 Si                   -0.098702       0.472323
      3 H                    -0.138395       0.013902
      4 H                    -0.141365      -0.006435
      5 H                    -0.121550       0.020249
      6 H                    -0.138405       0.013893
      7 H                    -0.121544       0.020251
      8 H                    -0.141362      -0.006433
  --------------------------------------------------------
  Sum of atomic charges =    -1.000000
  Sum of spin   charges =     1.000000

 -----------------------------------------------------------------
                    Cartesian Multipole Moments
 -----------------------------------------------------------------
    Charge (ESU x 10^10)
                -4.8032
    Dipole Moment (Debye)
         X       0.0000      Y      -0.0002      Z      -5.6445
       Tot       5.6445
    Quadrupole Moments (Debye-Ang)
        XX     -43.6782     XY       2.0279     YY     -43.6258
        XZ       0.0776     YZ       3.3485     ZZ     -58.1109
    Octapole Moments (Debye-Ang^2)
       XXX       0.0001    XXY      -0.0003    XYY       0.0001
       YYY      -0.0007    XXZ     -51.3282    XYZ       2.3827
       YYZ     -51.2660    XZZ       0.1834    YZZ       7.8693
       ZZZ    -189.2733
    Hexadecapole Moments (Debye-Ang^3)
      XXXX    -178.7700   XXXY      -1.8935   XXYY     -59.6564
      XYYY      18.3161   YYYY    -176.7699   XXXZ      14.3672
      XXYZ       8.6701   XYYZ     -13.3083   YYYZ      25.7146
      XXZZ    -196.7097   XYZZ      10.4212   YYZZ    -194.9422
      XZZZ       1.2689   YZZZ      55.9283   ZZZZ    -943.3090
 -----------------------------------------------------------------
 Total job time:  175.09s(wall), 166.88s(cpu) 
 Tue Jun  4 16:01:00 2013

        *************************************************************
        *                                                           *
        *  Thank you very much for using Q-Chem.  Have a nice day.  *
        *                                                           *
        *************************************************************


0 sent ACK to 0 
now end server 0 ... 
 
**********************************************************************
Job 2 of 3 
**********************************************************************
 
Process 0 of 1 is on cl151.stfx.acenet.ca - thread support 1
initial socket setup ...start
initial socket setup ...done 
now start server 0 ... 

cmd = /usr/bin/ssh clhead /usr/local/qchem/bin/get_hostid 319667693 > /scratch/tmp/6028656.1.medium.q/qchem28555/lic.dat
                  Welcome to Q-Chem
     A Quantum Leap Into The Future Of Chemistry

 Y. Shao, L. Fusti-Molnar, Y. Jung, J. Kussmann, C. Ochsenfeld,
 S. T. Brown, A. T. B. Gilbert, L. V. Slipchenko,S. V. Levchenko,
 D. P. O'Neill, R. A. DiStasio Jr., R. C. Lochan, T. Wang,
 G. J. O. Beran, N. A. Besley, J. M. Herbert, C. Y. Lin,
 T. Van Voorhis, S. H. Chien, A. Sodt, R. P. Steele, 
 V. A. Rassolov, P. E. Maslen, P. P. Korambath, R. D. Adamson,
 B. Austin, J. Baker, E. F. C. Byrd, H. Dachsel, R. J. Doerksen,
 A. Dreuw, B. D. Dunietz, A. D. Dutoi, T. R. Furlani,
 S. R. Gwaltney, A. Heyden, S. Hirata, C.-P. Hsu, G. Kedziora,
 R. Z. Khaliullin, P. Klunzinger, A. M. Lee, M. S. Lee, W. Liang,
 I. Lotan, N. Nair, B. Peters, E. I. Proynov, P. A. Pieniazek, 
 Y. M. Rhee, J. Ritchie, E. Rosta, C. D. Sherrill, 
 A. C. Simmonett, J. E. Subotnik, H. L. Woodcock III,
 W. Zhang, A. T. Bell, A. K. Chakraborty, D. M. Chipman,
 F. J. Keil, A. Warshel, W. J. Hehre, H. F. Schaefer III,
 J. Kong, A. I. Krylov, P. M. W. Gill, M. Head-Gordon,
 Q-Chem, Version 3.1, Q-Chem, Inc., Pittsburgh, PA (2007).

 Additional authors for Version 3.1: 
 Z. Gan, Y. Zhao, N. E. Schultz, D. Truhlar, E. Epifanovsky and M. Oana.

 Additional authors for Version 3.2: 
 R. Baer, B. R. Brooks, D. Casanova, J.-D. Chai, C.-L. Cheng, 
 C. Cramer, D. Crittenden, A. Ghysels, G. Hawkins, E. G. Hohenstein, 
 C. Kelley, W. Kurlancheek, D. Liotard, E. Livshits, P. Manohar, 
 A. Marenich, D. Neuhauser, R. Olson, M. A. Rohrdanz, K. S. Thanthiriwatte, 
 A. J. W. Thom, V. Vanovschi, C. F. Williams, Q. Wu and Z.-Q. You. 


 Intel X86 Linux Version

 Q-chem begins on Tue Jun  4 16:01:03 2013  

 Parallel job on  1  processors
Processing $rem in /usr/local/qchem/config/preferences.

theFileMan(): MAXOPENFILES=974 MAX_SUB_FILE_NUM=16
Maximum size of a physical file is 2.0 GB, maximum size of a tmp-file is 32.0 GB


--------------------------------------------------------------
User input:
--------------------------------------------------------------

$molecule
0,1
Si        -0.00000       -0.00000        0.05795
Si         0.00000        0.00000        2.29228
H          1.38673       -0.00000       -0.43020
H         -0.69338       -1.20095       -0.43019
H         -0.69338        1.20095       -0.43019
H         -1.38673       -0.00000        2.78043
H          0.69338       -1.20095        2.78042
H          0.69338        1.20095        2.78042
$end

$comment
neutral
$end

$xc_functional
C PBE   1.00
X wPBE  1.00
$end


$rem
SYMMETRY_DECOMPOSITION	0
LRC_DFT                 true
exchange 		general
BASIS                   g3large
omega			340
mem_static              760
max_scf_cycles          200
scf_final_print         1
sym_ignore              true
$end

--------------------------------------------------------------
 Writing REM_CC_EA            8
 ----------------------------------------------------
       Standard Nuclear Orientation (Angstroms)
    I     Atom         X            Y            Z
 ----------------------------------------------------
    1      Si      0.000000     0.000000     0.057950
    2      Si      0.000000     0.000000     2.292280
    3      H       1.386730     0.000000    -0.430200
    4      H      -0.693380    -1.200950    -0.430190
    5      H      -0.693380     1.200950    -0.430190
    6      H      -1.386730     0.000000     2.780430
    7      H       0.693380    -1.200950     2.780420
    8      H       0.693380     1.200950     2.780420
 ----------------------------------------------------
 Nuclear Repulsion Energy =    93.8088899611 hartrees
 There are       17 alpha and       17 beta electrons
 Requested basis set is G3large
 There are 74 shells and 192 basis functions

Total QAlloc Memory Limit   2000 MB
Mega-Array Size       743 MB
MEM_STATIC part       760 MB

                       Distance Matrix (Angstroms)
             Si(  1)   Si(  2)   H (  3)   H (  4)   H (  5)   H (  6)
   Si(  2)  2.234330
   H (  3)  1.470140  3.055310
   H (  4)  1.470149  3.055307  2.401903
   H (  5)  1.470149  3.055307  2.401903  2.401900
   H (  6)  3.055310  1.470140  4.242667  3.497298  3.497298
   H (  7)  3.055307  1.470149  3.497298  3.497302  4.242669  2.401903
   H (  8)  3.055307  1.470149  3.497298  4.242669  3.497302  2.401903
             H (  7)
   H (  8)  2.401900
 
 A cutoff of  1.0D-08 yielded   2559 shell pairs
 There are  17404 function pairs ( 22567 Cartesian)
Evaluating contribution to one-electron hamiltonian from nuclear
 Smallest overlap matrix eigenvalue = 1.65E-04
 Multipole matrices computed through 2nd order

  Scale SEOQF with 1.000000e-01/1.000000e-01/1.000000e-01

 Standard Electronic Orientation quadrupole field applied
 Nucleus-field energy     =    -0.0000000098 hartrees
 Guess from superposition of atomic densities
 Warning:  Energy on first SCF cycle will be non-variational
 Long-range K will be added via erf
 Coulomb attenuation parameter = 0.34 bohr**(-1)
 A restricted Kohn-Sham SCF calculation will be
 performed using Pulay DIIS extrapolation
 Exchange:  wPBE + LR-HF      Correlation:  PBE
 Using SG-1 standard quadrature grid
 SCF converges when DIIS error is below 1.0E-05
 Requested basis set is G3large
 There are 74 shells and 192 basis functions
 A cutoff of  1.0D-08 yielded   2559 shell pairs
 There are  17404 function pairs ( 22567 Cartesian)
 ---------------------------------------
  Cycle       Energy         DIIS Error
 ---------------------------------------
    1    -582.3982546115      2.30E-02
    2    -582.3367044411      1.52E-03
    3    -582.3582647135      3.66E-04
    4    -582.3593929261      1.14E-04
    5    -582.3595339172      4.12E-05
    6    -582.3595457328      8.33E-06 Convergence criterion met
 ---------------------------------------
 One-Electron    Energy =  -993.0329332713
 Total Coulomb   Energy =   360.7106902357
 Alpha Exchange  Energy =    -2.9971243877
 Beta  Exchange  Energy =    -2.9971243877
 DFT   Exchange  Energy =   -36.6525814596
 DFT Correlation Energy =    -1.1993624136
 Nuclear Repu.   Energy =    93.8088899513
 Nuclear Attr.   Energy = -1574.4968103848
 Kinetic         Energy =   581.4638771135
 SCF time:  CPU 71.64 s  wall 76.83 s
 Final Alpha MO Eigenvalues
            1           2           3           4           5           6
    1 -65.5703631 -65.5703592  -5.2349048  -5.2347374  -3.6393630  -3.6390182
            7           8           9          10          11          12
    1  -3.6390017  -3.6389119  -3.6388959  -3.6383643  -0.7088946  -0.6268587
           13          14          15          16          17          18
    1  -0.4774325  -0.4773975  -0.4426752  -0.4426579  -0.3975781   0.0423893
           19          20          21          22
    1   0.0512127   0.0750907   0.0750953   0.0768378
 Analysis of SCF Wavefunction
 
 --------------------------------------------------------------
                    Orbital Energies (a.u.)
 --------------------------------------------------------------
 
 Alpha MOs
 -- Occupied --
-65.570 -65.570  -5.235  -5.235  -3.639  -3.639  -3.639  -3.639
 -3.639  -3.638  -0.709  -0.627  -0.477  -0.477  -0.443  -0.443
 -0.398
 -- Virtual --
  0.042   0.051   0.075   0.075   0.077   0.077   0.080   0.080
  0.080   0.098   0.098   0.105   0.150   0.150   0.150   0.157
  0.169   0.179   0.179   0.219   0.225   0.232   0.232   0.300
  0.332   0.332   0.333   0.341   0.341   0.390   0.390   0.396
  0.396   0.423   0.441   0.441   0.492   0.509   0.518   0.546
  0.546   0.553   0.566   0.587   0.587   0.588   0.713   0.713
  0.728   0.731   0.751   0.751   0.760   0.775   0.775   0.790
  0.790   0.836   0.920   0.920   0.937   0.938   0.975   0.998
  0.998   1.049   1.049   1.054   1.080   1.161   1.197   1.210
  1.210   1.244   1.244   1.298   1.298   1.342   1.342   1.347
  1.415   1.439   1.439   1.446   1.507   1.511   1.511   1.610
  1.610   1.624   1.624   1.696   1.784   2.122   2.153   2.153
  2.196   2.216   2.265   2.265   2.326   2.348   2.348   2.442
  2.469   2.469   2.607   2.919   2.920   2.929   2.929   3.182
  3.183   3.620   3.621   3.685   3.687   3.688   3.863   3.865
  3.875   3.877   4.129   4.144   4.144   4.147   4.147   4.159
  4.203   4.203   4.204   4.236   4.236   4.298   4.301   4.417
  4.546   4.547   4.587   4.644   4.645   6.077   6.224  11.456
 11.456  11.504  11.504  11.574  11.695  17.511  17.553  17.563
 17.605  17.638  17.759  17.815  17.823  17.847  17.881  22.162
 22.170  22.172  22.176  22.180  22.191  22.192  22.197  22.203
 22.205  22.207  22.209  22.223  22.239 140.950 141.130
 --------------------------------------------------------------
 
          Ground-State Mulliken Net Atomic Charges

     Atom                 Charge (a.u.)
  ----------------------------------------
      1 Si                    0.214949
      2 Si                    0.214929
      3 H                    -0.071547
      4 H                    -0.071781
      5 H                    -0.071613
      6 H                    -0.071549
      7 H                    -0.071609
      8 H                    -0.071779
  ----------------------------------------
  Sum of atomic charges =     0.000000

 -----------------------------------------------------------------
                    Cartesian Multipole Moments
 -----------------------------------------------------------------
    Charge (ESU x 10^10)
                 0.0000
    Dipole Moment (Debye)
         X       0.0000      Y       0.0000      Z       0.0000
       Tot       0.0000
    Quadrupole Moments (Debye-Ang)
        XX     -30.8463     XY      -0.0005     YY     -30.8480
        XZ      -0.0010     YZ      -0.0006     ZZ     -31.6198
    Octapole Moments (Debye-Ang^2)
       XXX       0.0000    XXY       0.0000    XYY       0.0000
       YYY       0.0000    XXZ     -36.2479    XYZ      -0.0006
       YYZ     -36.2500    XZZ      -0.0023    YZZ      -0.0015
       ZZZ    -111.4709
    Hexadecapole Moments (Debye-Ang^3)
      XXXX     -81.1726   XXXY      -0.0023   XXYY     -27.0595
      XYYY      -0.0033   YYYY     -81.1819   XXXZ       1.0839
      XXYZ      -0.0016   XYYZ      -1.0899   YYYZ      -0.0045
      XXZZ    -113.2852   XYZZ      -0.0064   YYZZ    -113.2931
      XZZZ      -0.0077   YZZZ      -0.0064   ZZZZ    -585.6262
 -----------------------------------------------------------------
 Total job time:  77.07s(wall), 71.86s(cpu) 
 Tue Jun  4 16:02:20 2013

        *************************************************************
        *                                                           *
        *  Thank you very much for using Q-Chem.  Have a nice day.  *
        *                                                           *
        *************************************************************


0 sent ACK to 0 
now end server 0 ... 
 
**********************************************************************
Job 3 of 3 
**********************************************************************
 
Process 0 of 1 is on cl151.stfx.acenet.ca - thread support 1
initial socket setup ...start
initial socket setup ...done 
now start server 0 ... 

cmd = /usr/bin/ssh clhead /usr/local/qchem/bin/get_hostid 1754442436 > /scratch/tmp/6028656.1.medium.q/qchem28555/lic.dat
                  Welcome to Q-Chem
     A Quantum Leap Into The Future Of Chemistry

 Y. Shao, L. Fusti-Molnar, Y. Jung, J. Kussmann, C. Ochsenfeld,
 S. T. Brown, A. T. B. Gilbert, L. V. Slipchenko,S. V. Levchenko,
 D. P. O'Neill, R. A. DiStasio Jr., R. C. Lochan, T. Wang,
 G. J. O. Beran, N. A. Besley, J. M. Herbert, C. Y. Lin,
 T. Van Voorhis, S. H. Chien, A. Sodt, R. P. Steele, 
 V. A. Rassolov, P. E. Maslen, P. P. Korambath, R. D. Adamson,
 B. Austin, J. Baker, E. F. C. Byrd, H. Dachsel, R. J. Doerksen,
 A. Dreuw, B. D. Dunietz, A. D. Dutoi, T. R. Furlani,
 S. R. Gwaltney, A. Heyden, S. Hirata, C.-P. Hsu, G. Kedziora,
 R. Z. Khaliullin, P. Klunzinger, A. M. Lee, M. S. Lee, W. Liang,
 I. Lotan, N. Nair, B. Peters, E. I. Proynov, P. A. Pieniazek, 
 Y. M. Rhee, J. Ritchie, E. Rosta, C. D. Sherrill, 
 A. C. Simmonett, J. E. Subotnik, H. L. Woodcock III,
 W. Zhang, A. T. Bell, A. K. Chakraborty, D. M. Chipman,
 F. J. Keil, A. Warshel, W. J. Hehre, H. F. Schaefer III,
 J. Kong, A. I. Krylov, P. M. W. Gill, M. Head-Gordon,
 Q-Chem, Version 3.1, Q-Chem, Inc., Pittsburgh, PA (2007).

 Additional authors for Version 3.1: 
 Z. Gan, Y. Zhao, N. E. Schultz, D. Truhlar, E. Epifanovsky and M. Oana.

 Additional authors for Version 3.2: 
 R. Baer, B. R. Brooks, D. Casanova, J.-D. Chai, C.-L. Cheng, 
 C. Cramer, D. Crittenden, A. Ghysels, G. Hawkins, E. G. Hohenstein, 
 C. Kelley, W. Kurlancheek, D. Liotard, E. Livshits, P. Manohar, 
 A. Marenich, D. Neuhauser, R. Olson, M. A. Rohrdanz, K. S. Thanthiriwatte, 
 A. J. W. Thom, V. Vanovschi, C. F. Williams, Q. Wu and Z.-Q. You. 


 Intel X86 Linux Version

 Q-chem begins on Tue Jun  4 16:02:23 2013  

 Parallel job on  1  processors
Processing $rem in /usr/local/qchem/config/preferences.

theFileMan(): MAXOPENFILES=974 MAX_SUB_FILE_NUM=16
Maximum size of a physical file is 2.0 GB, maximum size of a tmp-file is 32.0 GB


--------------------------------------------------------------
User input:
--------------------------------------------------------------

$molecule
1,2
Si        -0.00000       -0.00000        0.05795
Si         0.00000        0.00000        2.29228
H          1.38673       -0.00000       -0.43020
H         -0.69338       -1.20095       -0.43019
H         -0.69338        1.20095       -0.43019
H         -1.38673       -0.00000        2.78043
H          0.69338       -1.20095        2.78042
H          0.69338        1.20095        2.78042
$end

$comment
positive
$end

$xc_functional
C PBE   1.00
X wPBE  1.00
$end

$rem
SYMMETRY_DECOMPOSITION	0
LRC_DFT                 true
exchange 		general
BASIS                   g3large
omega			340
mem_static              760
max_scf_cycles          200
scf_final_print         1
sym_ignore              true
$end

--------------------------------------------------------------
 Writing REM_CC_EA            8
 ----------------------------------------------------
       Standard Nuclear Orientation (Angstroms)
    I     Atom         X            Y            Z
 ----------------------------------------------------
    1      Si      0.000000     0.000000     0.057950
    2      Si      0.000000     0.000000     2.292280
    3      H       1.386730     0.000000    -0.430200
    4      H      -0.693380    -1.200950    -0.430190
    5      H      -0.693380     1.200950    -0.430190
    6      H      -1.386730     0.000000     2.780430
    7      H       0.693380    -1.200950     2.780420
    8      H       0.693380     1.200950     2.780420
 ----------------------------------------------------
 Nuclear Repulsion Energy =    93.8088899611 hartrees
 There are       17 alpha and       16 beta electrons
 Requested basis set is G3large
 There are 74 shells and 192 basis functions

Total QAlloc Memory Limit   2000 MB
Mega-Array Size       743 MB
MEM_STATIC part       760 MB

                       Distance Matrix (Angstroms)
             Si(  1)   Si(  2)   H (  3)   H (  4)   H (  5)   H (  6)
   Si(  2)  2.234330
   H (  3)  1.470140  3.055310
   H (  4)  1.470149  3.055307  2.401903
   H (  5)  1.470149  3.055307  2.401903  2.401900
   H (  6)  3.055310  1.470140  4.242667  3.497298  3.497298
   H (  7)  3.055307  1.470149  3.497298  3.497302  4.242669  2.401903
   H (  8)  3.055307  1.470149  3.497298  4.242669  3.497302  2.401903
             H (  7)
   H (  8)  2.401900
 
 A cutoff of  1.0D-08 yielded   2559 shell pairs
 There are  17404 function pairs ( 22567 Cartesian)
Evaluating contribution to one-electron hamiltonian from nuclear
 Smallest overlap matrix eigenvalue = 1.65E-04
 Multipole matrices computed through 2nd order

  Scale SEOQF with 1.000000e-01/1.000000e-01/1.000000e-01

 Standard Electronic Orientation quadrupole field applied
 Nucleus-field energy     =    -0.0000000098 hartrees
 Guess from superposition of atomic densities
 Warning:  Energy on first SCF cycle will be non-variational
 Long-range K will be added via erf
 Coulomb attenuation parameter = 0.34 bohr**(-1)
 An unrestricted Kohn-Sham SCF calculation will be
 performed using Pulay DIIS extrapolation
 Exchange:  wPBE + LR-HF      Correlation:  PBE
 Using SG-1 standard quadrature grid
 SCF converges when DIIS error is below 1.0E-05
 Requested basis set is G3large
 There are 74 shells and 192 basis functions
 A cutoff of  1.0D-08 yielded   2559 shell pairs
 There are  17404 function pairs ( 22567 Cartesian)
 Warning!  Inaccurate integrated density:
   Number of electrons =    33
   Numerical integral  =    34.000156064543
   Relative error      =     3.0307759532 %
 ---------------------------------------
  Cycle       Energy         DIIS Error
 ---------------------------------------
    1    -582.3982546115      2.30E-02
    2    -581.8982013175      2.63E-03
    3    -581.9580323386      1.32E-03
    4    -581.9660045773      2.72E-04
    5    -581.9665411780      6.31E-05
    6    -581.9666512080      1.82E-05
    7    -581.9666763070      9.39E-06 Convergence criterion met
 ---------------------------------------
 One-Electron    Energy =  -984.3667801040
 Total Coulomb   Energy =   352.1364330932
 Alpha Exchange  Energy =    -3.0072646180
 Beta  Exchange  Energy =    -2.8362401901
 DFT   Exchange  Energy =   -36.5389767145
 DFT Correlation Energy =    -1.1627377249
 Nuclear Repu.   Energy =    93.8088899513
 Nuclear Attr.   Energy = -1565.6018571309
 Kinetic         Energy =   581.2350770269
 <S^2> = 0.7549
 SCF time:  CPU 107.34 s  wall 112.61 s
 Final Alpha MO Eigenvalues
            1           2           3           4           5           6
    1 -65.8381479 -65.8381438  -5.5014721  -5.5012850  -3.9131398  -3.9120536
            7           8           9          10          11          12
    1  -3.9025538  -3.9025496  -3.9024493  -3.9024452  -0.9767567  -0.8640801
           13          14          15          16          17          18
    1  -0.7108062  -0.7101064  -0.6797397  -0.6706720  -0.6696038  -0.1458500
           19          20          21          22
    1  -0.1454977  -0.1148845  -0.1103196  -0.0894578
 Final Beta MO Eigenvalues
            1           2           3           4           5           6
    1 -65.8365237 -65.8365204  -5.4996410  -5.4994744  -3.9072387  -3.9061747
            7           8           9          10          11          12
    1  -3.9018600  -3.9018310  -3.9017628  -3.9017342  -0.9365397  -0.8386789
           13          14          15          16          17          18
    1  -0.7020173  -0.7018500  -0.6610264  -0.6609630  -0.3861799  -0.1241648
           19          20          21
    1  -0.1239695  -0.1078200  -0.0946057
 Analysis of SCF Wavefunction
 
 --------------------------------------------------------------
                    Orbital Energies (a.u.)
 --------------------------------------------------------------
 
 Alpha MOs
 -- Occupied --
-65.838 -65.838  -5.501  -5.501  -3.913  -3.912  -3.903  -3.903
 -3.902  -3.902  -0.977  -0.864  -0.711  -0.710  -0.680  -0.671
 -0.670
 -- Virtual --
 -0.146  -0.145  -0.115  -0.110  -0.089  -0.089  -0.063  -0.059
 -0.059  -0.059  -0.028  -0.028  -0.005   0.006   0.009   0.009
  0.016   0.016   0.034   0.040   0.040   0.059   0.061   0.114
  0.154   0.154   0.158   0.158   0.162   0.198   0.198   0.220
  0.220   0.247   0.274   0.274   0.290   0.308   0.330   0.347
  0.347   0.358   0.368   0.379   0.379   0.388   0.505   0.505
  0.513   0.532   0.548   0.548   0.554   0.576   0.576   0.579
  0.579   0.636   0.699   0.699   0.729   0.729   0.767   0.777
  0.777   0.825   0.834   0.835   0.846   0.955   0.978   1.006
  1.006   1.026   1.026   1.092   1.092   1.126   1.126   1.146
  1.204   1.213   1.213   1.239   1.282   1.282   1.285   1.392
  1.392   1.406   1.407   1.437   1.552   1.856   1.888   1.888
  1.955   1.975   2.012   2.012   2.080   2.095   2.095   2.203
  2.204   2.204   2.342   2.692   2.693   2.704   2.705   2.955
  2.957   3.357   3.358   3.416   3.425   3.427   3.621   3.622
  3.633   3.635   3.902   3.918   3.919   3.922   3.924   3.932
  3.955   3.974   3.976   4.009   4.010   4.067   4.076   4.186
  4.307   4.307   4.339   4.403   4.403   5.813   5.968  11.195
 11.195  11.243  11.243  11.301  11.423  17.239  17.288  17.298
 17.338  17.372  17.493  17.548  17.551  17.584  17.616  21.893
 21.902  21.903  21.915  21.918  21.923  21.925  21.932  21.937
 21.939  21.940  21.942  21.960  21.972 140.683 140.862
 
 Beta MOs
 -- Occupied --
-65.837 -65.837  -5.500  -5.499  -3.907  -3.906  -3.902  -3.902
 -3.902  -3.902  -0.937  -0.839  -0.702  -0.702  -0.661  -0.661
 -- Virtual --
 -0.386  -0.124  -0.124  -0.108  -0.095  -0.088  -0.088  -0.058
 -0.058  -0.055  -0.049  -0.027  -0.027   0.002   0.011   0.015
  0.015   0.017   0.017   0.035   0.043   0.043   0.062   0.065
  0.130   0.157   0.157   0.163   0.163   0.170   0.202   0.202
  0.223   0.223   0.254   0.277   0.278   0.290   0.318   0.340
  0.352   0.352   0.361   0.373   0.389   0.391   0.391   0.513
  0.513   0.524   0.543   0.552   0.552   0.558   0.583   0.583
  0.584   0.584   0.641   0.704   0.704   0.732   0.732   0.775
  0.783   0.783   0.842   0.842   0.851   0.852   0.961   0.991
  1.009   1.009   1.034   1.034   1.096   1.096   1.135   1.135
  1.150   1.211   1.217   1.217   1.245   1.286   1.286   1.295
  1.398   1.398   1.412   1.412   1.460   1.562   1.881   1.917
  1.917   1.955   1.975   2.027   2.027   2.085   2.108   2.108
  2.207   2.229   2.229   2.368   2.701   2.701   2.712   2.712
  2.963   2.965   3.362   3.363   3.428   3.430   3.431   3.625
  3.627   3.637   3.639   3.910   3.926   3.926   3.930   3.931
  3.940   3.966   3.983   3.984   4.017   4.018   4.077   4.084
  4.193   4.315   4.316   4.351   4.411   4.412   5.820   5.972
 11.196  11.196  11.244  11.244  11.311  11.434  17.245  17.289
 17.300  17.341  17.374  17.495  17.551  17.557  17.585  17.618
 21.895  21.904  21.905  21.915  21.918  21.925  21.926  21.934
 21.938  21.940  21.942  21.943  21.961  21.974 140.685 140.864
 --------------------------------------------------------------
 
          Ground-State Mulliken Net Atomic Charges

     Atom                 Charge (a.u.)    Spin (a.u.)
  --------------------------------------------------------
      1 Si                    0.386627       0.378146
      2 Si                    0.386686       0.378130
      3 H                     0.037269       0.036089
      4 H                     0.038138       0.043408
      5 H                     0.037945       0.042366
      6 H                     0.037263       0.036092
      7 H                     0.037942       0.042366
      8 H                     0.038130       0.043402
  --------------------------------------------------------
  Sum of atomic charges =     1.000000
  Sum of spin   charges =     1.000000

 -----------------------------------------------------------------
                    Cartesian Multipole Moments
 -----------------------------------------------------------------
    Charge (ESU x 10^10)
                 4.8032
    Dipole Moment (Debye)
         X       0.0000      Y       0.0000      Z       5.6443
       Tot       5.6443
    Quadrupole Moments (Debye-Ang)
        XX     -25.0282     XY       0.0032     YY     -24.9863
        XZ       0.0719     YZ       0.0107     ZZ      -8.7162
    Octapole Moments (Debye-Ang^2)
       XXX       0.0000    XXY       0.0000    XYY       0.0000
       YYY       0.0000    XXZ     -29.4110    XYZ       0.0038
       YYZ     -29.3617    XZZ       0.1689    YZZ       0.0252
       ZZZ     -46.3160
    Hexadecapole Moments (Debye-Ang^3)
      XXXX     -60.8306   XXXY       0.0055   XXYY     -20.2489
      XYYY       0.0066   YYYY     -60.6824   XXXZ      -3.1453
      XXYZ       0.0071   XYYZ       3.3229   YYYZ       0.0212
      XXZZ     -83.8216   XYZZ       0.0161   YYZZ     -83.6171
      XZZZ       0.6306   YZZZ       0.0939   ZZZZ    -345.3461
 -----------------------------------------------------------------
 Total job time:  112.86s(wall), 107.56s(cpu) 
 Tue Jun  4 16:04:15 2013

        *************************************************************
        *                                                           *
        *  Thank you very much for using Q-Chem.  Have a nice day.  *
        *                                                           *
        *************************************************************


0 sent ACK to 0 
now end server 0 ... 
