Process 0 of 1 is on cl248.stfx.acenet.ca - thread support 1
initial socket setup ...start
initial socket setup ...done 
now start server 0 ... 

cmd = /usr/bin/ssh clhead /usr/local/qchem/bin/get_hostid 802602125 > /globalscratch/itamblyn/bnl/g297_b3lyp_neut_g03Large_worked/g2g71095/omega440/qchem4413/lic.dat
                  Welcome to Q-Chem
     A Quantum Leap Into The Future Of Chemistry

 Y. Shao, L. Fusti-Molnar, Y. Jung, J. Kussmann, C. Ochsenfeld,
 S. T. Brown, A. T. B. Gilbert, L. V. Slipchenko,S. V. Levchenko,
 D. P. O'Neill, R. A. DiStasio Jr., R. C. Lochan, T. Wang,
 G. J. O. Beran, N. A. Besley, J. M. Herbert, C. Y. Lin,
 T. Van Voorhis, S. H. Chien, A. Sodt, R. P. Steele, 
 V. A. Rassolov, P. E. Maslen, P. P. Korambath, R. D. Adamson,
 B. Austin, J. Baker, E. F. C. Byrd, H. Dachsel, R. J. Doerksen,
 A. Dreuw, B. D. Dunietz, A. D. Dutoi, T. R. Furlani,
 S. R. Gwaltney, A. Heyden, S. Hirata, C.-P. Hsu, G. Kedziora,
 R. Z. Khaliullin, P. Klunzinger, A. M. Lee, M. S. Lee, W. Liang,
 I. Lotan, N. Nair, B. Peters, E. I. Proynov, P. A. Pieniazek, 
 Y. M. Rhee, J. Ritchie, E. Rosta, C. D. Sherrill, 
 A. C. Simmonett, J. E. Subotnik, H. L. Woodcock III,
 W. Zhang, A. T. Bell, A. K. Chakraborty, D. M. Chipman,
 F. J. Keil, A. Warshel, W. J. Hehre, H. F. Schaefer III,
 J. Kong, A. I. Krylov, P. M. W. Gill, M. Head-Gordon,
 Q-Chem, Version 3.1, Q-Chem, Inc., Pittsburgh, PA (2007).

 Additional authors for Version 3.1: 
 Z. Gan, Y. Zhao, N. E. Schultz, D. Truhlar, E. Epifanovsky and M. Oana.

 Additional authors for Version 3.2: 
 R. Baer, B. R. Brooks, D. Casanova, J.-D. Chai, C.-L. Cheng, 
 C. Cramer, D. Crittenden, A. Ghysels, G. Hawkins, E. G. Hohenstein, 
 C. Kelley, W. Kurlancheek, D. Liotard, E. Livshits, P. Manohar, 
 A. Marenich, D. Neuhauser, R. Olson, M. A. Rohrdanz, K. S. Thanthiriwatte, 
 A. J. W. Thom, V. Vanovschi, C. F. Williams, Q. Wu and Z.-Q. You. 


 Intel X86 Linux Version

 Q-chem begins on Fri Apr 15 16:04:32 2011  

 Parallel job on  1  processors
Processing $rem in /usr/local/qchem/config/preferences.

theFileMan(): MAXOPENFILES=974 MAX_SUB_FILE_NUM=16
Maximum size of a physical file is 2.0 GB, maximum size of a tmp-file is 32.0 GB


--------------------------------------------------------------
User input:
--------------------------------------------------------------

$molecule
-1,2
C
H,1,R
Cl,1,R1,2,A
Cl,1,R1,2,A,3,120.,0
Cl,1,R1,2,A,3,-120.,0

R=1.08553635
R1=1.78773686
A=107.50826708

$end

$comment
negative
$end

$xc_functional
   X HF 1.0
   X BNL 1.0
   C LYP 1.0
$end

$rem
SYMMETRY_DECOMPOSITION	0
exchange 		general
BASIS                   g3large
omega			440
separate_jk		true
mem_static              760
max_scf_cycles          200
scf_final_print         1
sym_ignore              true
$end

--------------------------------------------------------------
 Writing REM_CC_EA            5
 ----------------------------------------------------
       Standard Nuclear Orientation (Angstroms)
    I     Atom         X            Y            Z
 ----------------------------------------------------
    1      C       0.000000     0.000000     0.000000
    2      H       0.000000     0.000000     1.085536
    3      Cl      1.704917     0.000000    -0.537829
    4      Cl     -0.852459    -1.476502    -0.537829
    5      Cl     -0.852459     1.476502    -0.537829
 ----------------------------------------------------
 Nuclear Repulsion Energy =   260.3321865543 hartrees
 There are       30 alpha and       29 beta electrons
 Requested basis set is G3large
 There are 73 shells and 250 basis functions

Total QAlloc Memory Limit   2000 MB
Mega-Array Size       743 MB
MEM_STATIC part       760 MB

                       Distance Matrix (Angstroms)
             C (  1)   H (  2)   Cl(  3)   Cl(  4)
   H (  2)  1.085536
   Cl(  3)  1.787737  2.354158
   Cl(  4)  1.787737  2.354158  2.953003
   Cl(  5)  1.787737  2.354158  2.953003  2.953003
 
 A cutoff of  1.0D-08 yielded   2236 shell pairs
 There are  26872 function pairs ( 37270 Cartesian)
Evaluating contribution to one-electron hamiltonian from nuclear
 Smallest overlap matrix eigenvalue = 9.07E-05

 Q-Chem warning in module mkSTV.C, line 194:

 Overlap eigenvalue is smaller than square root of threshold

 Multipole matrices computed through 2nd order

  Scale SEOQF with 1.000000e-01/1.000000e-01/1.000000e-01

 Standard Electronic Orientation quadrupole field applied
 Nucleus-field energy     =     0.0000000062 hartrees
 Guess from superposition of atomic densities
 Warning:  Energy on first SCF cycle will be non-variational
 An unrestricted hybrid HF-DFT SCF calculation will be
 performed using Pulay DIIS extrapolation
 Exchange:     1.0000 Hartree-Fock + 1.0000 BNL
 Correlation:  1.0000 LYP
 Using SG-1 standard quadrature grid
 SCF converges when DIIS error is below 1.0E-05
 Warning!  Inaccurate integrated density:
   Number of electrons =    59
   Numerical integral  =    57.999919144246
   Relative error      =    -1.6950522979 %
 ---------------------------------------
  Cycle       Energy         DIIS Error
 ---------------------------------------
    1   -1413.8594701230      2.32E-02
    2   -1413.2054556176      2.56E-03
    3   -1413.2370241868      2.32E-03
    4   -1413.2695408034      3.68E-04
    5   -1413.2709045416      1.71E-04
    6   -1413.2713321965      6.52E-05
    7   -1413.2714848187      2.58E-05
    8   -1413.2715559500      1.93E-05
    9   -1413.2716141019      1.54E-05
   10   -1413.2716887638      1.28E-05
   11   -1413.2717881611      9.74E-06 Convergence criterion met
 ---------------------------------------
 One-Electron    Energy = -2487.4220491610
 Total Coulomb   Energy =   898.3365898231
 Alpha Exchange  Energy =    -6.6621163124
 Beta  Exchange  Energy =    -6.5077531035
 DFT   Exchange  Energy =   -68.9620359030
 DFT Correlation Energy =    -2.3866100648
 Nuclear Repu.   Energy =   260.3321865605
 Nuclear Attr.   Energy = -3898.7061782779
 Kinetic         Energy =  1411.2841291169
 <S^2> = 0.7547
 SCF time:  CPU 327.31 s  wall 345.93 s
 Final Alpha MO Eigenvalues
            1           2           3           4           5           6
    1-100.3334780-100.3334189-100.3332691  -9.9512766  -9.1875002  -9.1874357
            7           8           9          10          11          12
    1  -9.1872740  -7.0392655  -7.0392590  -7.0391054  -7.0297087  -7.0295882
           13          14          15          16          17          18
    1  -7.0295777  -7.0295256  -7.0294167  -7.0293637  -0.9045618  -0.8003445
           19          20          21          22          23          24
    1  -0.8002546  -0.6065378  -0.4487753  -0.4089214  -0.4089003  -0.2923702
           25          26          27          28          29          30
    1  -0.2923420  -0.2624081  -0.2623651  -0.2550131  -0.2412336   0.0186280
           31          32          33          34          35
    1   0.1623833   0.2040824   0.2041127   0.2157104   0.2490780
 Final Beta MO Eigenvalues
            1           2           3           4           5           6
    1-100.3326013-100.3325435-100.3323849  -9.9406311  -9.1865013  -9.1864391
            7           8           9          10          11          12
    1  -9.1862666  -7.0373670  -7.0372958  -7.0371920  -7.0289824  -7.0287954
           13          14          15          16          17          18
    1  -7.0287777  -7.0287074  -7.0286254  -7.0285364  -0.8947677  -0.7939670
           19          20          21          22          23          24
    1  -0.7938492  -0.5932606  -0.4308638  -0.3965740  -0.3965525  -0.2882592
           25          26          27          28          29          30
    1  -0.2882395  -0.2554408  -0.2553690  -0.2506123  -0.2383737   0.1538546
           31          32          33          34
    1   0.1922553   0.2002978   0.2003402   0.2403563
 Analysis of SCF Wavefunction
 
 --------------------------------------------------------------
                    Orbital Energies (a.u.)
 --------------------------------------------------------------
 
 Alpha MOs
 -- Occupied --
*******-100.333-100.333  -9.951  -9.188  -9.187  -9.187  -7.039
 -7.039  -7.039  -7.030  -7.030  -7.030  -7.030  -7.029  -7.029
 -0.905  -0.800  -0.800  -0.607  -0.449  -0.409  -0.409  -0.292
 -0.292  -0.262  -0.262  -0.255  -0.241   0.019
 -- Virtual --
  0.162   0.204   0.204   0.216   0.249   0.249   0.265   0.266
  0.266   0.297   0.297   0.299   0.308   0.317   0.317   0.324
  0.351   0.370   0.370   0.476   0.516   0.516   0.545   0.545
  0.560   0.599   0.610   0.614   0.614   0.620   0.621   0.652
  0.677   0.677   0.681   0.724   0.725   0.725   0.755   0.755
  0.788   0.825   0.825   0.843   0.928   0.963   0.963   0.979
  1.106   1.155   1.155   1.187   1.187   1.239   1.286   1.286
  1.326   1.326   1.333   1.364   1.379   1.379   1.386   1.391
  1.396   1.396   1.408   1.408   1.432   1.442   1.442   1.442
  1.491   1.491   1.493   1.565   1.565   1.654   1.672   1.672
  1.716   1.733   1.734   1.741   1.767   1.845   1.845   1.909
  1.909   1.961   1.989   1.990   2.008   2.033   2.033   2.148
  2.470   2.472   2.472   2.512   2.558   2.558   2.598   2.598
  2.824   2.990   3.297   3.297   3.432   3.495   3.495   3.633
  3.641   3.687   3.687   3.763   3.904   3.904   4.068   4.068
  4.185   4.547   4.547   4.620   4.620   4.638   4.651   4.651
  4.660   4.670   4.699   4.699   4.724   4.724   4.726   4.787
  4.787   4.819   4.860   4.860   4.890   4.904   4.930   4.931
  5.311   5.322   5.322   5.338   5.339   5.345   5.420   5.494
  5.495   5.516   5.517   5.598   5.725   6.021   6.022   6.059
 10.081  10.081  10.106  20.785  20.786  20.796  20.802  20.831
 20.831  21.046  21.046  21.123  24.219  27.338  27.348  27.357
 27.362  27.411  27.411  27.439  27.443  27.446  27.449  27.478
 27.490  27.492  27.525  27.563  28.206  28.215  28.255  37.079
 37.080  37.080  37.082  37.082  37.082  37.085  37.087  37.088
 37.091  37.092  37.094  37.095  37.098  37.103  37.105  37.106
 37.110  37.112  37.114  37.117  41.026  41.075  41.347  41.350
 41.366 216.549 216.549 216.604
 
 Beta MOs
 -- Occupied --
*******-100.333-100.332  -9.941  -9.187  -9.186  -9.186  -7.037
 -7.037  -7.037  -7.029  -7.029  -7.029  -7.029  -7.029  -7.029
 -0.895  -0.794  -0.794  -0.593  -0.431  -0.397  -0.397  -0.288
 -0.288  -0.255  -0.255  -0.251  -0.238
 -- Virtual --
  0.154   0.192   0.200   0.200   0.240   0.251   0.251   0.261
  0.261   0.280   0.292   0.292   0.295   0.308   0.328   0.333
  0.333   0.354   0.366   0.366   0.473   0.519   0.519   0.549
  0.549   0.560   0.601   0.611   0.616   0.616   0.624   0.625
  0.656   0.677   0.678   0.685   0.725   0.725   0.726   0.755
  0.755   0.796   0.831   0.831   0.841   0.930   0.967   0.967
  0.989   1.111   1.157   1.157   1.191   1.191   1.241   1.289
  1.289   1.329   1.329   1.335   1.366   1.382   1.382   1.388
  1.393   1.398   1.398   1.410   1.410   1.435   1.446   1.446
  1.447   1.494   1.494   1.495   1.567   1.567   1.656   1.675
  1.675   1.718   1.736   1.736   1.744   1.771   1.849   1.849
  1.913   1.913   1.966   1.992   1.992   2.014   2.037   2.037
  2.152   2.472   2.474   2.474   2.515   2.560   2.560   2.603
  2.603   2.830   2.994   3.307   3.307   3.443   3.507   3.507
  3.639   3.652   3.694   3.694   3.771   3.921   3.921   4.079
  4.080   4.198   4.550   4.550   4.623   4.624   4.642   4.655
  4.655   4.664   4.673   4.703   4.703   4.728   4.728   4.731
  4.793   4.793   4.825   4.865   4.865   4.895   4.910   4.936
  4.936   5.313   5.323   5.323   5.340   5.340   5.347   5.424
  5.497   5.497   5.518   5.520   5.601   5.731   6.025   6.025
  6.063  10.083  10.083  10.108  20.786  20.787  20.797  20.803
 20.832  20.832  21.048  21.049  21.126  24.233  27.339  27.350
 27.358  27.364  27.413  27.414  27.440  27.444  27.447  27.450
 27.480  27.493  27.494  27.527  27.565  28.213  28.221  28.266
 37.080  37.080  37.081  37.082  37.083  37.083  37.085  37.088
 37.088  37.092  37.092  37.095  37.096  37.099  37.104  37.106
 37.107  37.111  37.113  37.115  37.118  41.030  41.082  41.352
 41.355  41.369 216.550 216.550 216.605
 --------------------------------------------------------------
 
          Ground-State Mulliken Net Atomic Charges

     Atom                 Charge (a.u.)    Spin (a.u.)
  --------------------------------------------------------
      1 C                     1.699156      -0.961925
      2 H                    -0.528791       0.605627
      3 Cl                   -0.723106       0.451538
      4 Cl                   -0.724448       0.453459
      5 Cl                   -0.722812       0.451301
  --------------------------------------------------------
  Sum of atomic charges =    -1.000000
  Sum of spin   charges =     1.000000

 -----------------------------------------------------------------
                    Cartesian Multipole Moments
 -----------------------------------------------------------------
    Charge (ESU x 10^10)
                -4.8032
    Dipole Moment (Debye)
         X       0.0040      Y       0.0062      Z       1.4484
       Tot       1.4484
    Quadrupole Moments (Debye-Ang)
        XX     -60.4861     XY      -0.0149     YY     -60.5017
        XZ      -0.0052     YZ      -0.0108     ZZ     -55.6951
    Octapole Moments (Debye-Ang^2)
       XXX      -9.1203    XXY       0.0227    XYY       9.1657
       YYY       0.0677    XXZ      23.0085    XYZ       0.0119
       YYZ      23.0210    XZZ       0.0070    YZZ       0.0040
       ZZZ      47.9956
    Hexadecapole Moments (Debye-Ang^3)
      XXXX    -492.3045   XXXY      -0.0865   XXYY    -164.1522
      XYYY      -0.1344   YYYY    -492.5298   XXXZ       5.2552
      XXYZ      -0.0305   XYYZ      -5.3132   YYYZ      -0.0913
      XXZZ    -115.0713   XYZZ      -0.0265   YYZZ    -115.1012
      XZZZ      -0.0225   YZZZ      -0.0553   ZZZZ    -225.6172
 -----------------------------------------------------------------
 Total job time:  349.36s(wall), 327.72s(cpu) 
 Fri Apr 15 16:10:21 2011

        *************************************************************
        *                                                           *
        *  Thank you very much for using Q-Chem.  Have a nice day.  *
        *                                                           *
        *************************************************************


0 sent ACK to 0 
now end server 0 ... 
 
**********************************************************************
Job 2 of 3 
**********************************************************************
 
Process 0 of 1 is on cl248.stfx.acenet.ca - thread support 1
initial socket setup ...start
initial socket setup ...done 
now start server 0 ... 

cmd = /usr/bin/ssh clhead /usr/local/qchem/bin/get_hostid 1128999613 > /globalscratch/itamblyn/bnl/g297_b3lyp_neut_g03Large_worked/g2g71095/omega440/qchem4413/lic.dat
                  Welcome to Q-Chem
     A Quantum Leap Into The Future Of Chemistry

 Y. Shao, L. Fusti-Molnar, Y. Jung, J. Kussmann, C. Ochsenfeld,
 S. T. Brown, A. T. B. Gilbert, L. V. Slipchenko,S. V. Levchenko,
 D. P. O'Neill, R. A. DiStasio Jr., R. C. Lochan, T. Wang,
 G. J. O. Beran, N. A. Besley, J. M. Herbert, C. Y. Lin,
 T. Van Voorhis, S. H. Chien, A. Sodt, R. P. Steele, 
 V. A. Rassolov, P. E. Maslen, P. P. Korambath, R. D. Adamson,
 B. Austin, J. Baker, E. F. C. Byrd, H. Dachsel, R. J. Doerksen,
 A. Dreuw, B. D. Dunietz, A. D. Dutoi, T. R. Furlani,
 S. R. Gwaltney, A. Heyden, S. Hirata, C.-P. Hsu, G. Kedziora,
 R. Z. Khaliullin, P. Klunzinger, A. M. Lee, M. S. Lee, W. Liang,
 I. Lotan, N. Nair, B. Peters, E. I. Proynov, P. A. Pieniazek, 
 Y. M. Rhee, J. Ritchie, E. Rosta, C. D. Sherrill, 
 A. C. Simmonett, J. E. Subotnik, H. L. Woodcock III,
 W. Zhang, A. T. Bell, A. K. Chakraborty, D. M. Chipman,
 F. J. Keil, A. Warshel, W. J. Hehre, H. F. Schaefer III,
 J. Kong, A. I. Krylov, P. M. W. Gill, M. Head-Gordon,
 Q-Chem, Version 3.1, Q-Chem, Inc., Pittsburgh, PA (2007).

 Additional authors for Version 3.1: 
 Z. Gan, Y. Zhao, N. E. Schultz, D. Truhlar, E. Epifanovsky and M. Oana.

 Additional authors for Version 3.2: 
 R. Baer, B. R. Brooks, D. Casanova, J.-D. Chai, C.-L. Cheng, 
 C. Cramer, D. Crittenden, A. Ghysels, G. Hawkins, E. G. Hohenstein, 
 C. Kelley, W. Kurlancheek, D. Liotard, E. Livshits, P. Manohar, 
 A. Marenich, D. Neuhauser, R. Olson, M. A. Rohrdanz, K. S. Thanthiriwatte, 
 A. J. W. Thom, V. Vanovschi, C. F. Williams, Q. Wu and Z.-Q. You. 


 Intel X86 Linux Version

 Q-chem begins on Fri Apr 15 16:10:24 2011  

 Parallel job on  1  processors
Processing $rem in /usr/local/qchem/config/preferences.

theFileMan(): MAXOPENFILES=974 MAX_SUB_FILE_NUM=16
Maximum size of a physical file is 2.0 GB, maximum size of a tmp-file is 32.0 GB


--------------------------------------------------------------
User input:
--------------------------------------------------------------

$molecule
0,1
C
H,1,R
Cl,1,R1,2,A
Cl,1,R1,2,A,3,120.,0
Cl,1,R1,2,A,3,-120.,0

R=1.08553635
R1=1.78773686
A=107.50826708

$end

$comment
neutral
$end

$xc_functional
   X HF 1.0
   X BNL 1.0
   C LYP 1.0
$end

$rem
SYMMETRY_DECOMPOSITION	0
exchange 		general
BASIS                   g3large
omega			440
separate_jk		true
mem_static              760
max_scf_cycles          200
scf_final_print         1
sym_ignore              true
$end

--------------------------------------------------------------
 Writing REM_CC_EA            5
 ----------------------------------------------------
       Standard Nuclear Orientation (Angstroms)
    I     Atom         X            Y            Z
 ----------------------------------------------------
    1      C       0.000000     0.000000     0.000000
    2      H       0.000000     0.000000     1.085536
    3      Cl      1.704917     0.000000    -0.537829
    4      Cl     -0.852459    -1.476502    -0.537829
    5      Cl     -0.852459     1.476502    -0.537829
 ----------------------------------------------------
 Nuclear Repulsion Energy =   260.3321865543 hartrees
 There are       29 alpha and       29 beta electrons
 Requested basis set is G3large
 There are 73 shells and 250 basis functions

Total QAlloc Memory Limit   2000 MB
Mega-Array Size       743 MB
MEM_STATIC part       760 MB

                       Distance Matrix (Angstroms)
             C (  1)   H (  2)   Cl(  3)   Cl(  4)
   H (  2)  1.085536
   Cl(  3)  1.787737  2.354158
   Cl(  4)  1.787737  2.354158  2.953003
   Cl(  5)  1.787737  2.354158  2.953003  2.953003
 
 A cutoff of  1.0D-08 yielded   2236 shell pairs
 There are  26872 function pairs ( 37270 Cartesian)
Evaluating contribution to one-electron hamiltonian from nuclear
 Smallest overlap matrix eigenvalue = 9.07E-05

 Q-Chem warning in module mkSTV.C, line 194:

 Overlap eigenvalue is smaller than square root of threshold

 Multipole matrices computed through 2nd order

  Scale SEOQF with 1.000000e-01/1.000000e-01/1.000000e-01

 Standard Electronic Orientation quadrupole field applied
 Nucleus-field energy     =     0.0000000062 hartrees
 Guess from superposition of atomic densities
 Warning:  Energy on first SCF cycle will be non-variational
 A restricted hybrid HF-DFT SCF calculation will be
 performed using Pulay DIIS extrapolation
 Exchange:     1.0000 Hartree-Fock + 1.0000 BNL
 Correlation:  1.0000 LYP
 Using SG-1 standard quadrature grid
 SCF converges when DIIS error is below 1.0E-05
 ---------------------------------------
  Cycle       Energy         DIIS Error
 ---------------------------------------
    1   -1413.8594701230      2.32E-02
    2   -1413.1853695722      3.67E-03
    3   -1413.1760012030      4.45E-03
    4   -1413.2987895066      2.83E-04
    5   -1413.2998512922      1.12E-04
    6   -1413.3000457705      3.97E-05
    7   -1413.3000734149      1.21E-05
    8   -1413.3000758567      3.62E-06 Convergence criterion met
 ---------------------------------------
 One-Electron    Energy = -2475.4420575943
 Total Coulomb   Energy =   886.0805648026
 Alpha Exchange  Energy =    -6.5233171041
 Beta  Exchange  Energy =    -6.5233171041
 DFT   Exchange  Energy =   -68.8620476842
 DFT Correlation Energy =    -2.3620877331
 Nuclear Repu.   Energy =   260.3321865605
 Nuclear Attr.   Energy = -3886.1249166254
 Kinetic         Energy =  1410.6828590311
 SCF time:  CPU 192.21 s  wall 209.49 s
 Final Alpha MO Eigenvalues
            1           2           3           4           5           6
    1-100.5411231-100.5410940-100.5410122 -10.1943336  -9.3948122  -9.3947678
            7           8           9          10          11          12
    1  -9.3946957  -7.2482099  -7.2481376  -7.2480913  -7.2362062  -7.2360397
           13          14          15          16          17          18
    1  -7.2360174  -7.2359666  -7.2359364  -7.2358619  -1.1089647  -1.0012238
           19          20          21          22          23          24
    1  -1.0011971  -0.8002089  -0.6475226  -0.6069481  -0.6069288  -0.4875444
           25          26          27          28          29          30
    1  -0.4875317  -0.4562847  -0.4562689  -0.4500936  -0.4379187   0.0311378
           31          32          33          34
    1   0.0406713   0.0667285   0.0667431   0.0859539
 Analysis of SCF Wavefunction
 
 --------------------------------------------------------------
                    Orbital Energies (a.u.)
 --------------------------------------------------------------
 
 Alpha MOs
 -- Occupied --
*******-100.541-100.541 -10.194  -9.395  -9.395  -9.395  -7.248
 -7.248  -7.248  -7.236  -7.236  -7.236  -7.236  -7.236  -7.236
 -1.109  -1.001  -1.001  -0.800  -0.648  -0.607  -0.607  -0.488
 -0.488  -0.456  -0.456  -0.450  -0.438
 -- Virtual --
  0.031   0.041   0.067   0.067   0.086   0.103   0.103   0.127
  0.127   0.134   0.145   0.145   0.167   0.169   0.173   0.173
  0.180   0.190   0.217   0.217   0.312   0.330   0.330   0.366
  0.366   0.383   0.425   0.426   0.434   0.435   0.442   0.442
  0.492   0.504   0.513   0.513   0.550   0.550   0.552   0.580
  0.580   0.611   0.640   0.640   0.661   0.748   0.776   0.776
  0.793   0.917   0.963   0.963   0.994   0.994   1.047   1.095
  1.095   1.134   1.134   1.142   1.178   1.189   1.189   1.195
  1.199   1.206   1.206   1.218   1.218   1.242   1.248   1.250
  1.250   1.301   1.301   1.305   1.373   1.373   1.462   1.480
  1.480   1.527   1.541   1.541   1.554   1.572   1.650   1.650
  1.718   1.718   1.770   1.798   1.799   1.813   1.837   1.837
  1.951   2.279   2.279   2.279   2.317   2.364   2.364   2.396
  2.396   2.622   2.791   3.089   3.089   3.223   3.286   3.286
  3.426   3.431   3.477   3.478   3.557   3.694   3.694   3.859
  3.859   3.978   4.345   4.345   4.419   4.419   4.438   4.450
  4.450   4.459   4.470   4.499   4.499   4.523   4.523   4.525
  4.584   4.584   4.616   4.658   4.658   4.687   4.700   4.727
  4.727   5.109   5.120   5.120   5.136   5.136   5.143   5.215
  5.289   5.290   5.310   5.311   5.394   5.520   5.814   5.815
  5.852   9.876   9.876   9.902  20.580  20.580  20.590  20.597
 20.625  20.626  20.838  20.838  20.915  23.980  27.131  27.139
 27.151  27.153  27.198  27.202  27.230  27.237  27.240  27.243
 27.270  27.281  27.285  27.317  27.352  27.974  27.983  28.018
 36.871  36.873  36.873  36.875  36.875  36.876  36.878  36.881
 36.881  36.884  36.885  36.887  36.887  36.890  36.895  36.897
 36.898  36.901  36.904  36.905  36.909  40.786  40.834  41.105
 41.108  41.124 216.341 216.341 216.397
 --------------------------------------------------------------
 
          Ground-State Mulliken Net Atomic Charges

     Atom                 Charge (a.u.)
  ----------------------------------------
      1 C                     0.511212
      2 H                     0.110496
      3 Cl                   -0.207462
      4 Cl                   -0.206987
      5 Cl                   -0.207258
  ----------------------------------------
  Sum of atomic charges =     0.000000

 -----------------------------------------------------------------
                    Cartesian Multipole Moments
 -----------------------------------------------------------------
    Charge (ESU x 10^10)
                 0.0000
    Dipole Moment (Debye)
         X       0.0009      Y      -0.0007      Z       1.1399
       Tot       1.1399
    Quadrupole Moments (Debye-Ang)
        XX     -44.7268     XY      -0.0001     YY     -44.7278
        XZ      -0.0008     YZ       0.0004     ZZ     -43.5762
    Octapole Moments (Debye-Ang^2)
       XXX       3.9975    XXY      -0.0012    XYY      -3.9937
       YYY      -0.0036    XXZ      17.3514    XYZ       0.0005
       YYZ      17.3496    XZZ       0.0007    YZZ       0.0000
       ZZZ      62.0273
    Hexadecapole Moments (Debye-Ang^3)
      XXXX    -365.3169   XXXY      -0.0054   XXYY    -121.7795
      XYYY       0.0018   YYYY    -365.3309   XXXZ      -5.8440
      XXYZ       0.0006   XYYZ       5.8416   YYYZ       0.0018
      XXZZ     -82.5570   XYZZ      -0.0011   YYZZ     -82.5550
      XZZZ      -0.0017   YZZZ      -0.0002   ZZZZ    -121.6706
 -----------------------------------------------------------------
 Total job time:  212.65s(wall), 192.63s(cpu) 
 Fri Apr 15 16:13:57 2011

        *************************************************************
        *                                                           *
        *  Thank you very much for using Q-Chem.  Have a nice day.  *
        *                                                           *
        *************************************************************


0 sent ACK to 0 
now end server 0 ... 
 
**********************************************************************
Job 3 of 3 
**********************************************************************
 
Process 0 of 1 is on cl248.stfx.acenet.ca - thread support 1
initial socket setup ...start
initial socket setup ...done 
now start server 0 ... 

cmd = /usr/bin/ssh clhead /usr/local/qchem/bin/get_hostid 2002322942 > /globalscratch/itamblyn/bnl/g297_b3lyp_neut_g03Large_worked/g2g71095/omega440/qchem4413/lic.dat
                  Welcome to Q-Chem
     A Quantum Leap Into The Future Of Chemistry

 Y. Shao, L. Fusti-Molnar, Y. Jung, J. Kussmann, C. Ochsenfeld,
 S. T. Brown, A. T. B. Gilbert, L. V. Slipchenko,S. V. Levchenko,
 D. P. O'Neill, R. A. DiStasio Jr., R. C. Lochan, T. Wang,
 G. J. O. Beran, N. A. Besley, J. M. Herbert, C. Y. Lin,
 T. Van Voorhis, S. H. Chien, A. Sodt, R. P. Steele, 
 V. A. Rassolov, P. E. Maslen, P. P. Korambath, R. D. Adamson,
 B. Austin, J. Baker, E. F. C. Byrd, H. Dachsel, R. J. Doerksen,
 A. Dreuw, B. D. Dunietz, A. D. Dutoi, T. R. Furlani,
 S. R. Gwaltney, A. Heyden, S. Hirata, C.-P. Hsu, G. Kedziora,
 R. Z. Khaliullin, P. Klunzinger, A. M. Lee, M. S. Lee, W. Liang,
 I. Lotan, N. Nair, B. Peters, E. I. Proynov, P. A. Pieniazek, 
 Y. M. Rhee, J. Ritchie, E. Rosta, C. D. Sherrill, 
 A. C. Simmonett, J. E. Subotnik, H. L. Woodcock III,
 W. Zhang, A. T. Bell, A. K. Chakraborty, D. M. Chipman,
 F. J. Keil, A. Warshel, W. J. Hehre, H. F. Schaefer III,
 J. Kong, A. I. Krylov, P. M. W. Gill, M. Head-Gordon,
 Q-Chem, Version 3.1, Q-Chem, Inc., Pittsburgh, PA (2007).

 Additional authors for Version 3.1: 
 Z. Gan, Y. Zhao, N. E. Schultz, D. Truhlar, E. Epifanovsky and M. Oana.

 Additional authors for Version 3.2: 
 R. Baer, B. R. Brooks, D. Casanova, J.-D. Chai, C.-L. Cheng, 
 C. Cramer, D. Crittenden, A. Ghysels, G. Hawkins, E. G. Hohenstein, 
 C. Kelley, W. Kurlancheek, D. Liotard, E. Livshits, P. Manohar, 
 A. Marenich, D. Neuhauser, R. Olson, M. A. Rohrdanz, K. S. Thanthiriwatte, 
 A. J. W. Thom, V. Vanovschi, C. F. Williams, Q. Wu and Z.-Q. You. 


 Intel X86 Linux Version

 Q-chem begins on Fri Apr 15 16:14:01 2011  

 Parallel job on  1  processors
Processing $rem in /usr/local/qchem/config/preferences.

theFileMan(): MAXOPENFILES=974 MAX_SUB_FILE_NUM=16
Maximum size of a physical file is 2.0 GB, maximum size of a tmp-file is 32.0 GB


--------------------------------------------------------------
User input:
--------------------------------------------------------------

$molecule
1,2
C
H,1,R
Cl,1,R1,2,A
Cl,1,R1,2,A,3,120.,0
Cl,1,R1,2,A,3,-120.,0

R=1.08553635
R1=1.78773686
A=107.50826708

$end

$comment
positive
$end

$xc_functional
   X HF 1.0
   X BNL 1.0
   C LYP 1.0
$end

$rem
SYMMETRY_DECOMPOSITION	0
exchange 		general
BASIS                   g3large
omega			440
separate_jk		true
mem_static              760
max_scf_cycles          200
scf_final_print         1
sym_ignore              true
$end

--------------------------------------------------------------
 Writing REM_CC_EA            5
 ----------------------------------------------------
       Standard Nuclear Orientation (Angstroms)
    I     Atom         X            Y            Z
 ----------------------------------------------------
    1      C       0.000000     0.000000     0.000000
    2      H       0.000000     0.000000     1.085536
    3      Cl      1.704917     0.000000    -0.537829
    4      Cl     -0.852459    -1.476502    -0.537829
    5      Cl     -0.852459     1.476502    -0.537829
 ----------------------------------------------------
 Nuclear Repulsion Energy =   260.3321865543 hartrees
 There are       29 alpha and       28 beta electrons
 Requested basis set is G3large
 There are 73 shells and 250 basis functions

Total QAlloc Memory Limit   2000 MB
Mega-Array Size       743 MB
MEM_STATIC part       760 MB

                       Distance Matrix (Angstroms)
             C (  1)   H (  2)   Cl(  3)   Cl(  4)
   H (  2)  1.085536
   Cl(  3)  1.787737  2.354158
   Cl(  4)  1.787737  2.354158  2.953003
   Cl(  5)  1.787737  2.354158  2.953003  2.953003
 
 A cutoff of  1.0D-08 yielded   2236 shell pairs
 There are  26872 function pairs ( 37270 Cartesian)
Evaluating contribution to one-electron hamiltonian from nuclear
 Smallest overlap matrix eigenvalue = 9.07E-05

 Q-Chem warning in module mkSTV.C, line 194:

 Overlap eigenvalue is smaller than square root of threshold

 Multipole matrices computed through 2nd order

  Scale SEOQF with 1.000000e-01/1.000000e-01/1.000000e-01

 Standard Electronic Orientation quadrupole field applied
 Nucleus-field energy     =     0.0000000062 hartrees
 Guess from superposition of atomic densities
 Warning:  Energy on first SCF cycle will be non-variational
 An unrestricted hybrid HF-DFT SCF calculation will be
 performed using Pulay DIIS extrapolation
 Exchange:     1.0000 Hartree-Fock + 1.0000 BNL
 Correlation:  1.0000 LYP
 Using SG-1 standard quadrature grid
 SCF converges when DIIS error is below 1.0E-05
 Warning!  Inaccurate integrated density:
   Number of electrons =    57
   Numerical integral  =    57.999919144246
   Relative error      =     1.7542441127 %
 ---------------------------------------
  Cycle       Energy         DIIS Error
 ---------------------------------------
    1   -1413.8594701230      2.32E-02
    2   -1412.6605133955      4.53E-03
    3   -1412.6636798532      5.47E-03
    4   -1412.8567197965      4.79E-04
    5   -1412.8588896365      2.04E-04
    6   -1412.8596320054      6.87E-05
    7   -1412.8599707480      4.30E-05
    8   -1412.8602457069      3.92E-05
    9   -1412.8605071604      3.48E-05
   10   -1412.8609895735      3.47E-05
   11   -1412.8613917999      3.38E-05
   12   -1412.8618064456      2.83E-05
   13   -1412.8625540270      2.77E-05
   14   -1412.8627541332      2.11E-05
   15   -1412.8632025240      2.95E-05
   16   -1412.8632399334      2.46E-05
   17   -1412.8634913052      7.75E-05
   18   -1412.8635198523      5.44E-05
   19   -1412.8635594353      6.33E-05
   20   -1412.8635982546      5.26E-05
   21   -1412.8636259952      4.65E-05
   22   -1412.8636566273      3.94E-05
   23   -1412.8636720930      3.40E-05
   24   -1412.8636933889      1.85E-05
   25   -1412.8637091376      1.24E-05
   26   -1412.8637252825      1.01E-05
   27   -1412.8637243789      7.31E-06 Convergence criterion met
 ---------------------------------------
 One-Electron    Energy = -2461.0071300615
 Total Coulomb   Energy =   871.6739640515
 Alpha Exchange  Energy =    -6.5455881152
 Beta  Exchange  Energy =    -6.2766306012
 DFT   Exchange  Energy =   -68.7117559549
 DFT Correlation Energy =    -2.3287702582
 Nuclear Repu.   Energy =   260.3321865605
 Nuclear Attr.   Energy = -3871.1885763525
 Kinetic         Energy =  1410.1814462910
 <S^2> = 0.7595
 SCF time:  CPU 771.79 s  wall 837.92 s
 Final Alpha MO Eigenvalues
            1           2           3           4           5           6
    1-100.8128207-100.8096663-100.7968257 -10.4210667  -9.6626559  -9.6596033
            7           8           9          10          11          12
    1  -9.6471562  -7.5140088  -7.5112151  -7.5111167  -7.5077580  -7.5012673
           13          14          15          16          17          18
    1  -7.4990347  -7.4983738  -7.4943698  -7.4861560  -1.3510271  -1.2544289
           19          20          21          22          23          24
    1  -1.2462999  -1.0326743  -0.8753044  -0.8471462  -0.8452746  -0.7387541
           25          26          27          28          29          30
    1  -0.7350714  -0.7030862  -0.6958786  -0.6942118  -0.6807790  -0.1795452
           31          32          33          34
    1  -0.1340149  -0.1318266  -0.1097569  -0.0656869
 Final Beta MO Eigenvalues
            1           2           3           4           5           6
    1-100.8097454-100.8067113-100.7943855 -10.4214078  -9.6594904  -9.6565609
            7           8           9          10          11          12
    1  -9.6446437  -7.5115865  -7.5087670  -7.5041265  -7.5010075  -7.4990630
           13          14          15          16          17          18
    1  -7.4973630  -7.4962137  -7.4884711  -7.4844234  -1.3421392  -1.2338842
           19          20          21          22          23          24
    1  -1.2288099  -1.0240642  -0.8723858  -0.8341896  -0.8292584  -0.7063022
           25          26          27          28          29          30
    1  -0.6989251  -0.6756397  -0.6557062  -0.6549658  -0.4364796  -0.1755869
           31          32          33
    1  -0.1287236  -0.1264834  -0.1093253
 Analysis of SCF Wavefunction
 
 --------------------------------------------------------------
                    Orbital Energies (a.u.)
 --------------------------------------------------------------
 
 Alpha MOs
 -- Occupied --
*******-100.810-100.797 -10.421  -9.663  -9.660  -9.647  -7.514
 -7.511  -7.511  -7.508  -7.501  -7.499  -7.498  -7.494  -7.486
 -1.351  -1.254  -1.246  -1.033  -0.875  -0.847  -0.845  -0.739
 -0.735  -0.703  -0.696  -0.694  -0.681
 -- Virtual --
 -0.180  -0.134  -0.132  -0.110  -0.066  -0.057  -0.056  -0.023
 -0.023  -0.022  -0.008  -0.008   0.015   0.021   0.023   0.025
  0.029   0.032   0.047   0.048   0.110   0.111   0.136   0.160
  0.161   0.183   0.203   0.218   0.221   0.241   0.242   0.244
  0.291   0.314   0.333   0.335   0.350   0.350   0.359   0.377
  0.378   0.410   0.427   0.430   0.480   0.531   0.570   0.573
  0.579   0.707   0.745   0.747   0.774   0.774   0.830   0.868
  0.868   0.908   0.908   0.920   0.955   0.957   0.958   0.962
  0.963   0.971   0.975   0.994   0.994   1.013   1.020   1.022
  1.024   1.072   1.076   1.077   1.151   1.154   1.232   1.250
  1.254   1.319   1.320   1.324   1.347   1.355   1.428   1.429
  1.493   1.497   1.551   1.570   1.574   1.594   1.613   1.616
  1.713   2.032   2.043   2.044   2.087   2.127   2.129   2.164
  2.169   2.392   2.573   2.865   2.865   2.996   3.060   3.062
  3.196   3.212   3.246   3.249   3.331   3.468   3.469   3.631
  3.631   3.759   4.111   4.114   4.158   4.165   4.178   4.193
  4.194   4.204   4.208   4.242   4.244   4.270   4.277   4.281
  4.335   4.337   4.373   4.406   4.408   4.432   4.454   4.484
  4.489   4.848   4.857   4.864   4.874   4.884   4.888   4.970
  5.033   5.037   5.059   5.061   5.137   5.301   5.563   5.569
  5.609   9.615   9.623   9.648  20.314  20.316  20.325  20.338
 20.364  20.364  20.575  20.584  20.657  23.753  26.872  26.877
 26.883  26.895  26.939  26.945  26.965  26.969  26.974  26.986
 27.012  27.021  27.022  27.061  27.095  27.740  27.746  27.789
 36.605  36.607  36.609  36.609  36.612  36.612  36.615  36.616
 36.621  36.624  36.624  36.625  36.629  36.632  36.634  36.638
 36.638  36.640  36.647  36.650  36.651  40.558  40.608  40.879
 40.882  40.897 216.072 216.081 216.133
 
 Beta MOs
 -- Occupied --
*******-100.807-100.794 -10.421  -9.659  -9.657  -9.645  -7.512
 -7.509  -7.504  -7.501  -7.499  -7.497  -7.496  -7.488  -7.484
 -1.342  -1.234  -1.229  -1.024  -0.872  -0.834  -0.829  -0.706
 -0.699  -0.676  -0.656  -0.655
 -- Virtual --
 -0.436  -0.176  -0.129  -0.126  -0.109  -0.065  -0.055  -0.055
 -0.022  -0.022  -0.021  -0.007  -0.006   0.015   0.022   0.024
  0.025   0.032   0.032   0.052   0.052   0.122   0.122   0.138
  0.168   0.169   0.188   0.219   0.228   0.230   0.243   0.246
  0.247   0.306   0.315   0.335   0.338   0.357   0.357   0.361
  0.385   0.386   0.413   0.432   0.435   0.480   0.542   0.572
  0.574   0.582   0.709   0.749   0.750   0.777   0.778   0.834
  0.876   0.877   0.914   0.914   0.925   0.964   0.966   0.967
  0.972   0.972   0.982   0.985   1.000   1.000   1.022   1.026
  1.029   1.030   1.079   1.084   1.087   1.156   1.159   1.240
  1.258   1.261   1.324   1.325   1.328   1.349   1.357   1.431
  1.433   1.499   1.502   1.554   1.579   1.582   1.596   1.616
  1.618   1.722   2.047   2.052   2.053   2.091   2.136   2.138
  2.167   2.172   2.395   2.575   2.865   2.865   2.996   3.060
  3.062   3.197   3.212   3.248   3.251   3.332   3.468   3.468
  3.632   3.632   3.759   4.120   4.122   4.175   4.180   4.195
  4.208   4.209   4.219   4.228   4.258   4.259   4.282   4.286
  4.289   4.345   4.347   4.379   4.417   4.418   4.445   4.460
  4.492   4.496   4.858   4.866   4.872   4.883   4.891   4.895
  4.972   5.040   5.042   5.063   5.064   5.146   5.302   5.568
  5.573   5.612   9.622   9.629   9.654  20.320  20.322  20.333
 20.341  20.369  20.370  20.579  20.586  20.660  23.753  26.877
 26.882  26.889  26.899  26.942  26.948  26.970  26.975  26.979
 26.991  27.015  27.024  27.025  27.066  27.097  27.741  27.747
 27.789  36.607  36.609  36.611  36.612  36.614  36.615  36.618
 36.619  36.624  36.626  36.626  36.627  36.631  36.634  36.635
 36.639  36.640  36.641  36.648  36.651  36.653  40.558  40.608
 40.878  40.881  40.896 216.075 216.084 216.136
 --------------------------------------------------------------
 
          Ground-State Mulliken Net Atomic Charges

     Atom                 Charge (a.u.)    Spin (a.u.)
  --------------------------------------------------------
      1 C                     0.492812      -0.026707
      2 H                     0.154464       0.001916
      3 Cl                    0.089461       0.294115
      4 Cl                    0.124676       0.355263
      5 Cl                    0.138586       0.375413
  --------------------------------------------------------
  Sum of atomic charges =     1.000000
  Sum of spin   charges =     1.000000

 -----------------------------------------------------------------
                    Cartesian Multipole Moments
 -----------------------------------------------------------------
    Charge (ESU x 10^10)
                 4.8032
    Dipole Moment (Debye)
         X      -0.2825      Y       0.0857      Z      -1.1383
       Tot       1.1760
    Quadrupole Moments (Debye-Ang)
        XX     -32.3979     XY      -0.0910     YY     -31.7093
        XZ       0.1782     YZ      -0.0498     ZZ     -38.7764
    Octapole Moments (Debye-Ang^2)
       XXX       9.0515    XXY       0.0915    XYY     -10.2325
       YYY       0.2637    XXZ      11.1158    XYZ       0.0327
       YYZ      10.9390    XZZ      -0.2416    YZZ       0.0630
       ZZZ      56.9114
    Hexadecapole Moments (Debye-Ang^3)
      XXXX    -301.9041   XXXY      -0.3521   XXYY    -100.5846
      XYYY      -0.1643   YYYY    -297.7246   XXXZ      -8.0637
      XXYZ      -0.0869   XYYZ       8.7074   YYYZ      -0.1003
      XXZZ     -71.1622   XYZZ      -0.0510   YYZZ     -70.8080
      XZZZ       0.3166   YZZZ      -0.0779   ZZZZ    -107.0701
 -----------------------------------------------------------------
 Total job time:  840.07s(wall), 772.22s(cpu) 
 Fri Apr 15 16:28:01 2011

        *************************************************************
        *                                                           *
        *  Thank you very much for using Q-Chem.  Have a nice day.  *
        *                                                           *
        *************************************************************


0 sent ACK to 0 
now end server 0 ... 
