Process 0 of 1 is on cl134 - thread support 1
initial socket setup ...start
initial socket setup ...done 
now start server 0 ... 

cmd = /usr/bin/ssh clhead /usr/local/qchem/bin/get_hostid 672197465 > /tmp/1591968.1.medium.q/qchem9271/lic.dat

cmd = /usr/bin/ssh clhead /usr/local/qchem/bin/get_hostid 672197465 > /tmp/1591968.1.medium.q/qchem9271/lic.dat

cmd = /usr/bin/ssh clhead /usr/local/qchem/bin/get_hostid 672197465 > /tmp/1591968.1.medium.q/qchem9271/lic.dat

cmd = /usr/bin/ssh clhead /usr/local/qchem/bin/get_hostid 672197465 > /tmp/1591968.1.medium.q/qchem9271/lic.dat

cmd = /usr/bin/ssh clhead /usr/local/qchem/bin/get_hostid 672197465 > /tmp/1591968.1.medium.q/qchem9271/lic.dat
                  Welcome to Q-Chem
     A Quantum Leap Into The Future Of Chemistry

 Y. Shao, L. Fusti-Molnar, Y. Jung, J. Kussmann, C. Ochsenfeld,
 S. T. Brown, A. T. B. Gilbert, L. V. Slipchenko,S. V. Levchenko,
 D. P. O'Neill, R. A. DiStasio Jr., R. C. Lochan, T. Wang,
 G. J. O. Beran, N. A. Besley, J. M. Herbert, C. Y. Lin,
 T. Van Voorhis, S. H. Chien, A. Sodt, R. P. Steele, 
 V. A. Rassolov, P. E. Maslen, P. P. Korambath, R. D. Adamson,
 B. Austin, J. Baker, E. F. C. Byrd, H. Dachsel, R. J. Doerksen,
 A. Dreuw, B. D. Dunietz, A. D. Dutoi, T. R. Furlani,
 S. R. Gwaltney, A. Heyden, S. Hirata, C.-P. Hsu, G. Kedziora,
 R. Z. Khaliullin, P. Klunzinger, A. M. Lee, M. S. Lee, W. Liang,
 I. Lotan, N. Nair, B. Peters, E. I. Proynov, P. A. Pieniazek, 
 Y. M. Rhee, J. Ritchie, E. Rosta, C. D. Sherrill, 
 A. C. Simmonett, J. E. Subotnik, H. L. Woodcock III,
 W. Zhang, A. T. Bell, A. K. Chakraborty, D. M. Chipman,
 F. J. Keil, A. Warshel, W. J. Hehre, H. F. Schaefer III,
 J. Kong, A. I. Krylov, P. M. W. Gill, M. Head-Gordon,
 Q-Chem, Version 3.1, Q-Chem, Inc., Pittsburgh, PA (2007).

 Additional authors for Version 3.1: 
 Z. Gan, Y. Zhao, N. E. Schultz, D. Truhlar, E. Epifanovsky and M. Oana.

 Additional authors for Version 3.2: 
 R. Baer, B. R. Brooks, D. Casanova, J.-D. Chai, C.-L. Cheng, 
 C. Cramer, D. Crittenden, A. Ghysels, G. Hawkins, E. G. Hohenstein, 
 C. Kelley, W. Kurlancheek, D. Liotard, E. Livshits, P. Manohar, 
 A. Marenich, D. Neuhauser, R. Olson, M. A. Rohrdanz, K. S. Thanthiriwatte, 
 A. J. W. Thom, V. Vanovschi, C. F. Williams, Q. Wu and Z.-Q. You. 


 Intel X86 Linux Version

 Q-chem begins on Tue Mar 18 15:48:31 2014  

 Parallel job on  1  processors
Processing $rem in /usr/local/qchem/config/preferences.

theFileMan(): MAXOPENFILES=974 MAX_SUB_FILE_NUM=16
Maximum size of a physical file is 2.0 GB, maximum size of a tmp-file is 32.0 GB


--------------------------------------------------------------
User input:
--------------------------------------------------------------

$molecule
-1,1
C         -0.00021        0.00000       -0.00126
C          0.00790        0.00000        1.29852
H          0.92825        0.00000       -0.57678
H         -0.92556        0.00000       -0.57359
H          0.72731        0.00000        2.10602
$end

$comment
negative
$end

$xc_functional
C PBE   1.00
X wPBE  1.00
$end

$rem
SYMMETRY_DECOMPOSITION	0
exchange 		general
LRC_DFT                 true
BASIS                   g3large
omega			600
mem_static              760
max_scf_cycles          200
scf_final_print         1
sym_ignore              true
$end

--------------------------------------------------------------
 Writing REM_CC_EA            5
 ----------------------------------------------------
       Standard Nuclear Orientation (Angstroms)
    I     Atom         X            Y            Z
 ----------------------------------------------------
    1      C      -0.000210     0.000000    -0.001260
    2      C       0.007900     0.000000     1.298520
    3      H       0.928250     0.000000    -0.576780
    4      H      -0.925560     0.000000    -0.573590
    5      H       0.727310     0.000000     2.106020
 ----------------------------------------------------
 Nuclear Repulsion Energy =    28.5290576325 hartrees
 There are        8 alpha and        8 beta electrons
 Requested basis set is G3large
 There are 38 shells and 114 basis functions

Total QAlloc Memory Limit   2000 MB
Mega-Array Size       743 MB
MEM_STATIC part       760 MB

                       Distance Matrix (Angstroms)
             C (  1)   C (  2)   H (  3)   H (  4)
   C (  2)  1.299805
   H (  3)  1.092365  2.088970
   H (  4)  1.088041  2.091923  1.853813
   H (  5)  2.229330  1.081484  2.690315  3.148379
 
 A cutoff of  1.0D-08 yielded    732 shell pairs
 There are   6640 function pairs (  8147 Cartesian)
Evaluating contribution to one-electron hamiltonian from nuclear
 Smallest overlap matrix eigenvalue = 1.14E-04
 Multipole matrices computed through 2nd order

  Scale SEOQF with 1.000000e-01/1.000000e-01/1.000000e-01

 Standard Electronic Orientation quadrupole field applied
 Nucleus-field energy     =    -0.0000000015 hartrees
 Guess from superposition of atomic densities
 Warning:  Energy on first SCF cycle will be non-variational
 Long-range K will be added via erf
 Coulomb attenuation parameter = 0.6 bohr**(-1)
 A restricted Kohn-Sham SCF calculation will be
 performed using Pulay DIIS extrapolation
 Exchange:  wPBE + LR-HF      Correlation:  PBE
 Using SG-1 standard quadrature grid
 SCF converges when DIIS error is below 1.0E-05
 Requested basis set is G3large
 There are 38 shells and 114 basis functions
 A cutoff of  1.0D-08 yielded    732 shell pairs
 There are   6640 function pairs (  8147 Cartesian)
 Warning!  Inaccurate integrated density:
   Number of electrons =    16
   Numerical integral  =    14.999943441296
   Relative error      =    -6.2503534919 %
 ---------------------------------------
  Cycle       Energy         DIIS Error
 ---------------------------------------
    1     -78.2085032571      3.78E-02
    2     -77.7422580299      6.99E-03
    3     -77.8168372410      4.73E-03
    4     -77.8557717136      6.33E-04
    5     -77.8591045817      3.83E-04
    6     -77.8602212455      2.15E-04
    7     -77.8609510627      9.27E-05
    8     -77.8611281905      2.19E-05
    9     -77.8611365241      6.91E-06 Convergence criterion met
 ---------------------------------------
 One-Electron    Energy =  -164.0457370643
 Total Coulomb   Energy =    69.7087257445
 Alpha Exchange  Energy =    -2.0708707700
 Beta  Exchange  Energy =    -2.0708707700
 DFT   Exchange  Energy =    -7.4216278218
 DFT Correlation Energy =    -0.4898134735
 Nuclear Repu.   Energy =    28.5290576310
 Nuclear Attr.   Energy =  -241.6699692091
 Kinetic         Energy =    77.6242321448
 SCF time:  CPU 24.74 s  wall 26.20 s
 Final Alpha MO Eigenvalues
            1           2           3           4           5           6
    1  -9.9619117  -9.9238422  -0.7096763  -0.4869930  -0.3617175  -0.3249318
            7           8           9          10          11          12
    1  -0.1576347  -0.0394943   0.1781983   0.1839675   0.1887796   0.2720335
           13
    1   0.2827044
 Analysis of SCF Wavefunction
 
 --------------------------------------------------------------
                    Orbital Energies (a.u.)
 --------------------------------------------------------------
 
 Alpha MOs
 -- Occupied --
 -9.962  -9.924  -0.710  -0.487  -0.362  -0.325  -0.158  -0.039
 -- Virtual --
  0.178   0.184   0.189   0.272   0.283   0.287   0.303   0.343
  0.350   0.366   0.379   0.419   0.435   0.458   0.550   0.670
  0.773   0.790   0.838   0.867   0.878   0.894   0.955   0.960
  0.967   0.987   1.025   1.028   1.122   1.123   1.155   1.266
  1.312   1.340   1.422   1.483   1.547   1.580   1.702   1.725
  1.771   1.799   1.863   1.885   1.914   2.095   2.827   2.877
  3.042   3.070   3.095   3.109   3.174   3.195   3.234   3.292
  3.304   3.377   3.478   3.495   3.540   3.563   3.607   3.642
  3.645   3.730   3.732   3.799   3.839   3.927   4.032   4.134
  4.135   4.194   4.344   4.534   4.554   4.606   4.752   4.852
  4.903   5.043   5.239   5.560   5.699   5.841   5.984   6.585
 24.132  25.127  27.595  27.793  27.956  28.495  28.648  28.777
 41.228  41.295  41.332  41.494  41.496  41.538  41.615  41.647
 41.705  41.729
 --------------------------------------------------------------
 
          Ground-State Mulliken Net Atomic Charges

     Atom                 Charge (a.u.)
  ----------------------------------------
      1 C                    -0.518924
      2 C                    -0.509985
      3 H                    -0.070348
      4 H                     0.058628
      5 H                     0.040629
  ----------------------------------------
  Sum of atomic charges =    -1.000000

 -----------------------------------------------------------------
                    Cartesian Multipole Moments
 -----------------------------------------------------------------
    Charge (ESU x 10^10)
                -4.8032
    Dipole Moment (Debye)
         X       1.7351      Y       0.0008      Z      -5.1961
       Tot       5.4782
    Quadrupole Moments (Debye-Ang)
        XX     -19.9932     XY      -0.0024     YY     -19.1234
        XZ       4.7723     YZ       0.0024     ZZ     -26.6334
    Octapole Moments (Debye-Ang^2)
       XXX       2.0066    XXY       0.0009    XYY       1.0466
       YYY       0.0037    XXZ     -17.3038    XYZ      -0.0037
       YYZ     -12.9983    XZZ       9.4541    YZZ       0.0057
       ZZZ     -50.9850
    Hexadecapole Moments (Debye-Ang^3)
      XXXX     -53.8479   XXXY      -0.0092   XXYY     -14.8699
      XYYY      -0.0092   YYYY     -33.9373   XXXZ       8.0775
      XXYZ       0.0029   XYYZ       3.0500   YYYZ       0.0101
      XXZZ     -45.3514   XYZZ      -0.0099   YYZZ     -32.9941
      XZZZ      25.5391   YZZZ       0.0182   ZZZZ    -182.3846
 -----------------------------------------------------------------
 Total job time:  26.37s(wall), 24.85s(cpu) 
 Tue Mar 18 15:48:58 2014

        *************************************************************
        *                                                           *
        *  Thank you very much for using Q-Chem.  Have a nice day.  *
        *                                                           *
        *************************************************************


0 sent ACK to 0 
now end server 0 ... 
 
**********************************************************************
Job 2 of 3 
**********************************************************************
 
Process 0 of 1 is on cl134 - thread support 1
initial socket setup ...start
initial socket setup ...done 
now start server 0 ... 

cmd = /usr/bin/ssh clhead /usr/local/qchem/bin/get_hostid 907951072 > /tmp/1591968.1.medium.q/qchem9271/lic.dat

cmd = /usr/bin/ssh clhead /usr/local/qchem/bin/get_hostid 907951072 > /tmp/1591968.1.medium.q/qchem9271/lic.dat

cmd = /usr/bin/ssh clhead /usr/local/qchem/bin/get_hostid 907951072 > /tmp/1591968.1.medium.q/qchem9271/lic.dat

cmd = /usr/bin/ssh clhead /usr/local/qchem/bin/get_hostid 907951072 > /tmp/1591968.1.medium.q/qchem9271/lic.dat

cmd = /usr/bin/ssh clhead /usr/local/qchem/bin/get_hostid 907951072 > /tmp/1591968.1.medium.q/qchem9271/lic.dat
                  Welcome to Q-Chem
     A Quantum Leap Into The Future Of Chemistry

 Y. Shao, L. Fusti-Molnar, Y. Jung, J. Kussmann, C. Ochsenfeld,
 S. T. Brown, A. T. B. Gilbert, L. V. Slipchenko,S. V. Levchenko,
 D. P. O'Neill, R. A. DiStasio Jr., R. C. Lochan, T. Wang,
 G. J. O. Beran, N. A. Besley, J. M. Herbert, C. Y. Lin,
 T. Van Voorhis, S. H. Chien, A. Sodt, R. P. Steele, 
 V. A. Rassolov, P. E. Maslen, P. P. Korambath, R. D. Adamson,
 B. Austin, J. Baker, E. F. C. Byrd, H. Dachsel, R. J. Doerksen,
 A. Dreuw, B. D. Dunietz, A. D. Dutoi, T. R. Furlani,
 S. R. Gwaltney, A. Heyden, S. Hirata, C.-P. Hsu, G. Kedziora,
 R. Z. Khaliullin, P. Klunzinger, A. M. Lee, M. S. Lee, W. Liang,
 I. Lotan, N. Nair, B. Peters, E. I. Proynov, P. A. Pieniazek, 
 Y. M. Rhee, J. Ritchie, E. Rosta, C. D. Sherrill, 
 A. C. Simmonett, J. E. Subotnik, H. L. Woodcock III,
 W. Zhang, A. T. Bell, A. K. Chakraborty, D. M. Chipman,
 F. J. Keil, A. Warshel, W. J. Hehre, H. F. Schaefer III,
 J. Kong, A. I. Krylov, P. M. W. Gill, M. Head-Gordon,
 Q-Chem, Version 3.1, Q-Chem, Inc., Pittsburgh, PA (2007).

 Additional authors for Version 3.1: 
 Z. Gan, Y. Zhao, N. E. Schultz, D. Truhlar, E. Epifanovsky and M. Oana.

 Additional authors for Version 3.2: 
 R. Baer, B. R. Brooks, D. Casanova, J.-D. Chai, C.-L. Cheng, 
 C. Cramer, D. Crittenden, A. Ghysels, G. Hawkins, E. G. Hohenstein, 
 C. Kelley, W. Kurlancheek, D. Liotard, E. Livshits, P. Manohar, 
 A. Marenich, D. Neuhauser, R. Olson, M. A. Rohrdanz, K. S. Thanthiriwatte, 
 A. J. W. Thom, V. Vanovschi, C. F. Williams, Q. Wu and Z.-Q. You. 


 Intel X86 Linux Version

 Q-chem begins on Tue Mar 18 15:49:02 2014  

 Parallel job on  1  processors
Processing $rem in /usr/local/qchem/config/preferences.

theFileMan(): MAXOPENFILES=974 MAX_SUB_FILE_NUM=16
Maximum size of a physical file is 2.0 GB, maximum size of a tmp-file is 32.0 GB


--------------------------------------------------------------
User input:
--------------------------------------------------------------

$molecule
0,2
C         -0.00021        0.00000       -0.00126
C          0.00790        0.00000        1.29852
H          0.92825        0.00000       -0.57678
H         -0.92556        0.00000       -0.57359
H          0.72731        0.00000        2.10602
$end

$comment
neutral
$end

$xc_functional
C PBE   1.00
X wPBE  1.00
$end


$rem
SYMMETRY_DECOMPOSITION	0
LRC_DFT                 true
exchange 		general
BASIS                   g3large
omega			600
mem_static              760
max_scf_cycles          200
scf_final_print         1
sym_ignore              true
$end

--------------------------------------------------------------
 Writing REM_CC_EA            5
 ----------------------------------------------------
       Standard Nuclear Orientation (Angstroms)
    I     Atom         X            Y            Z
 ----------------------------------------------------
    1      C      -0.000210     0.000000    -0.001260
    2      C       0.007900     0.000000     1.298520
    3      H       0.928250     0.000000    -0.576780
    4      H      -0.925560     0.000000    -0.573590
    5      H       0.727310     0.000000     2.106020
 ----------------------------------------------------
 Nuclear Repulsion Energy =    28.5290576325 hartrees
 There are        8 alpha and        7 beta electrons
 Requested basis set is G3large
 There are 38 shells and 114 basis functions

Total QAlloc Memory Limit   2000 MB
Mega-Array Size       743 MB
MEM_STATIC part       760 MB

                       Distance Matrix (Angstroms)
             C (  1)   C (  2)   H (  3)   H (  4)
   C (  2)  1.299805
   H (  3)  1.092365  2.088970
   H (  4)  1.088041  2.091923  1.853813
   H (  5)  2.229330  1.081484  2.690315  3.148379
 
 A cutoff of  1.0D-08 yielded    732 shell pairs
 There are   6640 function pairs (  8147 Cartesian)
Evaluating contribution to one-electron hamiltonian from nuclear
 Smallest overlap matrix eigenvalue = 1.14E-04
 Multipole matrices computed through 2nd order

  Scale SEOQF with 1.000000e-01/1.000000e-01/1.000000e-01

 Standard Electronic Orientation quadrupole field applied
 Nucleus-field energy     =    -0.0000000015 hartrees
 Guess from superposition of atomic densities
 Warning:  Energy on first SCF cycle will be non-variational
 Long-range K will be added via erf
 Coulomb attenuation parameter = 0.6 bohr**(-1)
 An unrestricted Kohn-Sham SCF calculation will be
 performed using Pulay DIIS extrapolation
 Exchange:  wPBE + LR-HF      Correlation:  PBE
 Using SG-1 standard quadrature grid
 SCF converges when DIIS error is below 1.0E-05
 Requested basis set is G3large
 There are 38 shells and 114 basis functions
 A cutoff of  1.0D-08 yielded    732 shell pairs
 There are   6640 function pairs (  8147 Cartesian)
 ---------------------------------------
  Cycle       Energy         DIIS Error
 ---------------------------------------
    1     -78.2085032571      3.78E-02
    2     -77.8172828086      3.10E-03
    3     -77.8511182464      1.20E-03
    4     -77.8594214464      5.61E-04
    5     -77.8637887223      2.66E-04
    6     -77.8654370032      1.56E-04
    7     -77.8662187555      5.16E-05
    8     -77.8664895118      2.31E-05
    9     -77.8666384137      1.27E-05
   10     -77.8667419377      6.65E-06 Convergence criterion met
 ---------------------------------------
 One-Electron    Energy =  -159.9939007928
 Total Coulomb   Energy =    65.4396241181
 Alpha Exchange  Energy =    -2.1209663766
 Beta  Exchange  Energy =    -1.8666937399
 DFT   Exchange  Energy =    -7.3973957663
 DFT Correlation Energy =    -0.4564670111
 Nuclear Repu.   Energy =    28.5290576310
 Nuclear Attr.   Energy =  -237.4863120048
 Kinetic         Energy =    77.4924112120
 <S^2> = 0.7738
 SCF time:  CPU 32.32 s  wall 33.88 s
 Final Alpha MO Eigenvalues
            1           2           3           4           5           6
    1 -10.2409493 -10.2170010  -0.9913674  -0.7650817  -0.6329431  -0.5966879
            7           8           9          10          11          12
    1  -0.4293837  -0.3910795   0.0457268   0.0581040   0.0651161   0.0843458
           13
    1   0.1224723
 Final Beta MO Eigenvalues
            1           2           3           4           5           6
    1 -10.2253597 -10.2194646  -0.9680543  -0.7330202  -0.6111487  -0.5738581
            7           8           9          10          11          12
    1  -0.4197369   0.0381414   0.0495243   0.0587953   0.0665874   0.0930075
 Analysis of SCF Wavefunction
 
 --------------------------------------------------------------
                    Orbital Energies (a.u.)
 --------------------------------------------------------------
 
 Alpha MOs
 -- Occupied --
-10.241 -10.217  -0.991  -0.765  -0.633  -0.597  -0.429  -0.391
 -- Virtual --
  0.046   0.058   0.065   0.084   0.122   0.132   0.140   0.181
  0.185   0.193   0.205   0.215   0.245   0.259   0.361   0.451
  0.542   0.555   0.616   0.625   0.640   0.658   0.709   0.722
  0.734   0.752   0.778   0.784   0.857   0.873   0.900   1.040
  1.064   1.111   1.183   1.233   1.298   1.331   1.453   1.475
  1.514   1.564   1.611   1.637   1.674   1.824   2.565   2.622
  2.763   2.807   2.817   2.835   2.888   2.910   2.932   3.006
  3.028   3.085   3.211   3.216   3.277   3.285   3.323   3.331
  3.370   3.442   3.458   3.495   3.550   3.646   3.754   3.847
  3.862   3.918   4.077   4.273   4.293   4.351   4.475   4.584
  4.627   4.761   4.958   5.282   5.419   5.564   5.730   6.299
 23.842  24.846  27.310  27.511  27.625  28.240  28.391  28.466
 40.943  40.972  41.076  41.199  41.216  41.256  41.318  41.362
 41.423  41.445
 
 Beta MOs
 -- Occupied --
-10.225 -10.219  -0.968  -0.733  -0.611  -0.574  -0.420
 -- Virtual --
  0.038   0.050   0.059   0.067   0.093   0.123   0.138   0.154
  0.183   0.190   0.200   0.206   0.219   0.249   0.270   0.373
  0.462   0.557   0.575   0.621   0.634   0.646   0.679   0.728
  0.737   0.752   0.765   0.786   0.802   0.886   0.888   0.925
  1.046   1.075   1.114   1.187   1.252   1.313   1.339   1.465
  1.484   1.536   1.570   1.620   1.647   1.680   1.845   2.574
  2.631   2.788   2.816   2.830   2.845   2.913   2.926   2.970
  3.027   3.038   3.120   3.220   3.227   3.283   3.305   3.349
  3.379   3.385   3.471   3.474   3.534   3.578   3.670   3.770
  3.865   3.873   3.934   4.092   4.286   4.303   4.357   4.490
  4.593   4.643   4.778   4.968   5.300   5.432   5.581   5.738
  6.316  23.851  24.852  27.316  27.514  27.661  28.238  28.390
 28.477  40.950  40.999  41.072  41.216  41.222  41.257  41.334
 41.365  41.430  41.450
 --------------------------------------------------------------
 
          Ground-State Mulliken Net Atomic Charges

     Atom                 Charge (a.u.)    Spin (a.u.)
  --------------------------------------------------------
      1 C                    -0.234568      -0.223749
      2 C                    -0.063257       1.084234
      3 H                     0.082944       0.079465
      4 H                     0.100287       0.043816
      5 H                     0.114594       0.016235
  --------------------------------------------------------
  Sum of atomic charges =     0.000000
  Sum of spin   charges =     1.000000

 -----------------------------------------------------------------
                    Cartesian Multipole Moments
 -----------------------------------------------------------------
    Charge (ESU x 10^10)
                 0.0000
    Dipole Moment (Debye)
         X       0.6339      Y       0.0000      Z      -0.2758
       Tot       0.6913
    Quadrupole Moments (Debye-Ang)
        XX     -12.0798     XY       0.0004     YY     -14.7444
        XZ       1.5887     YZ      -0.0003     ZZ     -11.3215
    Octapole Moments (Debye-Ang^2)
       XXX      -0.9110    XXY       0.0001    XYY      -0.4645
       YYY       0.0001    XXZ      -8.4088    XYZ       0.0002
       YYZ      -8.8320    XZZ       3.1405    YZZ      -0.0005
       ZZZ     -19.4274
    Hexadecapole Moments (Debye-Ang^3)
      XXXX     -22.3556   XXXY       0.0006   XXYY      -7.2145
      XYYY       0.0005   YYYY     -17.8774   XXXZ      -1.4877
      XXYZ      -0.0001   XYYZ      -0.8846   YYYZ      -0.0003
      XXZZ     -17.3944   XYZZ       0.0011   YYZZ     -19.2971
      XZZZ       5.6262   YZZZ      -0.0015   ZZZZ     -81.1478
 -----------------------------------------------------------------
 Total job time:  34.02s(wall), 32.42s(cpu) 
 Tue Mar 18 15:49:36 2014

        *************************************************************
        *                                                           *
        *  Thank you very much for using Q-Chem.  Have a nice day.  *
        *                                                           *
        *************************************************************


0 sent ACK to 0 
now end server 0 ... 
 
**********************************************************************
Job 3 of 3 
**********************************************************************
 
Process 0 of 1 is on cl134 - thread support 1
initial socket setup ...start
initial socket setup ...done 
now start server 0 ... 

cmd = /usr/bin/ssh clhead /usr/local/qchem/bin/get_hostid 1172127771 > /tmp/1591968.1.medium.q/qchem9271/lic.dat

cmd = /usr/bin/ssh clhead /usr/local/qchem/bin/get_hostid 1172127771 > /tmp/1591968.1.medium.q/qchem9271/lic.dat

cmd = /usr/bin/ssh clhead /usr/local/qchem/bin/get_hostid 1172127771 > /tmp/1591968.1.medium.q/qchem9271/lic.dat

cmd = /usr/bin/ssh clhead /usr/local/qchem/bin/get_hostid 1172127771 > /tmp/1591968.1.medium.q/qchem9271/lic.dat

cmd = /usr/bin/ssh clhead /usr/local/qchem/bin/get_hostid 1172127771 > /tmp/1591968.1.medium.q/qchem9271/lic.dat
                  Welcome to Q-Chem
     A Quantum Leap Into The Future Of Chemistry

 Y. Shao, L. Fusti-Molnar, Y. Jung, J. Kussmann, C. Ochsenfeld,
 S. T. Brown, A. T. B. Gilbert, L. V. Slipchenko,S. V. Levchenko,
 D. P. O'Neill, R. A. DiStasio Jr., R. C. Lochan, T. Wang,
 G. J. O. Beran, N. A. Besley, J. M. Herbert, C. Y. Lin,
 T. Van Voorhis, S. H. Chien, A. Sodt, R. P. Steele, 
 V. A. Rassolov, P. E. Maslen, P. P. Korambath, R. D. Adamson,
 B. Austin, J. Baker, E. F. C. Byrd, H. Dachsel, R. J. Doerksen,
 A. Dreuw, B. D. Dunietz, A. D. Dutoi, T. R. Furlani,
 S. R. Gwaltney, A. Heyden, S. Hirata, C.-P. Hsu, G. Kedziora,
 R. Z. Khaliullin, P. Klunzinger, A. M. Lee, M. S. Lee, W. Liang,
 I. Lotan, N. Nair, B. Peters, E. I. Proynov, P. A. Pieniazek, 
 Y. M. Rhee, J. Ritchie, E. Rosta, C. D. Sherrill, 
 A. C. Simmonett, J. E. Subotnik, H. L. Woodcock III,
 W. Zhang, A. T. Bell, A. K. Chakraborty, D. M. Chipman,
 F. J. Keil, A. Warshel, W. J. Hehre, H. F. Schaefer III,
 J. Kong, A. I. Krylov, P. M. W. Gill, M. Head-Gordon,
 Q-Chem, Version 3.1, Q-Chem, Inc., Pittsburgh, PA (2007).

 Additional authors for Version 3.1: 
 Z. Gan, Y. Zhao, N. E. Schultz, D. Truhlar, E. Epifanovsky and M. Oana.

 Additional authors for Version 3.2: 
 R. Baer, B. R. Brooks, D. Casanova, J.-D. Chai, C.-L. Cheng, 
 C. Cramer, D. Crittenden, A. Ghysels, G. Hawkins, E. G. Hohenstein, 
 C. Kelley, W. Kurlancheek, D. Liotard, E. Livshits, P. Manohar, 
 A. Marenich, D. Neuhauser, R. Olson, M. A. Rohrdanz, K. S. Thanthiriwatte, 
 A. J. W. Thom, V. Vanovschi, C. F. Williams, Q. Wu and Z.-Q. You. 


 Intel X86 Linux Version

 Q-chem begins on Tue Mar 18 15:49:40 2014  

 Parallel job on  1  processors
Processing $rem in /usr/local/qchem/config/preferences.

theFileMan(): MAXOPENFILES=974 MAX_SUB_FILE_NUM=16
Maximum size of a physical file is 2.0 GB, maximum size of a tmp-file is 32.0 GB


--------------------------------------------------------------
User input:
--------------------------------------------------------------

$molecule
1,1
C         -0.00021        0.00000       -0.00126
C          0.00790        0.00000        1.29852
H          0.92825        0.00000       -0.57678
H         -0.92556        0.00000       -0.57359
H          0.72731        0.00000        2.10602
$end

$comment
positive
$end

$xc_functional
C PBE   1.00
X wPBE  1.00
$end

$rem
SYMMETRY_DECOMPOSITION	0
LRC_DFT                 true
exchange 		general
BASIS                   g3large
omega			600
mem_static              760
max_scf_cycles          200
scf_final_print         1
sym_ignore              true
$end

--------------------------------------------------------------
 Writing REM_CC_EA            5
 ----------------------------------------------------
       Standard Nuclear Orientation (Angstroms)
    I     Atom         X            Y            Z
 ----------------------------------------------------
    1      C      -0.000210     0.000000    -0.001260
    2      C       0.007900     0.000000     1.298520
    3      H       0.928250     0.000000    -0.576780
    4      H      -0.925560     0.000000    -0.573590
    5      H       0.727310     0.000000     2.106020
 ----------------------------------------------------
 Nuclear Repulsion Energy =    28.5290576325 hartrees
 There are        7 alpha and        7 beta electrons
 Requested basis set is G3large
 There are 38 shells and 114 basis functions

Total QAlloc Memory Limit   2000 MB
Mega-Array Size       743 MB
MEM_STATIC part       760 MB

                       Distance Matrix (Angstroms)
             C (  1)   C (  2)   H (  3)   H (  4)
   C (  2)  1.299805
   H (  3)  1.092365  2.088970
   H (  4)  1.088041  2.091923  1.853813
   H (  5)  2.229330  1.081484  2.690315  3.148379
 
 A cutoff of  1.0D-08 yielded    732 shell pairs
 There are   6640 function pairs (  8147 Cartesian)
Evaluating contribution to one-electron hamiltonian from nuclear
 Smallest overlap matrix eigenvalue = 1.14E-04
 Multipole matrices computed through 2nd order

  Scale SEOQF with 1.000000e-01/1.000000e-01/1.000000e-01

 Standard Electronic Orientation quadrupole field applied
 Nucleus-field energy     =    -0.0000000015 hartrees
 Guess from superposition of atomic densities
 Warning:  Energy on first SCF cycle will be non-variational
 Long-range K will be added via erf
 Coulomb attenuation parameter = 0.6 bohr**(-1)
 A restricted Kohn-Sham SCF calculation will be
 performed using Pulay DIIS extrapolation
 Exchange:  wPBE + LR-HF      Correlation:  PBE
 Using SG-1 standard quadrature grid
 SCF converges when DIIS error is below 1.0E-05
 Requested basis set is G3large
 There are 38 shells and 114 basis functions
 A cutoff of  1.0D-08 yielded    732 shell pairs
 There are   6640 function pairs (  8147 Cartesian)
 Warning!  Inaccurate integrated density:
   Number of electrons =    14
   Numerical integral  =    14.999943441296
   Relative error      =     7.1424531521 %
 ---------------------------------------
  Cycle       Energy         DIIS Error
 ---------------------------------------
    1     -78.2085032571      3.78E-02
    2     -77.4367132704      4.48E-03
    3     -77.4815219344      2.61E-03
    4     -77.4934743029      8.58E-04
    5     -77.4967392070      3.84E-04
    6     -77.4981540049      2.68E-04
    7     -77.4998429992      1.63E-04
    8     -77.5007024647      6.13E-05
    9     -77.5007899326      1.92E-05
   10     -77.5007934130      5.69E-06 Convergence criterion met
 ---------------------------------------
 One-Electron    Energy =  -155.1128584714
 Total Coulomb   Energy =    60.5611925852
 Alpha Exchange  Energy =    -1.8811322380
 Beta  Exchange  Energy =    -1.8811322380
 DFT   Exchange  Energy =    -7.2882417388
 DFT Correlation Energy =    -0.4276789429
 Nuclear Repu.   Energy =    28.5290576310
 Nuclear Attr.   Energy =  -232.1789380992
 Kinetic         Energy =    77.0660796278
 SCF time:  CPU 26.97 s  wall 28.52 s
 Final Alpha MO Eigenvalues
            1           2           3           4           5           6
    1 -10.6340365 -10.5388222  -1.3067879  -1.0636573  -0.9358876  -0.8859662
            7           8           9          10          11          12
    1  -0.7459192  -0.3315194  -0.1831080  -0.1115748  -0.0907248  -0.0808702
 Analysis of SCF Wavefunction
 
 --------------------------------------------------------------
                    Orbital Energies (a.u.)
 --------------------------------------------------------------
 
 Alpha MOs
 -- Occupied --
-10.634 -10.539  -1.307  -1.064  -0.936  -0.886  -0.746
 -- Virtual --
 -0.332  -0.183  -0.112  -0.091  -0.081  -0.053  -0.035  -0.022
  0.000   0.006   0.021   0.041   0.042   0.046   0.054   0.162
  0.211   0.303   0.319   0.349   0.371   0.383   0.413   0.462
  0.464   0.486   0.507   0.509   0.537   0.587   0.604   0.642
  0.781   0.805   0.856   0.916   0.967   1.033   1.059   1.182
  1.203   1.241   1.301   1.333   1.365   1.408   1.542   2.266
  2.333   2.457   2.493   2.507   2.513   2.575   2.592   2.616
  2.688   2.712   2.772   2.889   2.908   2.967   2.976   3.008
  3.009   3.060   3.126   3.150   3.176   3.236   3.335   3.439
  3.524   3.547   3.607   3.772   3.976   3.989   4.056   4.160
  4.277   4.313   4.444   4.633   4.966   5.095   5.249   5.433
  5.975  23.481  24.500  26.945  27.166  27.238  27.919  28.067
 28.081  40.578  40.587  40.752  40.812  40.847  40.929  40.935
 41.016  41.081  41.103
 --------------------------------------------------------------
 
          Ground-State Mulliken Net Atomic Charges

     Atom                 Charge (a.u.)
  ----------------------------------------
      1 C                     0.000209
      2 C                     0.360103
      3 H                     0.204525
      4 H                     0.189743
      5 H                     0.245419
  ----------------------------------------
  Sum of atomic charges =     1.000000

 -----------------------------------------------------------------
                    Cartesian Multipole Moments
 -----------------------------------------------------------------
    Charge (ESU x 10^10)
                 4.8032
    Dipole Moment (Debye)
         X       0.5001      Y       0.0002      Z       3.4059
       Tot       3.4425
    Quadrupole Moments (Debye-Ang)
        XX      -7.2358     XY      -0.0002     YY     -12.2799
        XZ       1.0544     YZ       0.0003     ZZ      -0.6821
    Octapole Moments (Debye-Ang^2)
       XXX      -0.5657    XXY       0.0001    XYY      -0.5505
       YYY       0.0002    XXZ      -5.1059    XYZ      -0.0004
       YYZ      -7.5132    XZZ       2.9287    YZZ       0.0005
       ZZZ      -1.5144
    Hexadecapole Moments (Debye-Ang^3)
      XXXX     -12.2791   XXXY      -0.0001   XXYY      -4.8436
      XYYY      -0.0001   YYYY     -12.3129   XXXZ      -1.3138
      XXYZ       0.0001   XYYZ      -1.1344   YYYZ       0.0003
      XXZZ      -6.7937   XYZZ      -0.0005   YYZZ     -14.9372
      XZZZ       5.6597   YZZZ       0.0009   ZZZZ     -34.4642
 -----------------------------------------------------------------
 Total job time:  28.65s(wall), 27.07s(cpu) 
 Tue Mar 18 15:50:09 2014

        *************************************************************
        *                                                           *
        *  Thank you very much for using Q-Chem.  Have a nice day.  *
        *                                                           *
        *************************************************************


0 sent ACK to 0 
now end server 0 ... 
