Process 0 of 1 is on cl200.stfx.acenet.ca - thread support 1
initial socket setup ...start
initial socket setup ...done 
now start server 0 ... 

cmd = /usr/bin/ssh clhead /usr/local/qchem/bin/get_hostid 1946326452 > /scratch/tmp/6027846.1.medium.q/qchem22669/lic.dat
                  Welcome to Q-Chem
     A Quantum Leap Into The Future Of Chemistry

 Y. Shao, L. Fusti-Molnar, Y. Jung, J. Kussmann, C. Ochsenfeld,
 S. T. Brown, A. T. B. Gilbert, L. V. Slipchenko,S. V. Levchenko,
 D. P. O'Neill, R. A. DiStasio Jr., R. C. Lochan, T. Wang,
 G. J. O. Beran, N. A. Besley, J. M. Herbert, C. Y. Lin,
 T. Van Voorhis, S. H. Chien, A. Sodt, R. P. Steele, 
 V. A. Rassolov, P. E. Maslen, P. P. Korambath, R. D. Adamson,
 B. Austin, J. Baker, E. F. C. Byrd, H. Dachsel, R. J. Doerksen,
 A. Dreuw, B. D. Dunietz, A. D. Dutoi, T. R. Furlani,
 S. R. Gwaltney, A. Heyden, S. Hirata, C.-P. Hsu, G. Kedziora,
 R. Z. Khaliullin, P. Klunzinger, A. M. Lee, M. S. Lee, W. Liang,
 I. Lotan, N. Nair, B. Peters, E. I. Proynov, P. A. Pieniazek, 
 Y. M. Rhee, J. Ritchie, E. Rosta, C. D. Sherrill, 
 A. C. Simmonett, J. E. Subotnik, H. L. Woodcock III,
 W. Zhang, A. T. Bell, A. K. Chakraborty, D. M. Chipman,
 F. J. Keil, A. Warshel, W. J. Hehre, H. F. Schaefer III,
 J. Kong, A. I. Krylov, P. M. W. Gill, M. Head-Gordon,
 Q-Chem, Version 3.1, Q-Chem, Inc., Pittsburgh, PA (2007).

 Additional authors for Version 3.1: 
 Z. Gan, Y. Zhao, N. E. Schultz, D. Truhlar, E. Epifanovsky and M. Oana.

 Additional authors for Version 3.2: 
 R. Baer, B. R. Brooks, D. Casanova, J.-D. Chai, C.-L. Cheng, 
 C. Cramer, D. Crittenden, A. Ghysels, G. Hawkins, E. G. Hohenstein, 
 C. Kelley, W. Kurlancheek, D. Liotard, E. Livshits, P. Manohar, 
 A. Marenich, D. Neuhauser, R. Olson, M. A. Rohrdanz, K. S. Thanthiriwatte, 
 A. J. W. Thom, V. Vanovschi, C. F. Williams, Q. Wu and Z.-Q. You. 


 Intel X86 Linux Version

 Q-chem begins on Mon Jun  3 17:05:20 2013  

 Parallel job on  1  processors
Processing $rem in /usr/local/qchem/config/preferences.

theFileMan(): MAXOPENFILES=974 MAX_SUB_FILE_NUM=16
Maximum size of a physical file is 2.0 GB, maximum size of a tmp-file is 32.0 GB


--------------------------------------------------------------
User input:
--------------------------------------------------------------

$molecule
-1,1
C
C,1,RCC
H,1,R1,2,A1
X,1,1.,2,X1,3,180.,0
H,1,R2,4,A2,2,90.,0
H,1,R2,4,A2,2,-90.,0
X,2,1.,1,X2,3,0.,0
H,2,R3,7,A3,1,90.,0
H,2,R3,7,A3,1,-90.,0

RCC=1.48936945
R1=1.10529134
R2=1.09701109
R3=1.08546443
A1=112.13113048
X1=129.25454486
A2=54.01302883
X2=171.53419822
A3=58.6932455

$end

$comment
negative
$end

$xc_functional
C PBE   1.00
X wPBE  1.00
$end

$rem
SYMMETRY_DECOMPOSITION	0
exchange 		general
LRC_DFT                 true
BASIS                   g3large
omega			800
mem_static              760
max_scf_cycles          200
scf_final_print         1
sym_ignore              true
$end

--------------------------------------------------------------
 Writing REM_CC_EA            7
 ----------------------------------------------------
       Standard Nuclear Orientation (Angstroms)
    I     Atom         X            Y            Z
 ----------------------------------------------------
    1      C       0.000000     0.000000     0.000000
    2      C       0.000000     0.000000     1.489369
    3      H       1.023858     0.000000    -0.416394
    4      H      -0.499145    -0.887647    -0.407885
    5      H      -0.499145     0.887647    -0.407885
    6      H       0.083036    -0.927418     2.047253
    7      H       0.083036     0.927418     2.047253
 ----------------------------------------------------
 Nuclear Repulsion Energy =    36.8646081075 hartrees
 There are        9 alpha and        9 beta electrons
 Requested basis set is G3large
 There are 50 shells and 134 basis functions

Total QAlloc Memory Limit   2000 MB
Mega-Array Size       743 MB
MEM_STATIC part       760 MB

                       Distance Matrix (Angstroms)
             C (  1)   C (  2)   H (  3)   H (  4)   H (  5)   H (  6)
   C (  2)  1.489369
   H (  3)  1.105291  2.163381
   H (  4)  1.097011  2.153285  1.762818
   H (  5)  1.097011  2.153285  1.762818  1.775294
   H (  6)  2.249054  1.085464  2.795497  2.523532  3.108230
   H (  7)  2.249054  1.085464  2.795497  3.108230  2.523532  1.854836

 
 A cutoff of  1.0D-08 yielded   1257 shell pairs
 There are   9069 function pairs ( 10810 Cartesian)
Evaluating contribution to one-electron hamiltonian from nuclear
 Smallest overlap matrix eigenvalue = 1.56E-04
 Multipole matrices computed through 2nd order

  Scale SEOQF with 1.000000e-01/1.000000e-01/1.000000e-01

 Standard Electronic Orientation quadrupole field applied
 Nucleus-field energy     =    -0.0000000021 hartrees
 Guess from superposition of atomic densities
 Warning:  Energy on first SCF cycle will be non-variational
 Long-range K will be added via erf
 Coulomb attenuation parameter = 0.8 bohr**(-1)
 A restricted Kohn-Sham SCF calculation will be
 performed using Pulay DIIS extrapolation
 Exchange:  wPBE + LR-HF      Correlation:  PBE
 Using SG-1 standard quadrature grid
 SCF converges when DIIS error is below 1.0E-05
 Requested basis set is G3large
 There are 50 shells and 134 basis functions
 A cutoff of  1.0D-08 yielded   1257 shell pairs
 There are   9069 function pairs ( 10810 Cartesian)
 Warning!  Inaccurate integrated density:
   Number of electrons =    18
   Numerical integral  =    16.999883480940
   Relative error      =    -5.5562028837 %
 ---------------------------------------
  Cycle       Energy         DIIS Error
 ---------------------------------------
    1     -79.4932167995      3.46E-02
    2     -78.9994435628      5.95E-03
    3     -79.0676888585      3.93E-03
    4     -79.1030718593      4.03E-04
    5     -79.1043685235      1.34E-04
    6     -79.1045991417      5.31E-05
    7     -79.1046509819      2.04E-05
    8     -79.1046602478      7.05E-06 Convergence criterion met
 ---------------------------------------
 One-Electron    Energy =  -182.2516575349
 Total Coulomb   Energy =    79.1264273487
 Alpha Exchange  Energy =    -2.7692804772
 Beta  Exchange  Energy =    -2.7692804772
 DFT   Exchange  Energy =    -6.7489897348
 DFT Correlation Energy =    -0.5564874776
 Nuclear Repu.   Energy =    36.8646081054
 Nuclear Attr.   Energy =  -260.9398802818
 Kinetic         Energy =    78.6882227469
 SCF time:  CPU 32.08 s  wall 32.62 s
 Final Alpha MO Eigenvalues
            1           2           3           4           5           6
    1 -10.0925482 -10.0079475  -0.7553467  -0.5584861  -0.3837751  -0.3535556
            7           8           9          10          11          12
    1  -0.2970693  -0.2656215  -0.0157539   0.1688827   0.1889020   0.1904735
           13          14
    1   0.1987239   0.2157180
 Analysis of SCF Wavefunction
 
 --------------------------------------------------------------
                    Orbital Energies (a.u.)
 --------------------------------------------------------------
 
 Alpha MOs
 -- Occupied --
-10.093 -10.008  -0.755  -0.558  -0.384  -0.354  -0.297  -0.266
 -0.016
 -- Virtual --
  0.169   0.189   0.190   0.199   0.216   0.284   0.305   0.307
  0.317   0.338   0.350   0.365   0.375   0.446   0.451   0.480
  0.518   0.531   0.624   0.731   0.751   0.783   0.811   0.861
  0.880   0.891   0.935   0.958   0.960   0.966   0.984   0.999
  1.029   1.118   1.138   1.215   1.245   1.320   1.358   1.386
  1.403   1.476   1.481   1.550   1.603   1.626   1.641   1.724
  1.740   1.763   1.809   1.825   1.851   1.869   1.936   1.998
  2.000   2.798   2.868   2.954   2.973   3.077   3.212   3.242
  3.301   3.311   3.366   3.457   3.473   3.506   3.564   3.567
  3.576   3.598   3.697   3.700   3.749   3.821   3.834   3.935
  3.945   4.020   4.034   4.155   4.185   4.291   4.306   4.432
  4.493   4.500   4.584   4.628   4.678   4.682   4.740   4.784
  4.811   4.893   5.001   5.041   5.142   5.477   5.665   5.999
  6.061   6.117   6.130  24.515  24.778  27.828  28.188  28.505
 28.526  28.639  28.863  41.395  41.407  41.500  41.591  41.617
 41.644  41.663  41.680  41.693  41.783
 --------------------------------------------------------------
 
          Ground-State Mulliken Net Atomic Charges

     Atom                 Charge (a.u.)
  ----------------------------------------
      1 C                     0.012939
      2 C                    -1.116104
      3 H                    -0.010055
      4 H                     0.011620
      5 H                     0.011648
      6 H                     0.045015
      7 H                     0.044937
  ----------------------------------------
  Sum of atomic charges =    -1.000000

 -----------------------------------------------------------------
                    Cartesian Multipole Moments
 -----------------------------------------------------------------
    Charge (ESU x 10^10)
                -4.8032
    Dipole Moment (Debye)
         X       0.3596      Y       0.0005      Z      -6.7033
       Tot       6.7130
    Quadrupole Moments (Debye-Ang)
        XX     -24.6107     XY       0.0084     YY     -18.3625
        XZ       1.4446     YZ      -0.0017     ZZ     -32.0205
    Octapole Moments (Debye-Ang^2)
       XXX       1.3987    XXY      -0.0017    XYY      -0.2331
       YYY       0.0052    XXZ     -26.9803    XYZ       0.0241
       YYZ     -15.7939    XZZ       2.2915    YZZ      -0.0022
       ZZZ     -68.7515
    Hexadecapole Moments (Debye-Ang^3)
      XXXX     -70.1496   XXXY       0.0521   XXYY     -19.2647
      XYYY       0.0538   YYYY     -44.0020   XXXZ       4.2729
      XXYZ      -0.0035   XYYZ       0.9413   YYYZ      -0.0069
      XXZZ     -68.3086   XYZZ       0.0575   YYZZ     -41.9730
      XZZZ       7.6569   YZZZ      -0.0126   ZZZZ    -244.1932
 -----------------------------------------------------------------
 Total job time:  32.77s(wall), 32.21s(cpu) 
 Mon Jun  3 17:05:53 2013

        *************************************************************
        *                                                           *
        *  Thank you very much for using Q-Chem.  Have a nice day.  *
        *                                                           *
        *************************************************************


0 sent ACK to 0 
now end server 0 ... 
 
**********************************************************************
Job 2 of 3 
**********************************************************************
 
Process 0 of 1 is on cl200.stfx.acenet.ca - thread support 1
initial socket setup ...start
initial socket setup ...done 
now start server 0 ... 

cmd = /usr/bin/ssh clhead /usr/local/qchem/bin/get_hostid 1738655184 > /scratch/tmp/6027846.1.medium.q/qchem22669/lic.dat
                  Welcome to Q-Chem
     A Quantum Leap Into The Future Of Chemistry

 Y. Shao, L. Fusti-Molnar, Y. Jung, J. Kussmann, C. Ochsenfeld,
 S. T. Brown, A. T. B. Gilbert, L. V. Slipchenko,S. V. Levchenko,
 D. P. O'Neill, R. A. DiStasio Jr., R. C. Lochan, T. Wang,
 G. J. O. Beran, N. A. Besley, J. M. Herbert, C. Y. Lin,
 T. Van Voorhis, S. H. Chien, A. Sodt, R. P. Steele, 
 V. A. Rassolov, P. E. Maslen, P. P. Korambath, R. D. Adamson,
 B. Austin, J. Baker, E. F. C. Byrd, H. Dachsel, R. J. Doerksen,
 A. Dreuw, B. D. Dunietz, A. D. Dutoi, T. R. Furlani,
 S. R. Gwaltney, A. Heyden, S. Hirata, C.-P. Hsu, G. Kedziora,
 R. Z. Khaliullin, P. Klunzinger, A. M. Lee, M. S. Lee, W. Liang,
 I. Lotan, N. Nair, B. Peters, E. I. Proynov, P. A. Pieniazek, 
 Y. M. Rhee, J. Ritchie, E. Rosta, C. D. Sherrill, 
 A. C. Simmonett, J. E. Subotnik, H. L. Woodcock III,
 W. Zhang, A. T. Bell, A. K. Chakraborty, D. M. Chipman,
 F. J. Keil, A. Warshel, W. J. Hehre, H. F. Schaefer III,
 J. Kong, A. I. Krylov, P. M. W. Gill, M. Head-Gordon,
 Q-Chem, Version 3.1, Q-Chem, Inc., Pittsburgh, PA (2007).

 Additional authors for Version 3.1: 
 Z. Gan, Y. Zhao, N. E. Schultz, D. Truhlar, E. Epifanovsky and M. Oana.

 Additional authors for Version 3.2: 
 R. Baer, B. R. Brooks, D. Casanova, J.-D. Chai, C.-L. Cheng, 
 C. Cramer, D. Crittenden, A. Ghysels, G. Hawkins, E. G. Hohenstein, 
 C. Kelley, W. Kurlancheek, D. Liotard, E. Livshits, P. Manohar, 
 A. Marenich, D. Neuhauser, R. Olson, M. A. Rohrdanz, K. S. Thanthiriwatte, 
 A. J. W. Thom, V. Vanovschi, C. F. Williams, Q. Wu and Z.-Q. You. 


 Intel X86 Linux Version

 Q-chem begins on Mon Jun  3 17:05:55 2013  

 Parallel job on  1  processors
Processing $rem in /usr/local/qchem/config/preferences.

theFileMan(): MAXOPENFILES=974 MAX_SUB_FILE_NUM=16
Maximum size of a physical file is 2.0 GB, maximum size of a tmp-file is 32.0 GB


--------------------------------------------------------------
User input:
--------------------------------------------------------------

$molecule
0,2
C
C,1,RCC
H,1,R1,2,A1
X,1,1.,2,X1,3,180.,0
H,1,R2,4,A2,2,90.,0
H,1,R2,4,A2,2,-90.,0
X,2,1.,1,X2,3,0.,0
H,2,R3,7,A3,1,90.,0
H,2,R3,7,A3,1,-90.,0

RCC=1.48936945
R1=1.10529134
R2=1.09701109
R3=1.08546443
A1=112.13113048
X1=129.25454486
A2=54.01302883
X2=171.53419822
A3=58.6932455

$end

$comment
neutral
$end

$xc_functional
C PBE   1.00
X wPBE  1.00
$end


$rem
SYMMETRY_DECOMPOSITION	0
LRC_DFT                 true
exchange 		general
BASIS                   g3large
omega			800
mem_static              760
max_scf_cycles          200
scf_final_print         1
sym_ignore              true
$end

--------------------------------------------------------------
 Writing REM_CC_EA            7
 ----------------------------------------------------
       Standard Nuclear Orientation (Angstroms)
    I     Atom         X            Y            Z
 ----------------------------------------------------
    1      C       0.000000     0.000000     0.000000
    2      C       0.000000     0.000000     1.489369
    3      H       1.023858     0.000000    -0.416394
    4      H      -0.499145    -0.887647    -0.407885
    5      H      -0.499145     0.887647    -0.407885
    6      H       0.083036    -0.927418     2.047253
    7      H       0.083036     0.927418     2.047253
 ----------------------------------------------------
 Nuclear Repulsion Energy =    36.8646081075 hartrees
 There are        9 alpha and        8 beta electrons
 Requested basis set is G3large
 There are 50 shells and 134 basis functions

Total QAlloc Memory Limit   2000 MB
Mega-Array Size       743 MB
MEM_STATIC part       760 MB

                       Distance Matrix (Angstroms)
             C (  1)   C (  2)   H (  3)   H (  4)   H (  5)   H (  6)
   C (  2)  1.489369
   H (  3)  1.105291  2.163381
   H (  4)  1.097011  2.153285  1.762818
   H (  5)  1.097011  2.153285  1.762818  1.775294
   H (  6)  2.249054  1.085464  2.795497  2.523532  3.108230
   H (  7)  2.249054  1.085464  2.795497  3.108230  2.523532  1.854836

 
 A cutoff of  1.0D-08 yielded   1257 shell pairs
 There are   9069 function pairs ( 10810 Cartesian)
Evaluating contribution to one-electron hamiltonian from nuclear
 Smallest overlap matrix eigenvalue = 1.56E-04
 Multipole matrices computed through 2nd order

  Scale SEOQF with 1.000000e-01/1.000000e-01/1.000000e-01

 Standard Electronic Orientation quadrupole field applied
 Nucleus-field energy     =    -0.0000000021 hartrees
 Guess from superposition of atomic densities
 Warning:  Energy on first SCF cycle will be non-variational
 Long-range K will be added via erf
 Coulomb attenuation parameter = 0.8 bohr**(-1)
 An unrestricted Kohn-Sham SCF calculation will be
 performed using Pulay DIIS extrapolation
 Exchange:  wPBE + LR-HF      Correlation:  PBE
 Using SG-1 standard quadrature grid
 SCF converges when DIIS error is below 1.0E-05
 Requested basis set is G3large
 There are 50 shells and 134 basis functions
 A cutoff of  1.0D-08 yielded   1257 shell pairs
 There are   9069 function pairs ( 10810 Cartesian)
 ---------------------------------------
  Cycle       Energy         DIIS Error
 ---------------------------------------
    1     -79.4932167995      3.46E-02
    2     -79.0949042092      2.83E-03
    3     -79.1318855175      9.20E-04
    4     -79.1380148319      4.18E-04
    5     -79.1397830138      1.35E-04
    6     -79.1402788147      5.03E-05
    7     -79.1403582808      1.94E-05
    8     -79.1403699254      6.33E-06 Convergence criterion met
 ---------------------------------------
 One-Electron    Energy =  -177.9924672436
 Total Coulomb   Energy =    74.6499657549
 Alpha Exchange  Energy =    -2.8412564976
 Beta  Exchange  Energy =    -2.5506675469
 DFT   Exchange  Energy =    -6.7471021829
 DFT Correlation Energy =    -0.5234503148
 Nuclear Repu.   Energy =    36.8646081054
 Nuclear Attr.   Energy =  -256.6281022645
 Kinetic         Energy =    78.6356350210
 <S^2> = 0.7579
 SCF time:  CPU 38.08 s  wall 38.81 s
 Final Alpha MO Eigenvalues
            1           2           3           4           5           6
    1 -10.3188375 -10.3091456  -1.0154797  -0.8359770  -0.6326043  -0.5920543
            7           8           9          10          11          12
    1  -0.5601802  -0.5198361  -0.3661182   0.0435171   0.0600086   0.0640780
           13          14
    1   0.0739608   0.0933492
 Final Beta MO Eigenvalues
            1           2           3           4           5           6
    1 -10.3104194 -10.3042222  -0.9883426  -0.7955480  -0.6250064  -0.5635882
            7           8           9          10          11          12
    1  -0.5508511  -0.5149620   0.0441381   0.0607050   0.0643443   0.0645698
           13
    1   0.0784670
 Analysis of SCF Wavefunction
 
 --------------------------------------------------------------
                    Orbital Energies (a.u.)
 --------------------------------------------------------------
 
 Alpha MOs
 -- Occupied --
-10.319 -10.309  -1.015  -0.836  -0.633  -0.592  -0.560  -0.520
 -0.366
 -- Virtual --
  0.044   0.060   0.064   0.074   0.093   0.140   0.146   0.151
  0.157   0.179   0.192   0.204   0.208   0.258   0.266   0.289
  0.320   0.364   0.406   0.530   0.550   0.563   0.600   0.623
  0.648   0.682   0.686   0.700   0.720   0.738   0.746   0.773
  0.799   0.904   0.920   0.999   1.006   1.081   1.116   1.149
  1.159   1.249   1.274   1.320   1.366   1.390   1.410   1.491
  1.502   1.539   1.589   1.594   1.612   1.640   1.704   1.760
  1.769   2.558   2.639   2.702   2.743   2.805   2.913   2.947
  3.032   3.047   3.131   3.176   3.183   3.236   3.282   3.301
  3.330   3.343   3.426   3.443   3.482   3.558   3.577   3.657
  3.661   3.767   3.779   3.901   3.936   4.059   4.069   4.191
  4.235   4.240   4.343   4.361   4.417   4.423   4.491   4.529
  4.589   4.650   4.760   4.792   4.891   5.210   5.409   5.743
  5.796   5.883   5.897  24.241  24.524  27.504  27.933  28.287
 28.301  28.342  28.594  41.122  41.186  41.203  41.322  41.347
 41.359  41.401  41.431  41.472  41.484
 
 Beta MOs
 -- Occupied --
-10.310 -10.304  -0.988  -0.796  -0.625  -0.564  -0.551  -0.515
 -- Virtual --
  0.044   0.061   0.064   0.065   0.078   0.094   0.140   0.153
  0.158   0.174   0.193   0.195   0.205   0.213   0.266   0.269
  0.299   0.324   0.366   0.416   0.532   0.557   0.568   0.604
  0.653   0.670   0.689   0.725   0.726   0.751   0.754   0.754
  0.786   0.812   0.909   0.921   1.009   1.015   1.085   1.126
  1.157   1.179   1.255   1.277   1.333   1.373   1.403   1.420
  1.498   1.514   1.545   1.593   1.600   1.616   1.644   1.714
  1.766   1.772   2.569   2.645   2.705   2.749   2.818   2.958
  2.985   3.052   3.054   3.138   3.200   3.209   3.259   3.303
  3.319   3.342   3.357   3.451   3.456   3.486   3.576   3.593
  3.688   3.696   3.784   3.787   3.903   3.943   4.063   4.075
  4.194   4.242   4.248   4.348   4.369   4.421   4.435   4.497
  4.539   4.592   4.656   4.764   4.804   4.902   5.212   5.418
  5.750   5.802   5.885   5.901  24.251  24.528  27.538  27.936
 28.286  28.302  28.349  28.599  41.139  41.188  41.215  41.326
 41.370  41.382  41.400  41.430  41.472  41.487
 --------------------------------------------------------------
 
          Ground-State Mulliken Net Atomic Charges

     Atom                 Charge (a.u.)    Spin (a.u.)
  --------------------------------------------------------
      1 C                    -0.158806      -0.103298
      2 C                    -0.176842       1.120878
      3 H                     0.059791       0.059628
      4 H                     0.064745       0.013976
      5 H                     0.064803       0.014231
      6 H                     0.073192      -0.052680
      7 H                     0.073117      -0.052735
  --------------------------------------------------------
  Sum of atomic charges =     0.000000
  Sum of spin   charges =     1.000000

 -----------------------------------------------------------------
                    Cartesian Multipole Moments
 -----------------------------------------------------------------
    Charge (ESU x 10^10)
                 0.0000
    Dipole Moment (Debye)
         X       0.1398      Y       0.0000      Z      -0.2261
       Tot       0.2658
    Quadrupole Moments (Debye-Ang)
        XX     -14.9914     XY      -0.0013     YY     -13.2832
        XZ       0.3058     YZ      -0.0002     ZZ     -14.3112
    Octapole Moments (Debye-Ang^2)
       XXX       0.3478    XXY      -0.0001    XYY      -0.6723
       YYY      -0.0002    XXZ     -12.1691    XYZ      -0.0025
       YYZ      -8.6390    XZZ       0.5126    YZZ      -0.0003
       ZZZ     -29.4472
    Hexadecapole Moments (Debye-Ang^3)
      XXXX     -23.3816   XXXY      -0.0021   XXYY      -8.8586
      XYYY      -0.0026   YYYY     -27.2586   XXXZ      -0.8207
      XXYZ      -0.0004   XYYZ       0.5423   YYYZ      -0.0007
      XXZZ     -28.3214   XYZZ      -0.0057   YYZZ     -21.6739
      XZZZ       0.8775   YZZZ      -0.0008   ZZZZ    -125.6859
 -----------------------------------------------------------------
 Total job time:  38.94s(wall), 38.20s(cpu) 
 Mon Jun  3 17:06:34 2013

        *************************************************************
        *                                                           *
        *  Thank you very much for using Q-Chem.  Have a nice day.  *
        *                                                           *
        *************************************************************


0 sent ACK to 0 
now end server 0 ... 
 
**********************************************************************
Job 3 of 3 
**********************************************************************
 
Process 0 of 1 is on cl200.stfx.acenet.ca - thread support 1
initial socket setup ...start
initial socket setup ...done 
now start server 0 ... 

cmd = /usr/bin/ssh clhead /usr/local/qchem/bin/get_hostid 1839810654 > /scratch/tmp/6027846.1.medium.q/qchem22669/lic.dat
                  Welcome to Q-Chem
     A Quantum Leap Into The Future Of Chemistry

 Y. Shao, L. Fusti-Molnar, Y. Jung, J. Kussmann, C. Ochsenfeld,
 S. T. Brown, A. T. B. Gilbert, L. V. Slipchenko,S. V. Levchenko,
 D. P. O'Neill, R. A. DiStasio Jr., R. C. Lochan, T. Wang,
 G. J. O. Beran, N. A. Besley, J. M. Herbert, C. Y. Lin,
 T. Van Voorhis, S. H. Chien, A. Sodt, R. P. Steele, 
 V. A. Rassolov, P. E. Maslen, P. P. Korambath, R. D. Adamson,
 B. Austin, J. Baker, E. F. C. Byrd, H. Dachsel, R. J. Doerksen,
 A. Dreuw, B. D. Dunietz, A. D. Dutoi, T. R. Furlani,
 S. R. Gwaltney, A. Heyden, S. Hirata, C.-P. Hsu, G. Kedziora,
 R. Z. Khaliullin, P. Klunzinger, A. M. Lee, M. S. Lee, W. Liang,
 I. Lotan, N. Nair, B. Peters, E. I. Proynov, P. A. Pieniazek, 
 Y. M. Rhee, J. Ritchie, E. Rosta, C. D. Sherrill, 
 A. C. Simmonett, J. E. Subotnik, H. L. Woodcock III,
 W. Zhang, A. T. Bell, A. K. Chakraborty, D. M. Chipman,
 F. J. Keil, A. Warshel, W. J. Hehre, H. F. Schaefer III,
 J. Kong, A. I. Krylov, P. M. W. Gill, M. Head-Gordon,
 Q-Chem, Version 3.1, Q-Chem, Inc., Pittsburgh, PA (2007).

 Additional authors for Version 3.1: 
 Z. Gan, Y. Zhao, N. E. Schultz, D. Truhlar, E. Epifanovsky and M. Oana.

 Additional authors for Version 3.2: 
 R. Baer, B. R. Brooks, D. Casanova, J.-D. Chai, C.-L. Cheng, 
 C. Cramer, D. Crittenden, A. Ghysels, G. Hawkins, E. G. Hohenstein, 
 C. Kelley, W. Kurlancheek, D. Liotard, E. Livshits, P. Manohar, 
 A. Marenich, D. Neuhauser, R. Olson, M. A. Rohrdanz, K. S. Thanthiriwatte, 
 A. J. W. Thom, V. Vanovschi, C. F. Williams, Q. Wu and Z.-Q. You. 


 Intel X86 Linux Version

 Q-chem begins on Mon Jun  3 17:06:37 2013  

 Parallel job on  1  processors
Processing $rem in /usr/local/qchem/config/preferences.

theFileMan(): MAXOPENFILES=974 MAX_SUB_FILE_NUM=16
Maximum size of a physical file is 2.0 GB, maximum size of a tmp-file is 32.0 GB


--------------------------------------------------------------
User input:
--------------------------------------------------------------

$molecule
1,1
C
C,1,RCC
H,1,R1,2,A1
X,1,1.,2,X1,3,180.,0
H,1,R2,4,A2,2,90.,0
H,1,R2,4,A2,2,-90.,0
X,2,1.,1,X2,3,0.,0
H,2,R3,7,A3,1,90.,0
H,2,R3,7,A3,1,-90.,0

RCC=1.48936945
R1=1.10529134
R2=1.09701109
R3=1.08546443
A1=112.13113048
X1=129.25454486
A2=54.01302883
X2=171.53419822
A3=58.6932455

$end

$comment
positive
$end

$xc_functional
C PBE   1.00
X wPBE  1.00
$end

$rem
SYMMETRY_DECOMPOSITION	0
LRC_DFT                 true
exchange 		general
BASIS                   g3large
omega			800
mem_static              760
max_scf_cycles          200
scf_final_print         1
sym_ignore              true
$end

--------------------------------------------------------------
 Writing REM_CC_EA            7
 ----------------------------------------------------
       Standard Nuclear Orientation (Angstroms)
    I     Atom         X            Y            Z
 ----------------------------------------------------
    1      C       0.000000     0.000000     0.000000
    2      C       0.000000     0.000000     1.489369
    3      H       1.023858     0.000000    -0.416394
    4      H      -0.499145    -0.887647    -0.407885
    5      H      -0.499145     0.887647    -0.407885
    6      H       0.083036    -0.927418     2.047253
    7      H       0.083036     0.927418     2.047253
 ----------------------------------------------------
 Nuclear Repulsion Energy =    36.8646081075 hartrees
 There are        8 alpha and        8 beta electrons
 Requested basis set is G3large
 There are 50 shells and 134 basis functions

Total QAlloc Memory Limit   2000 MB
Mega-Array Size       743 MB
MEM_STATIC part       760 MB

                       Distance Matrix (Angstroms)
             C (  1)   C (  2)   H (  3)   H (  4)   H (  5)   H (  6)
   C (  2)  1.489369
   H (  3)  1.105291  2.163381
   H (  4)  1.097011  2.153285  1.762818
   H (  5)  1.097011  2.153285  1.762818  1.775294
   H (  6)  2.249054  1.085464  2.795497  2.523532  3.108230
   H (  7)  2.249054  1.085464  2.795497  3.108230  2.523532  1.854836

 
 A cutoff of  1.0D-08 yielded   1257 shell pairs
 There are   9069 function pairs ( 10810 Cartesian)
Evaluating contribution to one-electron hamiltonian from nuclear
 Smallest overlap matrix eigenvalue = 1.56E-04
 Multipole matrices computed through 2nd order

  Scale SEOQF with 1.000000e-01/1.000000e-01/1.000000e-01

 Standard Electronic Orientation quadrupole field applied
 Nucleus-field energy     =    -0.0000000021 hartrees
 Guess from superposition of atomic densities
 Warning:  Energy on first SCF cycle will be non-variational
 Long-range K will be added via erf
 Coulomb attenuation parameter = 0.8 bohr**(-1)
 A restricted Kohn-Sham SCF calculation will be
 performed using Pulay DIIS extrapolation
 Exchange:  wPBE + LR-HF      Correlation:  PBE
 Using SG-1 standard quadrature grid
 SCF converges when DIIS error is below 1.0E-05
 Requested basis set is G3large
 There are 50 shells and 134 basis functions
 A cutoff of  1.0D-08 yielded   1257 shell pairs
 There are   9069 function pairs ( 10810 Cartesian)
 Warning!  Inaccurate integrated density:
   Number of electrons =    16
   Numerical integral  =    16.999883480940
   Relative error      =     6.2492717559 %
 ---------------------------------------
  Cycle       Energy         DIIS Error
 ---------------------------------------
    1     -79.4932167995      3.46E-02
    2     -78.7308094964      4.37E-03
    3     -78.7976920823      1.83E-03
    4     -78.8086706520      6.42E-04
    5     -78.8118819098      2.62E-04
    6     -78.8127068088      1.22E-04
    7     -78.8129054456      3.40E-05
    8     -78.8129189477      8.41E-06 Convergence criterion met
 ---------------------------------------
 One-Electron    Energy =  -172.8160096972
 Total Coulomb   Energy =    69.4559658152
 Alpha Exchange  Energy =    -2.5728969260
 Beta  Exchange  Energy =    -2.5728969260
 DFT   Exchange  Energy =    -6.6789636757
 DFT Correlation Energy =    -0.4927256435
 Nuclear Repu.   Energy =    36.8646081054
 Nuclear Attr.   Energy =  -251.0866737223
 Kinetic         Energy =    78.2706640251
 SCF time:  CPU 31.53 s  wall 31.92 s
 Final Alpha MO Eigenvalues
            1           2           3           4           5           6
    1 -10.7302550 -10.5748832  -1.3098295  -1.1218749  -0.9487813  -0.8679381
            7           8           9          10          11          12
    1  -0.8328760  -0.7942416  -0.2852229  -0.1139843  -0.0843465  -0.0811829
           13
    1  -0.0695344
 Analysis of SCF Wavefunction
 
 --------------------------------------------------------------
                    Orbital Energies (a.u.)
 --------------------------------------------------------------
 
 Alpha MOs
 -- Occupied --
-10.730 -10.575  -1.310  -1.122  -0.949  -0.868  -0.833  -0.794
 -- Virtual --
 -0.285  -0.114  -0.084  -0.081  -0.070  -0.039  -0.031  -0.022
 -0.011  -0.009   0.021   0.028   0.037   0.043   0.053   0.058
  0.091   0.117   0.148   0.195   0.309   0.319   0.339   0.367
  0.382   0.409   0.433   0.433   0.450   0.490   0.492   0.495
  0.527   0.581   0.668   0.675   0.739   0.765   0.826   0.855
  0.887   0.897   0.994   1.039   1.080   1.108   1.133   1.164
  1.230   1.243   1.288   1.318   1.328   1.366   1.388   1.430
  1.513   1.516   2.281   2.372   2.406   2.486   2.501   2.571
  2.642   2.734   2.737   2.832   2.844   2.894   2.931   2.966
  2.988   3.041   3.052   3.129   3.129   3.200   3.264   3.281
  3.338   3.356   3.486   3.492   3.606   3.644   3.787   3.788
  3.908   3.932   3.939   4.040   4.062   4.109   4.118   4.219
  4.245   4.331   4.373   4.483   4.508   4.599   4.895   5.110
  5.437   5.467   5.624   5.627  23.869  24.225  27.097  27.596
 27.921  28.020  28.051  28.258  40.732  40.806  40.928  40.935
 40.947  41.015  41.068  41.138  41.163  41.210
 --------------------------------------------------------------
 
          Ground-State Mulliken Net Atomic Charges

     Atom                 Charge (a.u.)
  ----------------------------------------
      1 C                    -0.136839
      2 C                     0.358758
      3 H                     0.164451
      4 H                     0.135061
      5 H                     0.135163
      6 H                     0.171714
      7 H                     0.171694
  ----------------------------------------
  Sum of atomic charges =     1.000000

 -----------------------------------------------------------------
                    Cartesian Multipole Moments
 -----------------------------------------------------------------
    Charge (ESU x 10^10)
                 4.8032
    Dipole Moment (Debye)
         X       0.2513      Y       0.0002      Z       5.0710
       Tot       5.0773
    Quadrupole Moments (Debye-Ang)
        XX     -10.4780     XY      -0.0007     YY      -9.6539
        XZ      -0.0102     YZ      -0.0003     ZZ      -0.6915
    Octapole Moments (Debye-Ang^2)
       XXX       0.9631    XXY      -0.0001    XYY      -0.9251
       YYY       0.0004    XXZ      -7.9867    XYZ      -0.0003
       YYZ      -4.6793    XZZ       0.3780    YZZ      -0.0001
       ZZZ      -3.7953
    Hexadecapole Moments (Debye-Ang^3)
      XXXX     -14.1431   XXXY      -0.0007   XXYY      -6.0822
      XYYY      -0.0008   YYYY     -18.7034   XXXZ      -1.6705
      XXYZ      -0.0002   XYYZ       0.9859   YYYZ      -0.0006
      XXZZ     -16.9975   XYZZ      -0.0015   YYZZ     -10.4391
      XZZZ       0.3406   YZZZ      -0.0007   ZZZZ     -60.8764
 -----------------------------------------------------------------
 Total job time:  32.06s(wall), 31.66s(cpu) 
 Mon Jun  3 17:07:09 2013

        *************************************************************
        *                                                           *
        *  Thank you very much for using Q-Chem.  Have a nice day.  *
        *                                                           *
        *************************************************************


0 sent ACK to 0 
now end server 0 ... 
