Process 0 of 1 is on cl158.stfx.acenet.ca - thread support 1
initial socket setup ...start
initial socket setup ...done 
now start server 0 ... 

cmd = /usr/bin/ssh clhead /usr/local/qchem/bin/get_hostid 1947581685 > /scratch/tmp/6028500.1.medium.q/qchem32681/lic.dat
                  Welcome to Q-Chem
     A Quantum Leap Into The Future Of Chemistry

 Y. Shao, L. Fusti-Molnar, Y. Jung, J. Kussmann, C. Ochsenfeld,
 S. T. Brown, A. T. B. Gilbert, L. V. Slipchenko,S. V. Levchenko,
 D. P. O'Neill, R. A. DiStasio Jr., R. C. Lochan, T. Wang,
 G. J. O. Beran, N. A. Besley, J. M. Herbert, C. Y. Lin,
 T. Van Voorhis, S. H. Chien, A. Sodt, R. P. Steele, 
 V. A. Rassolov, P. E. Maslen, P. P. Korambath, R. D. Adamson,
 B. Austin, J. Baker, E. F. C. Byrd, H. Dachsel, R. J. Doerksen,
 A. Dreuw, B. D. Dunietz, A. D. Dutoi, T. R. Furlani,
 S. R. Gwaltney, A. Heyden, S. Hirata, C.-P. Hsu, G. Kedziora,
 R. Z. Khaliullin, P. Klunzinger, A. M. Lee, M. S. Lee, W. Liang,
 I. Lotan, N. Nair, B. Peters, E. I. Proynov, P. A. Pieniazek, 
 Y. M. Rhee, J. Ritchie, E. Rosta, C. D. Sherrill, 
 A. C. Simmonett, J. E. Subotnik, H. L. Woodcock III,
 W. Zhang, A. T. Bell, A. K. Chakraborty, D. M. Chipman,
 F. J. Keil, A. Warshel, W. J. Hehre, H. F. Schaefer III,
 J. Kong, A. I. Krylov, P. M. W. Gill, M. Head-Gordon,
 Q-Chem, Version 3.1, Q-Chem, Inc., Pittsburgh, PA (2007).

 Additional authors for Version 3.1: 
 Z. Gan, Y. Zhao, N. E. Schultz, D. Truhlar, E. Epifanovsky and M. Oana.

 Additional authors for Version 3.2: 
 R. Baer, B. R. Brooks, D. Casanova, J.-D. Chai, C.-L. Cheng, 
 C. Cramer, D. Crittenden, A. Ghysels, G. Hawkins, E. G. Hohenstein, 
 C. Kelley, W. Kurlancheek, D. Liotard, E. Livshits, P. Manohar, 
 A. Marenich, D. Neuhauser, R. Olson, M. A. Rohrdanz, K. S. Thanthiriwatte, 
 A. J. W. Thom, V. Vanovschi, C. F. Williams, Q. Wu and Z.-Q. You. 


 Intel X86 Linux Version

 Q-chem begins on Tue Jun  4 15:37:35 2013  

 Parallel job on  1  processors
Processing $rem in /usr/local/qchem/config/preferences.

theFileMan(): MAXOPENFILES=974 MAX_SUB_FILE_NUM=16
Maximum size of a physical file is 2.0 GB, maximum size of a tmp-file is 32.0 GB


--------------------------------------------------------------
User input:
--------------------------------------------------------------

$molecule
-1,2
C
C,1,cc
Cl,1,ccl,2,cccl
Cl,1,ccl,2,cccl,3,180.,0
Cl,2,ccl,1,cccl,3,180.,0
Cl,2,ccl,1,cccl,3,0.,0

 cc=1.34683514
 ccl=1.73153631
 cccl=122.46468603

6

C         -0.00000       -0.00000        0.00028
C         -0.00000       -0.00000        1.34655
Cl         1.50798        0.00000       -0.90989
Cl        -1.50798       -0.00000       -0.90989
Cl        -1.50798        0.00000        2.25672
Cl         1.50798       -0.00000        2.25672
$end

$comment
negative
$end

$xc_functional
C PBE   1.00
X wPBE  1.00
$end

$rem
SYMMETRY_DECOMPOSITION	0
exchange 		general
LRC_DFT                 true
BASIS                   g3large
omega			600
mem_static              760
max_scf_cycles          200
scf_final_print         1
sym_ignore              true
$end

--------------------------------------------------------------
 Writing REM_CC_EA            6
 ----------------------------------------------------
       Standard Nuclear Orientation (Angstroms)
    I     Atom         X            Y            Z
 ----------------------------------------------------
    1      C       0.000000     0.000000     0.000000
    2      C       0.000000     0.000000     1.346835
    3      Cl      1.460936     0.000000    -0.929454
    4      Cl     -1.460936     0.000000    -0.929454
    5      Cl     -1.460936     0.000000     2.276289
    6      Cl      1.460936     0.000000     2.276289
 ----------------------------------------------------
 Nuclear Repulsion Energy =   489.2655918630 hartrees
 There are       41 alpha and       40 beta electrons
 Requested basis set is G3large
 There are 96 shells and 348 basis functions

Total QAlloc Memory Limit   2000 MB
Mega-Array Size       743 MB
MEM_STATIC part       760 MB

                       Distance Matrix (Angstroms)
             C (  1)   C (  2)   Cl(  3)   Cl(  4)   Cl(  5)
   C (  2)  1.346835
   Cl(  3)  1.731536  2.704778
   Cl(  4)  1.731536  2.704778  2.921872
   Cl(  5)  2.704778  1.731536  4.337525  3.205742
   Cl(  6)  2.704778  1.731536  3.205742  4.337525  2.921872
 
 A cutoff of  1.0D-08 yielded   3442 shell pairs
 There are  47196 function pairs ( 65555 Cartesian)
Evaluating contribution to one-electron hamiltonian from nuclear
 Smallest overlap matrix eigenvalue = 1.03E-05

 Q-Chem warning in module mkSTV.C, line 194:

 Overlap eigenvalue is smaller than square root of threshold

 Multipole matrices computed through 2nd order

  Scale SEOQF with 1.000000e-01/1.000000e-01/1.000000e-01

 Standard Electronic Orientation quadrupole field applied
 Nucleus-field energy     =    -0.0000000180 hartrees
 Guess from superposition of atomic densities
 Warning:  Energy on first SCF cycle will be non-variational
 Long-range K will be added via erf
 Coulomb attenuation parameter = 0.6 bohr**(-1)
 An unrestricted Kohn-Sham SCF calculation will be
 performed using Pulay DIIS extrapolation
 Exchange:  wPBE + LR-HF      Correlation:  PBE
 Using SG-1 standard quadrature grid
 SCF converges when DIIS error is below 1.0E-05
 Requested basis set is G3large
 There are 96 shells and 348 basis functions
 A cutoff of  1.0D-08 yielded   3442 shell pairs
 There are  47196 function pairs ( 65555 Cartesian)
 Warning!  Inaccurate integrated density:
   Number of electrons =    81
   Numerical integral  =    80.000221088661
   Relative error      =    -1.2342949523 %
 ---------------------------------------
  Cycle       Energy         DIIS Error
 ---------------------------------------
    1   -1917.8943810114      1.96E-02
    2   -1916.3319571259      1.90E-03
    3   -1916.3858183899      1.49E-03
    4   -1916.4154964932      3.61E-04
    5   -1916.4208551537      1.44E-04
    6   -1916.4226826279      7.28E-05
    7   -1916.4238631088      4.73E-05
    8   -1916.4248450293      4.15E-05
    9   -1916.4260043693      4.07E-05
   10   -1916.4263615920      4.08E-05
   11   -1916.4254594892      3.70E-05
   12   -1916.4246953368      3.51E-05
   13   -1916.4238491841      2.30E-05
   14   -1916.4236689687      1.85E-05
   15   -1916.4237603995      1.37E-05
   16   -1916.4238367425      2.85E-05
   17   -1916.4238411004      1.53E-05
   18   -1916.4238584768      2.49E-06 Convergence criterion met
 ---------------------------------------
 One-Electron    Energy = -3631.2472713476
 Total Coulomb   Energy =  1348.9809977567
 Alpha Exchange  Energy =   -11.7772825342
 Beta  Exchange  Energy =   -11.6610491045
 DFT   Exchange  Energy =   -96.8816012147
 DFT Correlation Energy =    -3.1032438775
 Nuclear Repu.   Energy =   489.2655918450
 Nuclear Attr.   Energy = -5545.1254299323
 Kinetic         Energy =  1913.8781585847
 <S^2> = 0.7527
 SCF time:  CPU 1328.34 s  wall 1339.14 s
 Final Alpha MO Eigenvalues
            1           2           3           4           5           6
    1-100.8674756-100.8673598-100.8669355-100.8669332 -10.2021820 -10.2012964
            7           8           9          10          11          12
    1  -9.3925765  -9.3924780  -9.3920583  -9.3920470  -7.2023687  -7.2022681
           13          14          15          16          17          18
    1  -7.2018432  -7.2018324  -7.1912383  -7.1911387  -7.1907287  -7.1907188
           19          20          21          22          23          24
    1  -7.1903419  -7.1902416  -7.1898355  -7.1898252  -1.0421024  -0.9792016
           25          26          27          28          29          30
    1  -0.9325506  -0.9068836  -0.7866649  -0.5964998  -0.5238110  -0.5155332
           31          32          33          34          35          36
    1  -0.4726441  -0.4330685  -0.3917158  -0.3671336  -0.3601030  -0.3578049
           37          38          39          40          41          42
    1  -0.3494758  -0.3433200  -0.3107833  -0.2375799   0.0557640   0.1504730
           43          44          45          46
    1   0.1675311   0.1771963   0.1921638   0.2120216
 Final Beta MO Eigenvalues
            1           2           3           4           5           6
    1-100.8670569-100.8669409-100.8664948-100.8664915 -10.1992388 -10.1983236
            7           8           9          10          11          12
    1  -9.3920991  -9.3920005  -9.3915589  -9.3915465  -7.2015540  -7.2014532
           13          14          15          16          17          18
    1  -7.2009765  -7.2009641  -7.1908536  -7.1907537  -7.1903275  -7.1903164
           19          20          21          22          23          24
    1  -7.1899006  -7.1897998  -7.1893758  -7.1893644  -1.0364127  -0.9726324
           25          26          27          28          29          30
    1  -0.9283393  -0.9018908  -0.7820432  -0.5815779  -0.5176410  -0.5133066
           31          32          33          34          35          36
    1  -0.4683253  -0.4269129  -0.3890283  -0.3645768  -0.3571469  -0.3559857
           37          38          39          40          41          42
    1  -0.3462457  -0.3414466  -0.3075856  -0.2329146   0.1728249   0.1822281
           43          44          45
    1   0.1825510   0.1958850   0.2012169
 Analysis of SCF Wavefunction
 
 --------------------------------------------------------------
                    Orbital Energies (a.u.)
 --------------------------------------------------------------
 
 Alpha MOs
 -- Occupied --
*******-100.867-100.867-100.867 -10.202 -10.201  -9.393  -9.392
 -9.392  -9.392  -7.202  -7.202  -7.202  -7.202  -7.191  -7.191
 -7.191  -7.191  -7.190  -7.190  -7.190  -7.190  -1.042  -0.979
 -0.933  -0.907  -0.787  -0.596  -0.524  -0.516  -0.473  -0.433
 -0.392  -0.367  -0.360  -0.358  -0.349  -0.343  -0.311  -0.238
  0.056
 -- Virtual --
  0.150   0.168   0.177   0.192   0.212   0.218   0.225   0.234
  0.238   0.249   0.253   0.276   0.277   0.279   0.282   0.295
  0.299   0.312   0.327   0.331   0.344   0.345   0.370   0.384
  0.398   0.399   0.406   0.437   0.442   0.455   0.491   0.507
  0.517   0.532   0.544   0.581   0.585   0.598   0.599   0.607
  0.611   0.648   0.656   0.664   0.685   0.687   0.696   0.701
  0.711   0.715   0.734   0.737   0.766   0.788   0.790   0.798
  0.821   0.848   0.853   0.860   0.891   0.918   0.983   1.002
  1.010   1.021   1.032   1.058   1.072   1.102   1.148   1.173
  1.202   1.242   1.244   1.268   1.291   1.295   1.311   1.326
  1.333   1.339   1.359   1.366   1.366   1.375   1.389   1.397
  1.400   1.408   1.411   1.419   1.428   1.428   1.439   1.456
  1.466   1.474   1.489   1.519   1.527   1.530   1.551   1.558
  1.590   1.655   1.656   1.671   1.693   1.694   1.729   1.751
  1.784   1.818   1.839   1.855   1.877   1.892   1.926   1.939
  1.948   1.951   1.958   2.032   2.039   2.045   2.100   2.114
  2.124   2.304   2.418   2.439   2.447   2.500   2.520   2.578
  2.597   2.609   2.671   2.738   2.792   2.890   2.893   3.009
  3.116   3.124   3.137   3.274   3.286   3.382   3.385   3.442
  3.558   3.567   3.567   3.631   3.704   3.724   3.751   3.779
  3.784   3.859   3.881   3.905   3.932   4.034   4.197   4.227
  4.292   4.580   4.587   4.635   4.641   4.642   4.653   4.661
  4.668   4.668   4.702   4.713   4.719   4.725   4.749   4.753
  4.765   4.777   4.777   4.783   4.795   4.835   4.858   4.867
  4.887   4.893   4.893   4.922   4.924   4.997   5.030   5.193
  5.311   5.336   5.352   5.368   5.374   5.375   5.393   5.441
  5.454   5.481   5.496   5.534   5.559   5.594   5.608   5.727
  5.796   5.961   6.091   6.356   6.375  10.059  10.176  10.221
 10.357  20.805  20.812  20.827  20.853  20.857  20.888  20.893
 20.935  21.046  21.126  21.178  21.207  23.816  24.660  27.344
 27.346  27.356  27.389  27.393  27.393  27.393  27.402  27.415
 27.426  27.429  27.438  27.440  27.462  27.465  27.469  27.475
 27.509  27.541  27.577  27.593  27.664  28.348  28.353  28.435
 28.579  37.045  37.047  37.047  37.049  37.049  37.049  37.050
 37.052  37.058  37.058  37.058  37.058  37.060  37.060  37.060
 37.060  37.062  37.064  37.066  37.067  37.070  37.077  37.077
 37.077  37.081  37.081  37.086  37.093  41.003  41.056  41.096
 41.273  41.273  41.320  41.352  41.364  41.404  41.438 215.963
216.089 216.130 216.301
 
 Beta MOs
 -- Occupied --
*******-100.867-100.866-100.866 -10.199 -10.198  -9.392  -9.392
 -9.392  -9.392  -7.202  -7.201  -7.201  -7.201  -7.191  -7.191
 -7.190  -7.190  -7.190  -7.190  -7.189  -7.189  -1.036  -0.973
 -0.928  -0.902  -0.782  -0.582  -0.518  -0.513  -0.468  -0.427
 -0.389  -0.365  -0.357  -0.356  -0.346  -0.341  -0.308  -0.233
 -- Virtual --
  0.173   0.182   0.183   0.196   0.201   0.227   0.233   0.240
  0.241   0.245   0.254   0.255   0.282   0.283   0.285   0.290
  0.300   0.314   0.317   0.328   0.337   0.346   0.348   0.369
  0.385   0.398   0.400   0.412   0.438   0.449   0.456   0.492
  0.509   0.518   0.535   0.545   0.583   0.587   0.599   0.601
  0.610   0.612   0.649   0.660   0.668   0.693   0.694   0.697
  0.705   0.713   0.716   0.735   0.739   0.768   0.790   0.791
  0.798   0.824   0.850   0.858   0.861   0.898   0.926   0.984
  1.006   1.011   1.025   1.034   1.062   1.074   1.104   1.150
  1.175   1.206   1.244   1.246   1.269   1.294   1.296   1.312
  1.328   1.334   1.340   1.362   1.367   1.368   1.377   1.391
  1.399   1.403   1.409   1.413   1.422   1.430   1.431   1.441
  1.459   1.467   1.476   1.492   1.521   1.530   1.533   1.553
  1.559   1.591   1.657   1.659   1.674   1.694   1.695   1.730
  1.754   1.786   1.820   1.841   1.856   1.879   1.895   1.930
  1.941   1.948   1.953   1.961   2.033   2.042   2.047   2.104
  2.116   2.125   2.307   2.420   2.440   2.449   2.502   2.521
  2.580   2.600   2.611   2.673   2.740   2.796   2.893   2.896
  3.014   3.122   3.127   3.139   3.278   3.290   3.385   3.389
  3.448   3.559   3.574   3.575   3.635   3.709   3.725   3.760
  3.781   3.790   3.865   3.886   3.908   3.943   4.038   4.203
  4.232   4.296   4.582   4.591   4.638   4.643   4.645   4.655
  4.663   4.670   4.670   4.705   4.715   4.721   4.728   4.751
  4.756   4.768   4.779   4.779   4.785   4.798   4.838   4.860
  4.870   4.889   4.896   4.897   4.925   4.927   5.001   5.033
  5.195   5.312   5.337   5.353   5.369   5.376   5.378   5.394
  5.442   5.455   5.482   5.498   5.535   5.560   5.595   5.609
  5.729   5.797   5.962   6.092   6.357   6.377  10.059  10.177
 10.221  10.357  20.806  20.812  20.827  20.854  20.857  20.889
 20.893  20.936  21.047  21.127  21.179  21.209  23.819  24.663
 27.344  27.347  27.358  27.390  27.393  27.394  27.395  27.402
 27.415  27.427  27.429  27.439  27.441  27.463  27.466  27.470
 27.476  27.511  27.542  27.578  27.594  27.667  28.351  28.356
 28.437  28.583  37.046  37.047  37.047  37.049  37.049  37.049
 37.050  37.053  37.058  37.058  37.058  37.059  37.060  37.061
 37.061  37.061  37.062  37.064  37.067  37.068  37.070  37.077
 37.077  37.078  37.081  37.081  37.086  37.093  41.005  41.057
 41.097  41.274  41.274  41.320  41.352  41.365  41.406  41.439
215.963 216.089 216.131 216.301
 --------------------------------------------------------------
 
          Ground-State Mulliken Net Atomic Charges

     Atom                 Charge (a.u.)    Spin (a.u.)
  --------------------------------------------------------
      1 C                    -0.628890       1.260003
      2 C                    -0.626639       1.254490
      3 Cl                    0.071244      -0.386753
      4 Cl                    0.057512      -0.371654
      5 Cl                    0.070172      -0.385634
      6 Cl                    0.056600      -0.370451
  --------------------------------------------------------
  Sum of atomic charges =    -1.000000
  Sum of spin   charges =     1.000000

 -----------------------------------------------------------------
                    Cartesian Multipole Moments
 -----------------------------------------------------------------
    Charge (ESU x 10^10)
                -4.8032
    Dipole Moment (Debye)
         X      -0.0004      Y      -0.0003      Z      -3.2255
       Tot       3.2255
    Quadrupole Moments (Debye-Ang)
        XX     -92.1846     XY       0.0005     YY     -69.2848
        XZ       0.1202     YZ      -0.0009     ZZ     -99.2261
    Octapole Moments (Debye-Ang^2)
       XXX      -0.0092    XXY      -0.0054    XYY      -0.0017
       YYY      -0.0020    XXZ     -61.9952    XYZ       0.0002
       YYZ     -46.6387    XZZ       0.1548    YZZ      -0.0064
       ZZZ    -197.4417
    Hexadecapole Moments (Debye-Ang^3)
      XXXX   -1089.9813   XXXY       0.0055   XXYY    -180.3732
      XYYY       0.0044   YYYY    -119.1554   XXXZ       2.5987
      XXYZ      -0.0057   XYYZ       0.4003   YYYZ      -0.0075
      XXZZ    -541.1194   XYZZ       0.0040   YYZZ    -256.8117
      XZZZ       1.9994   YZZZ      -0.0178   ZZZZ   -1606.3913
 -----------------------------------------------------------------
 Total job time:  1340.24s(wall), 1329.03s(cpu) 
 Tue Jun  4 15:59:55 2013

        *************************************************************
        *                                                           *
        *  Thank you very much for using Q-Chem.  Have a nice day.  *
        *                                                           *
        *************************************************************


0 sent ACK to 0 
now end server 0 ... 
 
**********************************************************************
Job 2 of 3 
**********************************************************************
 
Process 0 of 1 is on cl158.stfx.acenet.ca - thread support 1
initial socket setup ...start
initial socket setup ...done 
now start server 0 ... 

cmd = /usr/bin/ssh clhead /usr/local/qchem/bin/get_hostid 454460512 > /scratch/tmp/6028500.1.medium.q/qchem32681/lic.dat
                  Welcome to Q-Chem
     A Quantum Leap Into The Future Of Chemistry

 Y. Shao, L. Fusti-Molnar, Y. Jung, J. Kussmann, C. Ochsenfeld,
 S. T. Brown, A. T. B. Gilbert, L. V. Slipchenko,S. V. Levchenko,
 D. P. O'Neill, R. A. DiStasio Jr., R. C. Lochan, T. Wang,
 G. J. O. Beran, N. A. Besley, J. M. Herbert, C. Y. Lin,
 T. Van Voorhis, S. H. Chien, A. Sodt, R. P. Steele, 
 V. A. Rassolov, P. E. Maslen, P. P. Korambath, R. D. Adamson,
 B. Austin, J. Baker, E. F. C. Byrd, H. Dachsel, R. J. Doerksen,
 A. Dreuw, B. D. Dunietz, A. D. Dutoi, T. R. Furlani,
 S. R. Gwaltney, A. Heyden, S. Hirata, C.-P. Hsu, G. Kedziora,
 R. Z. Khaliullin, P. Klunzinger, A. M. Lee, M. S. Lee, W. Liang,
 I. Lotan, N. Nair, B. Peters, E. I. Proynov, P. A. Pieniazek, 
 Y. M. Rhee, J. Ritchie, E. Rosta, C. D. Sherrill, 
 A. C. Simmonett, J. E. Subotnik, H. L. Woodcock III,
 W. Zhang, A. T. Bell, A. K. Chakraborty, D. M. Chipman,
 F. J. Keil, A. Warshel, W. J. Hehre, H. F. Schaefer III,
 J. Kong, A. I. Krylov, P. M. W. Gill, M. Head-Gordon,
 Q-Chem, Version 3.1, Q-Chem, Inc., Pittsburgh, PA (2007).

 Additional authors for Version 3.1: 
 Z. Gan, Y. Zhao, N. E. Schultz, D. Truhlar, E. Epifanovsky and M. Oana.

 Additional authors for Version 3.2: 
 R. Baer, B. R. Brooks, D. Casanova, J.-D. Chai, C.-L. Cheng, 
 C. Cramer, D. Crittenden, A. Ghysels, G. Hawkins, E. G. Hohenstein, 
 C. Kelley, W. Kurlancheek, D. Liotard, E. Livshits, P. Manohar, 
 A. Marenich, D. Neuhauser, R. Olson, M. A. Rohrdanz, K. S. Thanthiriwatte, 
 A. J. W. Thom, V. Vanovschi, C. F. Williams, Q. Wu and Z.-Q. You. 


 Intel X86 Linux Version

 Q-chem begins on Tue Jun  4 15:59:59 2013  

 Parallel job on  1  processors
Processing $rem in /usr/local/qchem/config/preferences.

theFileMan(): MAXOPENFILES=974 MAX_SUB_FILE_NUM=16
Maximum size of a physical file is 2.0 GB, maximum size of a tmp-file is 32.0 GB


--------------------------------------------------------------
User input:
--------------------------------------------------------------

$molecule
0,1
C
C,1,cc
Cl,1,ccl,2,cccl
Cl,1,ccl,2,cccl,3,180.,0
Cl,2,ccl,1,cccl,3,180.,0
Cl,2,ccl,1,cccl,3,0.,0

 cc=1.34683514
 ccl=1.73153631
 cccl=122.46468603

6

C         -0.00000       -0.00000        0.00028
C         -0.00000       -0.00000        1.34655
Cl         1.50798        0.00000       -0.90989
Cl        -1.50798       -0.00000       -0.90989
Cl        -1.50798        0.00000        2.25672
Cl         1.50798       -0.00000        2.25672
$end

$comment
neutral
$end

$xc_functional
C PBE   1.00
X wPBE  1.00
$end


$rem
SYMMETRY_DECOMPOSITION	0
LRC_DFT                 true
exchange 		general
BASIS                   g3large
omega			600
mem_static              760
max_scf_cycles          200
scf_final_print         1
sym_ignore              true
$end

--------------------------------------------------------------
 Writing REM_CC_EA            6
 ----------------------------------------------------
       Standard Nuclear Orientation (Angstroms)
    I     Atom         X            Y            Z
 ----------------------------------------------------
    1      C       0.000000     0.000000     0.000000
    2      C       0.000000     0.000000     1.346835
    3      Cl      1.460936     0.000000    -0.929454
    4      Cl     -1.460936     0.000000    -0.929454
    5      Cl     -1.460936     0.000000     2.276289
    6      Cl      1.460936     0.000000     2.276289
 ----------------------------------------------------
 Nuclear Repulsion Energy =   489.2655918630 hartrees
 There are       40 alpha and       40 beta electrons
 Requested basis set is G3large
 There are 96 shells and 348 basis functions

Total QAlloc Memory Limit   2000 MB
Mega-Array Size       743 MB
MEM_STATIC part       760 MB

                       Distance Matrix (Angstroms)
             C (  1)   C (  2)   Cl(  3)   Cl(  4)   Cl(  5)
   C (  2)  1.346835
   Cl(  3)  1.731536  2.704778
   Cl(  4)  1.731536  2.704778  2.921872
   Cl(  5)  2.704778  1.731536  4.337525  3.205742
   Cl(  6)  2.704778  1.731536  3.205742  4.337525  2.921872
 
 A cutoff of  1.0D-08 yielded   3442 shell pairs
 There are  47196 function pairs ( 65555 Cartesian)
Evaluating contribution to one-electron hamiltonian from nuclear
 Smallest overlap matrix eigenvalue = 1.03E-05

 Q-Chem warning in module mkSTV.C, line 194:

 Overlap eigenvalue is smaller than square root of threshold

 Multipole matrices computed through 2nd order

  Scale SEOQF with 1.000000e-01/1.000000e-01/1.000000e-01

 Standard Electronic Orientation quadrupole field applied
 Nucleus-field energy     =    -0.0000000180 hartrees
 Guess from superposition of atomic densities
 Warning:  Energy on first SCF cycle will be non-variational
 Long-range K will be added via erf
 Coulomb attenuation parameter = 0.6 bohr**(-1)
 A restricted Kohn-Sham SCF calculation will be
 performed using Pulay DIIS extrapolation
 Exchange:  wPBE + LR-HF      Correlation:  PBE
 Using SG-1 standard quadrature grid
 SCF converges when DIIS error is below 1.0E-05
 Requested basis set is G3large
 There are 96 shells and 348 basis functions
 A cutoff of  1.0D-08 yielded   3442 shell pairs
 There are  47196 function pairs ( 65555 Cartesian)
 ---------------------------------------
  Cycle       Energy         DIIS Error
 ---------------------------------------
    1   -1917.8943810114      1.96E-02
    2   -1916.3560115243      2.57E-03
    3   -1916.3974295091      2.55E-03
    4   -1916.4820379987      3.01E-04
    5   -1916.4858578791      1.21E-04
    6   -1916.4864522703      3.58E-05
    7   -1916.4865203268      9.38E-06 Convergence criterion met
 ---------------------------------------
 One-Electron    Energy = -3618.6086005479
 Total Coulomb   Energy =  1336.1180806581
 Alpha Exchange  Energy =   -11.6746627076
 Beta  Exchange  Energy =   -11.6746627076
 DFT   Exchange  Energy =   -96.8271207238
 DFT Correlation Energy =    -3.0851461430
 Nuclear Repu.   Energy =   489.2655918450
 Nuclear Attr.   Energy = -5531.9559223615
 Kinetic         Energy =  1913.3473218136
 SCF time:  CPU 409.93 s  wall 418.73 s
 Final Alpha MO Eigenvalues
            1           2           3           4           5           6
    1-101.0268692-101.0268677-101.0267264-101.0267243 -10.3757442 -10.3748263
            7           8           9          10          11          12
    1  -9.5516000  -9.5515852  -9.5515001  -9.5514895  -7.3617991  -7.3617968
           13          14          15          16          17          18
    1  -7.3617101  -7.3617078  -7.3499515  -7.3499496  -7.3498612  -7.3498596
           19          20          21          22          23          24
    1  -7.3491213  -7.3491200  -7.3490299  -7.3490286  -1.1984429  -1.1341715
           25          26          27          28          29          30
    1  -1.0873187  -1.0607674  -0.9417080  -0.7436642  -0.6798418  -0.6725441
           31          32          33          34          35          36
    1  -0.6280979  -0.5864134  -0.5451174  -0.5205067  -0.5130897  -0.5101744
           37          38          39          40          41          42
    1  -0.5020856  -0.4959080  -0.4639145  -0.3915797   0.0423330   0.0572690
           43          44          45
    1   0.0623171   0.0679388   0.0907652
 Analysis of SCF Wavefunction
 
 --------------------------------------------------------------
                    Orbital Energies (a.u.)
 --------------------------------------------------------------
 
 Alpha MOs
 -- Occupied --
*******-101.027-101.027-101.027 -10.376 -10.375  -9.552  -9.552
 -9.552  -9.551  -7.362  -7.362  -7.362  -7.362  -7.350  -7.350
 -7.350  -7.350  -7.349  -7.349  -7.349  -7.349  -1.198  -1.134
 -1.087  -1.061  -0.942  -0.744  -0.680  -0.673  -0.628  -0.586
 -0.545  -0.521  -0.513  -0.510  -0.502  -0.496  -0.464  -0.392
 -- Virtual --
  0.042   0.057   0.062   0.068   0.091   0.093   0.103   0.105
  0.111   0.126   0.139   0.140   0.154   0.167   0.169   0.171
  0.183   0.189   0.203   0.206   0.216   0.219   0.231   0.249
  0.261   0.279   0.279   0.284   0.291   0.308   0.314   0.347
  0.363   0.376   0.388   0.401   0.437   0.440   0.458   0.459
  0.462   0.465   0.504   0.514   0.531   0.548   0.551   0.559
  0.567   0.574   0.576   0.597   0.598   0.624   0.653   0.659
  0.660   0.681   0.704   0.707   0.716   0.745   0.770   0.839
  0.853   0.862   0.876   0.888   0.908   0.922   0.954   1.004
  1.025   1.053   1.093   1.095   1.117   1.143   1.144   1.161
  1.176   1.184   1.189   1.212   1.216   1.216   1.225   1.240
  1.248   1.252   1.258   1.262   1.270   1.277   1.279   1.291
  1.307   1.316   1.323   1.338   1.368   1.378   1.378   1.402
  1.409   1.439   1.505   1.509   1.521   1.542   1.547   1.580
  1.600   1.637   1.668   1.686   1.704   1.727   1.741   1.775
  1.787   1.798   1.803   1.808   1.877   1.890   1.893   1.949
  1.964   1.971   2.152   2.266   2.288   2.296   2.349   2.368
  2.427   2.443   2.457   2.517   2.585   2.637   2.737   2.740
  2.849   2.956   2.966   2.978   3.116   3.128   3.224   3.226
  3.284   3.399   3.408   3.408   3.473   3.545   3.564   3.594
  3.620   3.625   3.700   3.722   3.745   3.773   3.875   4.038
  4.068   4.133   4.421   4.428   4.480   4.486   4.486   4.497
  4.505   4.513   4.513   4.544   4.558   4.563   4.570   4.593
  4.597   4.609   4.622   4.622   4.627   4.638   4.678   4.701
  4.711   4.729   4.733   4.737   4.765   4.767   4.839   4.872
  5.034   5.154   5.179   5.195   5.211   5.215   5.219   5.237
  5.283   5.296   5.324   5.339   5.376   5.401   5.436   5.450
  5.569   5.638   5.803   5.932   6.197   6.217   9.901  10.019
 10.063  10.199  20.647  20.654  20.668  20.695  20.698  20.730
 20.734  20.777  20.887  20.967  21.019  21.048  23.643  24.488
 27.185  27.188  27.190  27.230  27.231  27.234  27.234  27.243
 27.256  27.267  27.270  27.278  27.281  27.303  27.306  27.310
 27.315  27.344  27.381  27.416  27.431  27.493  28.177  28.185
 28.266  28.410  36.886  36.888  36.888  36.889  36.889  36.890
 36.890  36.893  36.899  36.899  36.899  36.899  36.900  36.901
 36.901  36.901  36.903  36.904  36.907  36.908  36.910  36.917
 36.917  36.917  36.921  36.921  36.926  36.933  40.831  40.883
 40.923  41.100  41.100  41.147  41.179  41.191  41.231  41.265
215.803 215.929 215.971 216.141
 --------------------------------------------------------------
 
          Ground-State Mulliken Net Atomic Charges

     Atom                 Charge (a.u.)
  ----------------------------------------
      1 C                     0.577777
      2 C                     0.577440
      3 Cl                   -0.288850
      4 Cl                   -0.288805
      5 Cl                   -0.288847
      6 Cl                   -0.288714
  ----------------------------------------
  Sum of atomic charges =     0.000000

 -----------------------------------------------------------------
                    Cartesian Multipole Moments
 -----------------------------------------------------------------
    Charge (ESU x 10^10)
                 0.0000
    Dipole Moment (Debye)
         X       0.0000      Y       0.0000      Z       0.0000
       Tot       0.0000
    Quadrupole Moments (Debye-Ang)
        XX     -58.0318     XY       0.0027     YY     -61.0694
        XZ      -0.0012     YZ      -0.0009     ZZ     -59.9688
    Octapole Moments (Debye-Ang^2)
       XXX       0.0001    XXY       0.0000    XYY       0.0000
       YYY       0.0000    XXZ     -39.0796    XYZ       0.0018
       YYZ     -41.1252    XZZ      -0.0016    YZZ      -0.0013
       ZZZ    -121.1522
    Hexadecapole Moments (Debye-Ang^3)
      XXXX    -651.4788   XXXY       0.0110   XXYY    -129.8206
      XYYY       0.0036   YYYY     -66.9298   XXXZ      -0.0052
      XXYZ      -0.0091   XYYZ      -0.0002   YYYZ      -0.0012
      XXZZ    -249.9217   XYZZ       0.0230   YYZZ    -184.3121
      XZZZ      -0.0029   YZZZ      -0.0104   ZZZZ   -1011.0955
 -----------------------------------------------------------------
 Total job time:  419.38s(wall), 410.56s(cpu) 
 Tue Jun  4 16:06:58 2013

        *************************************************************
        *                                                           *
        *  Thank you very much for using Q-Chem.  Have a nice day.  *
        *                                                           *
        *************************************************************


0 sent ACK to 0 
now end server 0 ... 
 
**********************************************************************
Job 3 of 3 
**********************************************************************
 
Process 0 of 1 is on cl158.stfx.acenet.ca - thread support 1
initial socket setup ...start
initial socket setup ...done 
now start server 0 ... 

cmd = /usr/bin/ssh clhead /usr/local/qchem/bin/get_hostid 955151192 > /scratch/tmp/6028500.1.medium.q/qchem32681/lic.dat
                  Welcome to Q-Chem
     A Quantum Leap Into The Future Of Chemistry

 Y. Shao, L. Fusti-Molnar, Y. Jung, J. Kussmann, C. Ochsenfeld,
 S. T. Brown, A. T. B. Gilbert, L. V. Slipchenko,S. V. Levchenko,
 D. P. O'Neill, R. A. DiStasio Jr., R. C. Lochan, T. Wang,
 G. J. O. Beran, N. A. Besley, J. M. Herbert, C. Y. Lin,
 T. Van Voorhis, S. H. Chien, A. Sodt, R. P. Steele, 
 V. A. Rassolov, P. E. Maslen, P. P. Korambath, R. D. Adamson,
 B. Austin, J. Baker, E. F. C. Byrd, H. Dachsel, R. J. Doerksen,
 A. Dreuw, B. D. Dunietz, A. D. Dutoi, T. R. Furlani,
 S. R. Gwaltney, A. Heyden, S. Hirata, C.-P. Hsu, G. Kedziora,
 R. Z. Khaliullin, P. Klunzinger, A. M. Lee, M. S. Lee, W. Liang,
 I. Lotan, N. Nair, B. Peters, E. I. Proynov, P. A. Pieniazek, 
 Y. M. Rhee, J. Ritchie, E. Rosta, C. D. Sherrill, 
 A. C. Simmonett, J. E. Subotnik, H. L. Woodcock III,
 W. Zhang, A. T. Bell, A. K. Chakraborty, D. M. Chipman,
 F. J. Keil, A. Warshel, W. J. Hehre, H. F. Schaefer III,
 J. Kong, A. I. Krylov, P. M. W. Gill, M. Head-Gordon,
 Q-Chem, Version 3.1, Q-Chem, Inc., Pittsburgh, PA (2007).

 Additional authors for Version 3.1: 
 Z. Gan, Y. Zhao, N. E. Schultz, D. Truhlar, E. Epifanovsky and M. Oana.

 Additional authors for Version 3.2: 
 R. Baer, B. R. Brooks, D. Casanova, J.-D. Chai, C.-L. Cheng, 
 C. Cramer, D. Crittenden, A. Ghysels, G. Hawkins, E. G. Hohenstein, 
 C. Kelley, W. Kurlancheek, D. Liotard, E. Livshits, P. Manohar, 
 A. Marenich, D. Neuhauser, R. Olson, M. A. Rohrdanz, K. S. Thanthiriwatte, 
 A. J. W. Thom, V. Vanovschi, C. F. Williams, Q. Wu and Z.-Q. You. 


 Intel X86 Linux Version

 Q-chem begins on Tue Jun  4 16:07:01 2013  

 Parallel job on  1  processors
Processing $rem in /usr/local/qchem/config/preferences.

theFileMan(): MAXOPENFILES=974 MAX_SUB_FILE_NUM=16
Maximum size of a physical file is 2.0 GB, maximum size of a tmp-file is 32.0 GB


--------------------------------------------------------------
User input:
--------------------------------------------------------------

$molecule
1,2
C
C,1,cc
Cl,1,ccl,2,cccl
Cl,1,ccl,2,cccl,3,180.,0
Cl,2,ccl,1,cccl,3,180.,0
Cl,2,ccl,1,cccl,3,0.,0

 cc=1.34683514
 ccl=1.73153631
 cccl=122.46468603

6

C         -0.00000       -0.00000        0.00028
C         -0.00000       -0.00000        1.34655
Cl         1.50798        0.00000       -0.90989
Cl        -1.50798       -0.00000       -0.90989
Cl        -1.50798        0.00000        2.25672
Cl         1.50798       -0.00000        2.25672
$end

$comment
positive
$end

$xc_functional
C PBE   1.00
X wPBE  1.00
$end

$rem
SYMMETRY_DECOMPOSITION	0
LRC_DFT                 true
exchange 		general
BASIS                   g3large
omega			600
mem_static              760
max_scf_cycles          200
scf_final_print         1
sym_ignore              true
$end

--------------------------------------------------------------
 Writing REM_CC_EA            6
 ----------------------------------------------------
       Standard Nuclear Orientation (Angstroms)
    I     Atom         X            Y            Z
 ----------------------------------------------------
    1      C       0.000000     0.000000     0.000000
    2      C       0.000000     0.000000     1.346835
    3      Cl      1.460936     0.000000    -0.929454
    4      Cl     -1.460936     0.000000    -0.929454
    5      Cl     -1.460936     0.000000     2.276289
    6      Cl      1.460936     0.000000     2.276289
 ----------------------------------------------------
 Nuclear Repulsion Energy =   489.2655918630 hartrees
 There are       40 alpha and       39 beta electrons
 Requested basis set is G3large
 There are 96 shells and 348 basis functions

Total QAlloc Memory Limit   2000 MB
Mega-Array Size       743 MB
MEM_STATIC part       760 MB

                       Distance Matrix (Angstroms)
             C (  1)   C (  2)   Cl(  3)   Cl(  4)   Cl(  5)
   C (  2)  1.346835
   Cl(  3)  1.731536  2.704778
   Cl(  4)  1.731536  2.704778  2.921872
   Cl(  5)  2.704778  1.731536  4.337525  3.205742
   Cl(  6)  2.704778  1.731536  3.205742  4.337525  2.921872
 
 A cutoff of  1.0D-08 yielded   3442 shell pairs
 There are  47196 function pairs ( 65555 Cartesian)
Evaluating contribution to one-electron hamiltonian from nuclear
 Smallest overlap matrix eigenvalue = 1.03E-05

 Q-Chem warning in module mkSTV.C, line 194:

 Overlap eigenvalue is smaller than square root of threshold

 Multipole matrices computed through 2nd order

  Scale SEOQF with 1.000000e-01/1.000000e-01/1.000000e-01

 Standard Electronic Orientation quadrupole field applied
 Nucleus-field energy     =    -0.0000000180 hartrees
 Guess from superposition of atomic densities
 Warning:  Energy on first SCF cycle will be non-variational
 Long-range K will be added via erf
 Coulomb attenuation parameter = 0.6 bohr**(-1)
 An unrestricted Kohn-Sham SCF calculation will be
 performed using Pulay DIIS extrapolation
 Exchange:  wPBE + LR-HF      Correlation:  PBE
 Using SG-1 standard quadrature grid
 SCF converges when DIIS error is below 1.0E-05
 Requested basis set is G3large
 There are 96 shells and 348 basis functions
 A cutoff of  1.0D-08 yielded   3442 shell pairs
 There are  47196 function pairs ( 65555 Cartesian)
 Warning!  Inaccurate integrated density:
   Number of electrons =    79
   Numerical integral  =    80.000221088661
   Relative error      =     1.2661026439 %
 ---------------------------------------
  Cycle       Energy         DIIS Error
 ---------------------------------------
    1   -1917.8943810114      1.96E-02
    2   -1915.8570757268      3.63E-03
    3   -1915.8415588123      4.48E-03
    4   -1916.1139778136      4.02E-04
    5   -1916.1196281292      1.77E-04
    6   -1916.1212557938      7.11E-05
    7   -1916.1217675081      2.35E-05
    8   -1916.1219226310      8.96E-06 Convergence criterion met
 ---------------------------------------
 One-Electron    Energy = -3601.3690740060
 Total Coulomb   Energy =  1318.8640535344
 Alpha Exchange  Energy =   -11.7022760440
 Beta  Exchange  Energy =   -11.4134878960
 DFT   Exchange  Energy =   -96.7212838698
 DFT Correlation Energy =    -3.0454461945
 Nuclear Repu.   Energy =   489.2655918450
 Nuclear Attr.   Energy = -5514.2586164078
 Kinetic         Energy =  1912.8895424017
 <S^2> = 0.7582
 SCF time:  CPU 597.73 s  wall 610.98 s
 Final Alpha MO Eigenvalues
            1           2           3           4           5           6
    1-101.2441576-101.2441552-101.2438484-101.2438438 -10.6361936 -10.6352383
            7           8           9          10          11          12
    1  -9.7667774  -9.7667695  -9.7665425  -9.7665382  -7.5772971  -7.5772945
           13          14          15          16          17          18
    1  -7.5770638  -7.5770595  -7.5672623  -7.5672608  -7.5670187  -7.5670154
           19          20          21          22          23          24
    1  -7.5630128  -7.5630112  -7.5627831  -7.5627801  -1.4314284  -1.3487023
           25          26          27          28          29          30
    1  -1.3000185  -1.2712280  -1.1858058  -0.9595159  -0.8981024  -0.8924131
           31          32          33          34          35          36
    1  -0.8693215  -0.7970305  -0.7588628  -0.7277292  -0.7186863  -0.7155627
           37          38          39          40          41          42
    1  -0.7043963  -0.7037092  -0.6661458  -0.6280153  -0.1974565  -0.1358319
           43          44          45
    1  -0.1153836  -0.1138661  -0.0793087
 Final Beta MO Eigenvalues
            1           2           3           4           5           6
    1-101.2433977-101.2433953-101.2430934-101.2430890 -10.6308008 -10.6300716
            7           8           9          10          11          12
    1  -9.7660661  -9.7660583  -9.7658362  -9.7658299  -7.5770859  -7.5770830
           13          14          15          16          17          18
    1  -7.5768568  -7.5768532  -7.5649263  -7.5649242  -7.5646950  -7.5646923
           19          20          21          22          23          24
    1  -7.5626127  -7.5626115  -7.5623865  -7.5623835  -1.4156007  -1.3433998
           25          26          27          28          29          30
    1  -1.2944721  -1.2650626  -1.1601986  -0.9485390  -0.8933727  -0.8858018
           31          32          33          34          35          36
    1  -0.8060675  -0.7945411  -0.7335133  -0.7250956  -0.7137077  -0.7020990
           37          38          39          40          41          42
    1  -0.6847638  -0.6737568  -0.6642114  -0.3351870  -0.1364681  -0.1302994
           43          44
    1  -0.1063648  -0.1059060
 Analysis of SCF Wavefunction
 
 --------------------------------------------------------------
                    Orbital Energies (a.u.)
 --------------------------------------------------------------
 
 Alpha MOs
 -- Occupied --
*******-101.244-101.244-101.244 -10.636 -10.635  -9.767  -9.767
 -9.767  -9.767  -7.577  -7.577  -7.577  -7.577  -7.567  -7.567
 -7.567  -7.567  -7.563  -7.563  -7.563  -7.563  -1.431  -1.349
 -1.300  -1.271  -1.186  -0.960  -0.898  -0.892  -0.869  -0.797
 -0.759  -0.728  -0.719  -0.716  -0.704  -0.704  -0.666  -0.628
 -- Virtual --
 -0.197  -0.136  -0.115  -0.114  -0.079  -0.040  -0.037  -0.033
 -0.029  -0.015   0.004   0.004   0.006   0.033   0.035   0.042
  0.043   0.043   0.047   0.050   0.066   0.083   0.093   0.094
  0.099   0.103   0.112   0.124   0.129   0.141   0.172   0.177
  0.188   0.192   0.209   0.217   0.250   0.251   0.265   0.277
  0.279   0.284   0.321   0.337   0.358   0.362   0.366   0.381
  0.390   0.402   0.412   0.422   0.423   0.436   0.473   0.485
  0.492   0.495   0.512   0.525   0.536   0.537   0.569   0.646
  0.659   0.661   0.676   0.689   0.694   0.707   0.753   0.815
  0.825   0.854   0.894   0.900   0.918   0.944   0.946   0.963
  0.977   0.990   0.992   1.019   1.020   1.021   1.028   1.046
  1.054   1.056   1.061   1.067   1.075   1.082   1.083   1.096
  1.113   1.116   1.127   1.135   1.166   1.172   1.183   1.211
  1.213   1.237   1.306   1.318   1.323   1.343   1.353   1.389
  1.394   1.449   1.464   1.475   1.502   1.523   1.531   1.572
  1.579   1.605   1.608   1.612   1.666   1.687   1.691   1.751
  1.767   1.770   1.941   2.064   2.082   2.090   2.145   2.170
  2.221   2.234   2.256   2.311   2.383   2.423   2.535   2.538
  2.591   2.699   2.714   2.715   2.869   2.891   2.982   2.986
  3.043   3.166   3.172   3.178   3.232   3.286   3.338   3.354
  3.389   3.395   3.459   3.477   3.509   3.523   3.622   3.805
  3.822   3.906   4.197   4.202   4.269   4.271   4.275   4.286
  4.294   4.302   4.302   4.328   4.343   4.348   4.360   4.383
  4.385   4.398   4.409   4.413   4.414   4.416   4.470   4.487
  4.494   4.497   4.519   4.530   4.557   4.560   4.623   4.656
  4.817   4.943   4.967   4.982   4.984   5.000   5.007   5.026
  5.068   5.082   5.113   5.124   5.162   5.185   5.225   5.240
  5.354   5.423   5.588   5.716   5.982   6.000   9.690   9.807
  9.851   9.988  20.430  20.437  20.452  20.482  20.482  20.517
 20.522  20.564  20.672  20.752  20.804  20.834  23.386  24.228
 26.942  26.969  26.972  27.007  27.015  27.018  27.018  27.027
 27.040  27.052  27.055  27.063  27.064  27.086  27.089  27.093
 27.101  27.109  27.163  27.194  27.208  27.229  27.922  27.939
 28.018  28.160  36.671  36.672  36.673  36.674  36.674  36.675
 36.675  36.678  36.684  36.684  36.684  36.684  36.685  36.685
 36.686  36.687  36.688  36.689  36.693  36.693  36.695  36.702
 36.703  36.703  36.706  36.707  36.711  36.718  40.566  40.624
 40.658  40.835  40.836  40.883  40.922  40.926  40.973  41.009
215.587 215.713 215.754 215.925
 
 Beta MOs
 -- Occupied --
*******-101.243-101.243-101.243 -10.631 -10.630  -9.766  -9.766
 -9.766  -9.766  -7.577  -7.577  -7.577  -7.577  -7.565  -7.565
 -7.565  -7.565  -7.563  -7.563  -7.562  -7.562  -1.416  -1.343
 -1.294  -1.265  -1.160  -0.949  -0.893  -0.886  -0.806  -0.795
 -0.734  -0.725  -0.714  -0.702  -0.685  -0.674  -0.664
 -- Virtual --
 -0.335  -0.136  -0.130  -0.106  -0.106  -0.079  -0.040  -0.037
 -0.032  -0.028  -0.013   0.005   0.006   0.007   0.034   0.035
  0.044   0.047   0.047   0.048   0.050   0.066   0.083   0.096
  0.098   0.101   0.107   0.120   0.126   0.130   0.141   0.173
  0.179   0.190   0.196   0.210   0.223   0.256   0.257   0.282
  0.282   0.285   0.288   0.325   0.337   0.368   0.373   0.373
  0.387   0.392   0.403   0.412   0.424   0.428   0.444   0.477
  0.489   0.495   0.512   0.514   0.526   0.537   0.550   0.571
  0.655   0.660   0.665   0.680   0.696   0.706   0.723   0.756
  0.817   0.827   0.855   0.899   0.903   0.922   0.949   0.949
  0.969   0.981   0.992   0.997   1.022   1.023   1.023   1.032
  1.051   1.057   1.061   1.064   1.071   1.080   1.084   1.087
  1.101   1.116   1.121   1.128   1.139   1.173   1.176   1.185
  1.214   1.215   1.242   1.310   1.320   1.326   1.346   1.357
  1.391   1.403   1.450   1.472   1.482   1.505   1.531   1.539
  1.578   1.583   1.607   1.613   1.616   1.669   1.694   1.695
  1.753   1.770   1.772   1.948   2.065   2.090   2.098   2.153
  2.172   2.229   2.235   2.258   2.313   2.386   2.427   2.536
  2.539   2.619   2.726   2.735   2.739   2.888   2.903   2.999
  3.000   3.058   3.169   3.182   3.189   3.249   3.313   3.341
  3.371   3.399   3.401   3.474   3.492   3.520   3.545   3.644
  3.811   3.841   3.911   4.200   4.206   4.276   4.279   4.281
  4.291   4.300   4.308   4.309   4.333   4.353   4.354   4.364
  4.387   4.390   4.402   4.416   4.416   4.420   4.425   4.471
  4.493   4.504   4.509   4.521   4.531   4.557   4.561   4.625
  4.659   4.819   4.945   4.970   4.986   4.987   5.002   5.010
  5.028   5.071   5.084   5.115   5.127   5.164   5.188   5.225
  5.240   5.355   5.424   5.590   5.718   5.984   6.002   9.691
  9.808   9.853   9.989  20.434  20.440  20.455  20.482  20.485
 20.517  20.522  20.564  20.672  20.752  20.804  20.834  23.391
 24.233  26.952  26.971  26.974  27.008  27.017  27.020  27.020
 27.029  27.042  27.053  27.056  27.064  27.066  27.089  27.089
 27.095  27.101  27.115  27.164  27.195  27.209  27.243  27.925
 27.942  28.021  28.163  36.672  36.673  36.674  36.675  36.675
 36.675  36.676  36.679  36.684  36.685  36.685  36.685  36.685
 36.686  36.686  36.687  36.689  36.689  36.693  36.693  36.696
 36.702  36.703  36.703  36.706  36.707  36.711  36.718  40.577
 40.629  40.670  40.845  40.846  40.893  40.924  40.936  40.976
 41.010 215.587 215.714 215.755 215.926
 --------------------------------------------------------------
 
          Ground-State Mulliken Net Atomic Charges

     Atom                 Charge (a.u.)    Spin (a.u.)
  --------------------------------------------------------
      1 C                     0.672888       0.306662
      2 C                     0.671828       0.308536
      3 Cl                   -0.085781       0.096320
      4 Cl                   -0.086491       0.095937
      5 Cl                   -0.085715       0.096371
      6 Cl                   -0.086729       0.096174
  --------------------------------------------------------
  Sum of atomic charges =     1.000000
  Sum of spin   charges =     1.000000

 -----------------------------------------------------------------
                    Cartesian Multipole Moments
 -----------------------------------------------------------------
    Charge (ESU x 10^10)
                 4.8032
    Dipole Moment (Debye)
         X       0.0000      Y       0.0000      Z       3.2346
       Tot       3.2346
    Quadrupole Moments (Debye-Ang)
        XX     -43.5757     XY      -0.0104     YY     -56.5128
        XZ      -0.0021     YZ      -0.0022     ZZ     -41.1967
    Octapole Moments (Debye-Ang^2)
       XXX       0.0000    XXY       0.0000    XYY       0.0000
       YYY       0.0000    XXZ     -29.3445    XYZ      -0.0070
       YYZ     -38.0568    XZZ      -0.0028    YZZ      -0.0030
       ZZZ     -86.1615
    Hexadecapole Moments (Debye-Ang^3)
      XXXX    -571.7768   XXXY      -0.0799   XXYY    -117.1424
      XYYY      -0.0090   YYYY     -57.7032   XXXZ      -0.0086
      XXYZ      -0.0020   XYYZ      -0.0054   YYYZ      -0.0018
      XXZZ    -187.7143   XYZZ      -0.0064   YYZZ    -167.7684
      XZZZ      -0.0156   YZZZ      -0.0231   ZZZZ    -861.5584
 -----------------------------------------------------------------
 Total job time:  611.66s(wall), 598.40s(cpu) 
 Tue Jun  4 16:17:12 2013

        *************************************************************
        *                                                           *
        *  Thank you very much for using Q-Chem.  Have a nice day.  *
        *                                                           *
        *************************************************************


0 sent ACK to 0 
now end server 0 ... 
