Process 0 of 1 is on cl203.stfx.acenet.ca - thread support 1
initial socket setup ...start
initial socket setup ...done 
now start server 0 ... 

cmd = /usr/bin/ssh clhead /usr/local/qchem/bin/get_hostid 1654063838 > /scratch/tmp/6064994.1.medium.q/qchem32445/lic.dat
                  Welcome to Q-Chem
     A Quantum Leap Into The Future Of Chemistry

 Y. Shao, L. Fusti-Molnar, Y. Jung, J. Kussmann, C. Ochsenfeld,
 S. T. Brown, A. T. B. Gilbert, L. V. Slipchenko,S. V. Levchenko,
 D. P. O'Neill, R. A. DiStasio Jr., R. C. Lochan, T. Wang,
 G. J. O. Beran, N. A. Besley, J. M. Herbert, C. Y. Lin,
 T. Van Voorhis, S. H. Chien, A. Sodt, R. P. Steele, 
 V. A. Rassolov, P. E. Maslen, P. P. Korambath, R. D. Adamson,
 B. Austin, J. Baker, E. F. C. Byrd, H. Dachsel, R. J. Doerksen,
 A. Dreuw, B. D. Dunietz, A. D. Dutoi, T. R. Furlani,
 S. R. Gwaltney, A. Heyden, S. Hirata, C.-P. Hsu, G. Kedziora,
 R. Z. Khaliullin, P. Klunzinger, A. M. Lee, M. S. Lee, W. Liang,
 I. Lotan, N. Nair, B. Peters, E. I. Proynov, P. A. Pieniazek, 
 Y. M. Rhee, J. Ritchie, E. Rosta, C. D. Sherrill, 
 A. C. Simmonett, J. E. Subotnik, H. L. Woodcock III,
 W. Zhang, A. T. Bell, A. K. Chakraborty, D. M. Chipman,
 F. J. Keil, A. Warshel, W. J. Hehre, H. F. Schaefer III,
 J. Kong, A. I. Krylov, P. M. W. Gill, M. Head-Gordon,
 Q-Chem, Version 3.1, Q-Chem, Inc., Pittsburgh, PA (2007).

 Additional authors for Version 3.1: 
 Z. Gan, Y. Zhao, N. E. Schultz, D. Truhlar, E. Epifanovsky and M. Oana.

 Additional authors for Version 3.2: 
 R. Baer, B. R. Brooks, D. Casanova, J.-D. Chai, C.-L. Cheng, 
 C. Cramer, D. Crittenden, A. Ghysels, G. Hawkins, E. G. Hohenstein, 
 C. Kelley, W. Kurlancheek, D. Liotard, E. Livshits, P. Manohar, 
 A. Marenich, D. Neuhauser, R. Olson, M. A. Rohrdanz, K. S. Thanthiriwatte, 
 A. J. W. Thom, V. Vanovschi, C. F. Williams, Q. Wu and Z.-Q. You. 


 Intel X86 Linux Version

 Q-chem begins on Mon Jul  8 16:55:18 2013  

 Parallel job on  1  processors
Processing $rem in /usr/local/qchem/config/preferences.

theFileMan(): MAXOPENFILES=974 MAX_SUB_FILE_NUM=16
Maximum size of a physical file is 2.0 GB, maximum size of a tmp-file is 32.0 GB


--------------------------------------------------------------
User input:
--------------------------------------------------------------

$molecule
-1,2
Li         0.00000        0.00000        0.01379
H          0.00000        0.00000        1.60727
$end

$comment
negative
$end

$xc_functional
C PBE   1.00
X wPBE  1.00
$end

$rem
SYMMETRY_DECOMPOSITION	0
exchange 		general
LRC_DFT                 true
BASIS                   g3large
omega			360
mem_static              760
max_scf_cycles          200
scf_final_print         1
sym_ignore              true
$end

--------------------------------------------------------------
 Writing REM_CC_EA            2
 ----------------------------------------------------
       Standard Nuclear Orientation (Angstroms)
    I     Atom         X            Y            Z
 ----------------------------------------------------
    1      Li      0.000000     0.000000     0.013790
    2      H       0.000000     0.000000     1.607270
 ----------------------------------------------------
 Nuclear Repulsion Energy =     0.9962670585 hartrees
 There are        3 alpha and        2 beta electrons
 Requested basis set is G3large
 There are 16 shells and 52 basis functions

Total QAlloc Memory Limit   2000 MB
Mega-Array Size       743 MB
MEM_STATIC part       760 MB

                       Distance Matrix (Angstroms)
             Li(  1)
   H (  2)  1.593480
 
 A cutoff of  1.0D-08 yielded    136 shell pairs
 There are   1462 function pairs (  1834 Cartesian)
Evaluating contribution to one-electron hamiltonian from nuclear
 Smallest overlap matrix eigenvalue = 3.54E-03
 Multipole matrices computed through 2nd order

  Scale SEOQF with 1.000000e-02/1.000000e-02/1.000000e-02

 Standard Electronic Orientation quadrupole field applied
 Guess from superposition of atomic densities
 Warning:  Energy on first SCF cycle will be non-variational
 Long-range K will be added via erf
 Coulomb attenuation parameter = 0.36 bohr**(-1)
 An unrestricted Kohn-Sham SCF calculation will be
 performed using Pulay DIIS extrapolation
 Exchange:  wPBE + LR-HF      Correlation:  PBE
 Using SG-1 standard quadrature grid
 SCF converges when DIIS error is below 1.0E-05
 Requested basis set is G3large
 There are 16 shells and 52 basis functions
 A cutoff of  1.0D-08 yielded    136 shell pairs
 There are   1462 function pairs (  1834 Cartesian)
 Warning!  Inaccurate integrated density:
   Number of electrons =     5
   Numerical integral  =     4.012696928323
   Relative error      =   -19.7460614335 %
 ---------------------------------------
  Cycle       Energy         DIIS Error
 ---------------------------------------
    1      -7.7675188130      5.38E-03
    2      -7.9758321618      6.83E-03
    3      -8.0120002973      3.76E-03
    4      -8.0390301346      5.85E-04
 Warning!  Inaccurate integrated density:
   Number of electrons =     5
   Numerical integral  =     4.992673530089
   Relative error      =    -0.1465293982 %
    5      -8.0443475915      4.21E-04
 Warning!  Inaccurate integrated density:
   Number of electrons =     5
   Numerical integral  =     4.989562894954
   Relative error      =    -0.2087421009 %
    6      -8.0495088415      3.21E-04
 Warning!  Inaccurate integrated density:
   Number of electrons =     5
   Numerical integral  =     4.989901639983
   Relative error      =    -0.2019672003 %
    7      -8.0535116013      3.46E-04
 Warning!  Inaccurate integrated density:
   Number of electrons =     5
   Numerical integral  =     4.988016099964
   Relative error      =    -0.2396780007 %
    8      -8.0498602096      2.66E-04
 Warning!  Inaccurate integrated density:
   Number of electrons =     5
   Numerical integral  =     4.986003942442
   Relative error      =    -0.2799211512 %
    9      -8.0477026092      1.54E-04
 Warning!  Inaccurate integrated density:
   Number of electrons =     5
   Numerical integral  =     4.984343297606
   Relative error      =    -0.3131340479 %
   10      -8.0477368563      6.88E-05
 Warning!  Inaccurate integrated density:
   Number of electrons =     5
   Numerical integral  =     4.983209669395
   Relative error      =    -0.3358066121 %
   11      -8.0478326917      2.51E-05
 Warning!  Inaccurate integrated density:
   Number of electrons =     5
   Numerical integral  =     4.983337130268
   Relative error      =    -0.3332573946 %
   12      -8.0478260141      1.84E-05
 Warning!  Inaccurate integrated density:
   Number of electrons =     5
   Numerical integral  =     4.983163573290
   Relative error      =    -0.3367285342 %
   13      -8.0478321225      6.98E-06 Convergence criterion met
 ---------------------------------------
 One-Electron    Energy =   -12.8056275597
 Total Coulomb   Energy =     6.0149898574
 Alpha Exchange  Energy =    -0.3832542649
 Beta  Exchange  Energy =    -0.3457365977
 DFT   Exchange  Energy =    -1.4357807371
 DFT Correlation Energy =    -0.0886898791
 Nuclear Repu.   Energy =     0.9962670585
 Nuclear Attr.   Energy =   -20.7839901402
 Kinetic         Energy =     7.9783625804
 <S^2> = 0.7502
 SCF time:  CPU 6.79 s  wall 7.47 s
 Final Alpha MO Eigenvalues
            1           2           3           4           5           6
    1  -1.9689268  -0.2075784   0.0088623   0.0541745   0.0730382   0.0802345
            7           8
    1   0.0924483   0.1190784
 Final Beta MO Eigenvalues
            1           2           3           4           5           6
    1  -1.9688017  -0.2084456   0.0673292   0.0803546   0.0874407   0.0881620
            7
    1   0.1003947
 Analysis of SCF Wavefunction
 
 --------------------------------------------------------------
                    Orbital Energies (a.u.)
 --------------------------------------------------------------
 
 Alpha MOs
 -- Occupied --
 -1.969  -0.208   0.009
 -- Virtual --
  0.054   0.073   0.080   0.092   0.119   0.128   0.147   0.211
  0.235   0.236   0.239   0.327   0.363   0.363   0.370   0.371
  0.478   0.586   0.623   0.625   0.675   0.676   0.696   0.696
  0.696   0.697   0.721   0.917   1.160   1.161   1.272   1.361
  1.362   1.459   1.460   1.603   2.917   3.757   4.299   4.300
  4.421   6.974   6.974   7.257  20.072  20.100  21.335  21.340
 21.340
 
 Beta MOs
 -- Occupied --
 -1.969  -0.208
 -- Virtual --
  0.067   0.080   0.087   0.088   0.100   0.127   0.128   0.145
  0.210   0.233   0.235   0.239   0.326   0.363   0.363   0.370
  0.371   0.477   0.585   0.623   0.624   0.675   0.676   0.695
  0.696   0.696   0.696   0.720   0.916   1.159   1.160   1.271
  1.361   1.362   1.459   1.460   1.602   2.915   3.757   4.298
  4.298   4.420   6.974   6.974   7.257  20.072  20.100  21.335
 21.340  21.340
 --------------------------------------------------------------
 
          Ground-State Mulliken Net Atomic Charges

     Atom                 Charge (a.u.)    Spin (a.u.)
  --------------------------------------------------------
      1 Li                   -0.673561       1.014048
      2 H                    -0.326439      -0.014048
  --------------------------------------------------------
  Sum of atomic charges =    -1.000000
  Sum of spin   charges =     1.000000

 -----------------------------------------------------------------
                    Cartesian Multipole Moments
 -----------------------------------------------------------------
    Charge (ESU x 10^10)
                -4.8032
    Dipole Moment (Debye)
         X      -0.2001      Y      -0.2001      Z      -5.8965
       Tot       5.9033
    Quadrupole Moments (Debye-Ang)
        XX    -100.0022     XY     -47.2392     YY     -99.9835
        XZ       0.7190     YZ       0.7189     ZZ     -59.5009
    Octapole Moments (Debye-Ang^2)
       XXX      -8.2189    XXY      -2.7394    XYY      -2.7399
       YYY      -8.2172    XXZ      -7.6501    XYZ      -0.5534
       YYZ      -7.6499    XZZ      -2.7004    YZZ      -2.6998
       ZZZ     -28.7184
    Hexadecapole Moments (Debye-Ang^3)
      XXXX   -4174.1596   XXXY   -1386.4388   XXYY   -1391.2044
      XYYY   -1386.4388   YYYY   -4173.0717   XXXZ      24.2199
      XXYZ       8.0717   XYYZ       8.0732   YYYZ      24.2152
      XXZZ    -937.5189   XYZZ    -462.1490   YYZZ    -937.3375
      XZZZ      24.2392   YZZZ      24.2345   ZZZZ   -1459.3804
 -----------------------------------------------------------------
 Total job time:  7.54s(wall), 6.85s(cpu) 
 Mon Jul  8 16:55:26 2013

        *************************************************************
        *                                                           *
        *  Thank you very much for using Q-Chem.  Have a nice day.  *
        *                                                           *
        *************************************************************


0 sent ACK to 0 
now end server 0 ... 
 
**********************************************************************
Job 2 of 3 
**********************************************************************
 
Process 0 of 1 is on cl203.stfx.acenet.ca - thread support 1
initial socket setup ...start
initial socket setup ...done 
now start server 0 ... 

cmd = /usr/bin/ssh clhead /usr/local/qchem/bin/get_hostid 1829438177 > /scratch/tmp/6064994.1.medium.q/qchem32445/lic.dat
                  Welcome to Q-Chem
     A Quantum Leap Into The Future Of Chemistry

 Y. Shao, L. Fusti-Molnar, Y. Jung, J. Kussmann, C. Ochsenfeld,
 S. T. Brown, A. T. B. Gilbert, L. V. Slipchenko,S. V. Levchenko,
 D. P. O'Neill, R. A. DiStasio Jr., R. C. Lochan, T. Wang,
 G. J. O. Beran, N. A. Besley, J. M. Herbert, C. Y. Lin,
 T. Van Voorhis, S. H. Chien, A. Sodt, R. P. Steele, 
 V. A. Rassolov, P. E. Maslen, P. P. Korambath, R. D. Adamson,
 B. Austin, J. Baker, E. F. C. Byrd, H. Dachsel, R. J. Doerksen,
 A. Dreuw, B. D. Dunietz, A. D. Dutoi, T. R. Furlani,
 S. R. Gwaltney, A. Heyden, S. Hirata, C.-P. Hsu, G. Kedziora,
 R. Z. Khaliullin, P. Klunzinger, A. M. Lee, M. S. Lee, W. Liang,
 I. Lotan, N. Nair, B. Peters, E. I. Proynov, P. A. Pieniazek, 
 Y. M. Rhee, J. Ritchie, E. Rosta, C. D. Sherrill, 
 A. C. Simmonett, J. E. Subotnik, H. L. Woodcock III,
 W. Zhang, A. T. Bell, A. K. Chakraborty, D. M. Chipman,
 F. J. Keil, A. Warshel, W. J. Hehre, H. F. Schaefer III,
 J. Kong, A. I. Krylov, P. M. W. Gill, M. Head-Gordon,
 Q-Chem, Version 3.1, Q-Chem, Inc., Pittsburgh, PA (2007).

 Additional authors for Version 3.1: 
 Z. Gan, Y. Zhao, N. E. Schultz, D. Truhlar, E. Epifanovsky and M. Oana.

 Additional authors for Version 3.2: 
 R. Baer, B. R. Brooks, D. Casanova, J.-D. Chai, C.-L. Cheng, 
 C. Cramer, D. Crittenden, A. Ghysels, G. Hawkins, E. G. Hohenstein, 
 C. Kelley, W. Kurlancheek, D. Liotard, E. Livshits, P. Manohar, 
 A. Marenich, D. Neuhauser, R. Olson, M. A. Rohrdanz, K. S. Thanthiriwatte, 
 A. J. W. Thom, V. Vanovschi, C. F. Williams, Q. Wu and Z.-Q. You. 


 Intel X86 Linux Version

 Q-chem begins on Mon Jul  8 16:55:29 2013  

 Parallel job on  1  processors
Processing $rem in /usr/local/qchem/config/preferences.

theFileMan(): MAXOPENFILES=974 MAX_SUB_FILE_NUM=16
Maximum size of a physical file is 2.0 GB, maximum size of a tmp-file is 32.0 GB


--------------------------------------------------------------
User input:
--------------------------------------------------------------

$molecule
0,1
Li         0.00000        0.00000        0.01379
H          0.00000        0.00000        1.60727
$end

$comment
neutral
$end

$xc_functional
C PBE   1.00
X wPBE  1.00
$end


$rem
SYMMETRY_DECOMPOSITION	0
LRC_DFT                 true
exchange 		general
BASIS                   g3large
omega			360
mem_static              760
max_scf_cycles          200
scf_final_print         1
sym_ignore              true
$end

--------------------------------------------------------------
 Writing REM_CC_EA            2
 ----------------------------------------------------
       Standard Nuclear Orientation (Angstroms)
    I     Atom         X            Y            Z
 ----------------------------------------------------
    1      Li      0.000000     0.000000     0.013790
    2      H       0.000000     0.000000     1.607270
 ----------------------------------------------------
 Nuclear Repulsion Energy =     0.9962670585 hartrees
 There are        2 alpha and        2 beta electrons
 Requested basis set is G3large
 There are 16 shells and 52 basis functions

Total QAlloc Memory Limit   2000 MB
Mega-Array Size       743 MB
MEM_STATIC part       760 MB

                       Distance Matrix (Angstroms)
             Li(  1)
   H (  2)  1.593480
 
 A cutoff of  1.0D-08 yielded    136 shell pairs
 There are   1462 function pairs (  1834 Cartesian)
Evaluating contribution to one-electron hamiltonian from nuclear
 Smallest overlap matrix eigenvalue = 3.54E-03
 Multipole matrices computed through 2nd order

  Scale SEOQF with 1.000000e-02/1.000000e-02/1.000000e-02

 Standard Electronic Orientation quadrupole field applied
 Guess from superposition of atomic densities
 Warning:  Energy on first SCF cycle will be non-variational
 Long-range K will be added via erf
 Coulomb attenuation parameter = 0.36 bohr**(-1)
 A restricted Kohn-Sham SCF calculation will be
 performed using Pulay DIIS extrapolation
 Exchange:  wPBE + LR-HF      Correlation:  PBE
 Using SG-1 standard quadrature grid
 SCF converges when DIIS error is below 1.0E-05
 Requested basis set is G3large
 There are 16 shells and 52 basis functions
 A cutoff of  1.0D-08 yielded    136 shell pairs
 There are   1462 function pairs (  1834 Cartesian)
 Warning!  Inaccurate integrated density:
   Number of electrons =     4
   Numerical integral  =     4.012696928323
   Relative error      =     0.3174232081 %
 ---------------------------------------
  Cycle       Energy         DIIS Error
 ---------------------------------------
    1      -7.7675188130      5.38E-03
    2      -8.0269860955      6.23E-03
    3      -8.0476509470      3.29E-03
    4      -8.0581032174      3.69E-04
    5      -8.0584699779      1.43E-04
    6      -8.0585388845      2.55E-05
    7      -8.0585409637      4.54E-06 Convergence criterion met
 ---------------------------------------
 One-Electron    Energy =   -12.4660211778
 Total Coulomb   Energy =     5.6227918724
 Alpha Exchange  Energy =    -0.3457364767
 Beta  Exchange  Energy =    -0.3457364767
 DFT   Exchange  Energy =    -1.4356383363
 DFT Correlation Energy =    -0.0844674270
 Nuclear Repu.   Energy =     0.9962670585
 Nuclear Attr.   Energy =   -20.4302786889
 Kinetic         Energy =     7.9642575111
 SCF time:  CPU 3.32 s  wall 3.81 s
 Final Alpha MO Eigenvalues
            1           2           3           4           5           6
    1  -2.0585884  -0.2952355  -0.0086476   0.0148057   0.0148064   0.0219821
            7
    1   0.0271853
 Analysis of SCF Wavefunction
 
 --------------------------------------------------------------
                    Orbital Energies (a.u.)
 --------------------------------------------------------------
 
 Alpha MOs
 -- Occupied --
 -2.059  -0.295
 -- Virtual --
 -0.009   0.015   0.015   0.022   0.027   0.052   0.052   0.076
  0.133   0.155   0.155   0.161   0.243   0.278   0.278   0.284
  0.284   0.394   0.499   0.536   0.536   0.589   0.589   0.608
  0.608   0.609   0.609   0.636   0.829   1.073   1.073   1.185
  1.272   1.272   1.371   1.371   1.514   2.830   3.668   4.212
  4.212   4.334   6.884   6.884   7.167  19.982  20.010  21.245
 21.250  21.250
 --------------------------------------------------------------
 
          Ground-State Mulliken Net Atomic Charges

     Atom                 Charge (a.u.)
  ----------------------------------------
      1 Li                    0.322063
      2 H                    -0.322063
  ----------------------------------------
  Sum of atomic charges =     0.000000

 -----------------------------------------------------------------
                    Cartesian Multipole Moments
 -----------------------------------------------------------------
    Charge (ESU x 10^10)
                 0.0000
    Dipole Moment (Debye)
         X       0.0000      Y       0.0000      Z      -5.8460
       Tot       5.8460
    Quadrupole Moments (Debye-Ang)
        XX      -5.3578     XY       0.0001     YY      -5.3578
        XZ       0.0000     YZ       0.0000     ZZ     -11.9513
    Octapole Moments (Debye-Ang^2)
       XXX       0.0001    XXY       0.0000    XYY       0.0000
       YYY       0.0001    XXZ      -6.3884    XYZ       0.0000
       YYZ      -6.3884    XZZ       0.0000    YZZ       0.0000
       ZZZ     -26.3271
    Hexadecapole Moments (Debye-Ang^3)
      XXXX     -12.3038   XXXY       0.0002   XXYY      -4.1013
      XYYY       0.0002   YYYY     -12.3038   XXXZ       0.0001
      XXYZ       0.0000   XYYZ       0.0000   YYYZ       0.0000
      XXZZ     -12.1052   XYZZ       0.0001   YYZZ     -12.1052
      XZZZ       0.0001   YZZZ       0.0000   ZZZZ     -68.2579
 -----------------------------------------------------------------
 Total job time:  3.88s(wall), 3.37s(cpu) 
 Mon Jul  8 16:55:32 2013

        *************************************************************
        *                                                           *
        *  Thank you very much for using Q-Chem.  Have a nice day.  *
        *                                                           *
        *************************************************************


0 sent ACK to 0 
now end server 0 ... 
 
**********************************************************************
Job 3 of 3 
**********************************************************************
 
Process 0 of 1 is on cl203.stfx.acenet.ca - thread support 1
initial socket setup ...start
initial socket setup ...done 
now start server 0 ... 

cmd = /usr/bin/ssh clhead /usr/local/qchem/bin/get_hostid 1851446404 > /scratch/tmp/6064994.1.medium.q/qchem32445/lic.dat
                  Welcome to Q-Chem
     A Quantum Leap Into The Future Of Chemistry

 Y. Shao, L. Fusti-Molnar, Y. Jung, J. Kussmann, C. Ochsenfeld,
 S. T. Brown, A. T. B. Gilbert, L. V. Slipchenko,S. V. Levchenko,
 D. P. O'Neill, R. A. DiStasio Jr., R. C. Lochan, T. Wang,
 G. J. O. Beran, N. A. Besley, J. M. Herbert, C. Y. Lin,
 T. Van Voorhis, S. H. Chien, A. Sodt, R. P. Steele, 
 V. A. Rassolov, P. E. Maslen, P. P. Korambath, R. D. Adamson,
 B. Austin, J. Baker, E. F. C. Byrd, H. Dachsel, R. J. Doerksen,
 A. Dreuw, B. D. Dunietz, A. D. Dutoi, T. R. Furlani,
 S. R. Gwaltney, A. Heyden, S. Hirata, C.-P. Hsu, G. Kedziora,
 R. Z. Khaliullin, P. Klunzinger, A. M. Lee, M. S. Lee, W. Liang,
 I. Lotan, N. Nair, B. Peters, E. I. Proynov, P. A. Pieniazek, 
 Y. M. Rhee, J. Ritchie, E. Rosta, C. D. Sherrill, 
 A. C. Simmonett, J. E. Subotnik, H. L. Woodcock III,
 W. Zhang, A. T. Bell, A. K. Chakraborty, D. M. Chipman,
 F. J. Keil, A. Warshel, W. J. Hehre, H. F. Schaefer III,
 J. Kong, A. I. Krylov, P. M. W. Gill, M. Head-Gordon,
 Q-Chem, Version 3.1, Q-Chem, Inc., Pittsburgh, PA (2007).

 Additional authors for Version 3.1: 
 Z. Gan, Y. Zhao, N. E. Schultz, D. Truhlar, E. Epifanovsky and M. Oana.

 Additional authors for Version 3.2: 
 R. Baer, B. R. Brooks, D. Casanova, J.-D. Chai, C.-L. Cheng, 
 C. Cramer, D. Crittenden, A. Ghysels, G. Hawkins, E. G. Hohenstein, 
 C. Kelley, W. Kurlancheek, D. Liotard, E. Livshits, P. Manohar, 
 A. Marenich, D. Neuhauser, R. Olson, M. A. Rohrdanz, K. S. Thanthiriwatte, 
 A. J. W. Thom, V. Vanovschi, C. F. Williams, Q. Wu and Z.-Q. You. 


 Intel X86 Linux Version

 Q-chem begins on Mon Jul  8 16:55:36 2013  

 Parallel job on  1  processors
Processing $rem in /usr/local/qchem/config/preferences.

theFileMan(): MAXOPENFILES=974 MAX_SUB_FILE_NUM=16
Maximum size of a physical file is 2.0 GB, maximum size of a tmp-file is 32.0 GB


--------------------------------------------------------------
User input:
--------------------------------------------------------------

$molecule
1,2
Li         0.00000        0.00000        0.01379
H          0.00000        0.00000        1.60727
$end

$comment
positive
$end

$xc_functional
C PBE   1.00
X wPBE  1.00
$end

$rem
SYMMETRY_DECOMPOSITION	0
LRC_DFT                 true
exchange 		general
BASIS                   g3large
omega			360
mem_static              760
max_scf_cycles          200
scf_final_print         1
sym_ignore              true
$end

--------------------------------------------------------------
 Writing REM_CC_EA            2
 ----------------------------------------------------
       Standard Nuclear Orientation (Angstroms)
    I     Atom         X            Y            Z
 ----------------------------------------------------
    1      Li      0.000000     0.000000     0.013790
    2      H       0.000000     0.000000     1.607270
 ----------------------------------------------------
 Nuclear Repulsion Energy =     0.9962670585 hartrees
 There are        2 alpha and        1 beta electrons
 Requested basis set is G3large
 There are 16 shells and 52 basis functions

Total QAlloc Memory Limit   2000 MB
Mega-Array Size       743 MB
MEM_STATIC part       760 MB

                       Distance Matrix (Angstroms)
             Li(  1)
   H (  2)  1.593480
 
 A cutoff of  1.0D-08 yielded    136 shell pairs
 There are   1462 function pairs (  1834 Cartesian)
Evaluating contribution to one-electron hamiltonian from nuclear
 Smallest overlap matrix eigenvalue = 3.54E-03
 Multipole matrices computed through 2nd order

  Scale SEOQF with 1.000000e-02/1.000000e-02/1.000000e-02

 Standard Electronic Orientation quadrupole field applied
 Guess from superposition of atomic densities
 Warning:  Energy on first SCF cycle will be non-variational
 Long-range K will be added via erf
 Coulomb attenuation parameter = 0.36 bohr**(-1)
 An unrestricted Kohn-Sham SCF calculation will be
 performed using Pulay DIIS extrapolation
 Exchange:  wPBE + LR-HF      Correlation:  PBE
 Using SG-1 standard quadrature grid
 SCF converges when DIIS error is below 1.0E-05
 Requested basis set is G3large
 There are 16 shells and 52 basis functions
 A cutoff of  1.0D-08 yielded    136 shell pairs
 There are   1462 function pairs (  1834 Cartesian)
 Warning!  Inaccurate integrated density:
   Number of electrons =     3
   Numerical integral  =     4.012696928323
   Relative error      =    33.7565642774 %
 ---------------------------------------
  Cycle       Energy         DIIS Error
 ---------------------------------------
    1      -7.7675188130      5.38E-03
    2      -7.7515151780      2.14E-03
    3      -7.7599139571      6.17E-04
    4      -7.7607123416      5.33E-05
    5      -7.7607173923      1.05E-05
    6      -7.7607175385      1.71E-06 Convergence criterion met
 ---------------------------------------
 One-Electron    Energy =   -11.0705753511
 Total Coulomb   Energy =     4.3198417633
 Alpha Exchange  Energy =    -0.3646026232
 Beta  Exchange  Energy =    -0.1956500705
 DFT   Exchange  Energy =    -1.3941670110
 DFT Correlation Energy =    -0.0518313043
 Nuclear Repu.   Energy =     0.9962670585
 Nuclear Attr.   Energy =   -18.8459205452
 Kinetic         Energy =     7.7753451941
 <S^2> = 0.7500
 SCF time:  CPU 3.10 s  wall 3.38 s
 Final Alpha MO Eigenvalues
            1           2           3           4           5           6
    1  -2.3926891  -0.7560692  -0.1773099  -0.1403216  -0.1403211  -0.0870584
            7
    1  -0.0694782
 Final Beta MO Eigenvalues
            1           2           3           4           5           6
    1  -2.3893917  -0.2200817  -0.1522316  -0.1299949  -0.1299918  -0.0779048
 Analysis of SCF Wavefunction
 
 --------------------------------------------------------------
                    Orbital Energies (a.u.)
 --------------------------------------------------------------
 
 Alpha MOs
 -- Occupied --
 -2.393  -0.756
 -- Virtual --
 -0.177  -0.140  -0.140  -0.087  -0.069  -0.059  -0.059  -0.051
 -0.029  -0.007  -0.007  -0.007   0.037   0.054   0.054   0.080
  0.080   0.195   0.223   0.287   0.287   0.342   0.349   0.349
  0.383   0.383   0.394   0.394   0.576   0.736   0.736   0.845
  0.999   1.000   1.062   1.062   1.208   2.341   3.300   3.696
  3.696   3.852   6.554   6.554   6.834  19.649  19.674  20.911
 20.914  20.914
 
 Beta MOs
 -- Occupied --
 -2.389
 -- Virtual --
 -0.220  -0.152  -0.130  -0.130  -0.078  -0.063  -0.057  -0.057
 -0.038  -0.015  -0.006  -0.004  -0.004   0.078   0.078   0.084
  0.084   0.098   0.200   0.278   0.290   0.290   0.387   0.387
  0.394   0.394   0.397   0.397   0.471   0.647   0.863   0.863
  1.002   1.002   1.023   1.149   1.149   1.260   2.792   3.397
  4.176   4.176   4.333   6.557   6.557   6.840  19.652  19.679
 20.911  20.914  20.914
 --------------------------------------------------------------
 
          Ground-State Mulliken Net Atomic Charges

     Atom                 Charge (a.u.)    Spin (a.u.)
  --------------------------------------------------------
      1 Li                    0.817422       0.180967
      2 H                     0.182578       0.819033
  --------------------------------------------------------
  Sum of atomic charges =     1.000000
  Sum of spin   charges =     1.000000

 -----------------------------------------------------------------
                    Cartesian Multipole Moments
 -----------------------------------------------------------------
    Charge (ESU x 10^10)
                 4.8032
    Dipole Moment (Debye)
         X       0.0000      Y       0.0000      Z       0.6305
       Tot       0.6305
    Quadrupole Moments (Debye-Ang)
        XX      -1.6414     XY       0.0000     YY      -1.6414
        XZ       0.0000     YZ       0.0000     ZZ       0.1083
    Octapole Moments (Debye-Ang^2)
       XXX       0.0000    XXY       0.0000    XYY       0.0000
       YYY       0.0000    XXZ      -1.7911    XYZ       0.0000
       YYZ      -1.7911    XZZ       0.0000    YZZ       0.0000
       ZZZ      -1.3304
    Hexadecapole Moments (Debye-Ang^3)
      XXXX      -1.6526   XXXY       0.0000   XXYY      -0.5509
      XYYY       0.0000   YYYY      -1.6526   XXXZ       0.0000
      XXYZ       0.0000   XYYZ       0.0000   YYYZ       0.0000
      XXZZ      -3.1080   XYZZ       0.0000   YYZZ      -3.1080
      XZZZ       0.0000   YZZZ       0.0000   ZZZZ      -8.8413
 -----------------------------------------------------------------
 Total job time:  3.45s(wall), 3.16s(cpu) 
 Mon Jul  8 16:55:40 2013

        *************************************************************
        *                                                           *
        *  Thank you very much for using Q-Chem.  Have a nice day.  *
        *                                                           *
        *************************************************************


0 sent ACK to 0 
now end server 0 ... 
