Process 0 of 1 is on cl053.dal.acenet.ca - thread support 1
initial socket setup ...start
initial socket setup ...done 
now start server 0 ... 

cmd = /usr/bin/ssh glooscap.ace-net.ca /usr/local/qchem/bin/get_hostid 1467106976 > /tmp/179726.1.long.q/qchem19820/lic.dat
                  Welcome to Q-Chem
     A Quantum Leap Into The Future Of Chemistry

 Y. Shao, L. Fusti-Molnar, Y. Jung, J. Kussmann, C. Ochsenfeld,
 S. T. Brown, A. T. B. Gilbert, L. V. Slipchenko,S. V. Levchenko,
 D. P. O'Neill, R. A. DiStasio Jr., R. C. Lochan, T. Wang,
 G. J. O. Beran, N. A. Besley, J. M. Herbert, C. Y. Lin,
 T. Van Voorhis, S. H. Chien, A. Sodt, R. P. Steele, 
 V. A. Rassolov, P. E. Maslen, P. P. Korambath, R. D. Adamson,
 B. Austin, J. Baker, E. F. C. Byrd, H. Dachsel, R. J. Doerksen,
 A. Dreuw, B. D. Dunietz, A. D. Dutoi, T. R. Furlani,
 S. R. Gwaltney, A. Heyden, S. Hirata, C.-P. Hsu, G. Kedziora,
 R. Z. Khaliullin, P. Klunzinger, A. M. Lee, M. S. Lee, W. Liang,
 I. Lotan, N. Nair, B. Peters, E. I. Proynov, P. A. Pieniazek, 
 Y. M. Rhee, J. Ritchie, E. Rosta, C. D. Sherrill, 
 A. C. Simmonett, J. E. Subotnik, H. L. Woodcock III,
 W. Zhang, A. T. Bell, A. K. Chakraborty, D. M. Chipman,
 F. J. Keil, A. Warshel, W. J. Hehre, H. F. Schaefer III,
 J. Kong, A. I. Krylov, P. M. W. Gill, M. Head-Gordon,
 Q-Chem, Version 3.1, Q-Chem, Inc., Pittsburgh, PA (2007).

 Additional authors for Version 3.1: 
 Z. Gan, Y. Zhao, N. E. Schultz, D. Truhlar, E. Epifanovsky and M. Oana.

 Additional authors for Version 3.2: 
 R. Baer, B. R. Brooks, D. Casanova, J.-D. Chai, C.-L. Cheng, 
 C. Cramer, D. Crittenden, A. Ghysels, G. Hawkins, E. G. Hohenstein, 
 C. Kelley, W. Kurlancheek, D. Liotard, E. Livshits, P. Manohar, 
 A. Marenich, D. Neuhauser, R. Olson, M. A. Rohrdanz, K. S. Thanthiriwatte, 
 A. J. W. Thom, V. Vanovschi, C. F. Williams, Q. Wu and Z.-Q. You. 


 Intel X86 Linux Version

 Q-chem begins on Tue Apr 12 13:20:56 2011  

 Parallel job on  1  processors
Processing $rem in /usr/local/qchem/config/preferences.

theFileMan(): MAXOPENFILES=974 MAX_SUB_FILE_NUM=16
Maximum size of a physical file is 2.0 GB, maximum size of a tmp-file is 32.0 GB


--------------------------------------------------------------
User input:
--------------------------------------------------------------

$molecule
-1,2
 C        27.589041       23.466286       25.344061
 C        26.339153       23.225647       24.775341
 C        25.423603       24.268255       24.563448
 C        25.808182       25.560291       24.954315
 C        27.058195       25.800951       25.523088
 C        27.973625       24.758410       25.735035
 H        28.281313       22.632208       25.481283
 H        26.068596       22.204544       24.496038
 H        25.116135       26.394463       24.817167
 H        27.328890       26.822035       25.802298
 H        23.708551       24.814869       23.583281
 H        24.079388       23.185360       23.458334
 H        29.688467       24.211771       26.715748
 H        29.317875       25.841635       26.839811
 N        29.254854       25.009876       26.258593
 N        24.142208       24.016731       24.040218

$end

$comment
negative
$end

$xc_functional
   X HF 1.0
   X BNL 1.0
   C LYP 1.0
$end

$rem
SYMMETRY_DECOMPOSITION	0
exchange 		general
BASIS                   g3large
omega			320
separate_jk		true
mem_static              760
max_scf_cycles          200
scf_final_print         1
sym_ignore              true
$end

--------------------------------------------------------------
 Writing REM_CC_EA           16
 ----------------------------------------------------
       Standard Nuclear Orientation (Angstroms)
    I     Atom         X            Y            Z
 ----------------------------------------------------
    1      C      27.589041    23.466286    25.344061
    2      C      26.339153    23.225647    24.775341
    3      C      25.423603    24.268255    24.563448
    4      C      25.808182    25.560291    24.954315
    5      C      27.058195    25.800951    25.523088
    6      C      27.973625    24.758410    25.735035
    7      H      28.281313    22.632208    25.481283
    8      H      26.068596    22.204544    24.496038
    9      H      25.116135    26.394463    24.817167
   10      H      27.328890    26.822035    25.802298
   11      H      23.708551    24.814869    23.583281
   12      H      24.079388    23.185360    23.458334
   13      H      29.688467    24.211771    26.715748
   14      H      29.317875    25.841635    26.839811
   15      N      29.254854    25.009876    26.258593
   16      N      24.142208    24.016731    24.040218
 ----------------------------------------------------
 Nuclear Repulsion Energy =   343.5292271490 hartrees
 There are       30 alpha and       29 beta electrons
 Requested basis set is G3large
 There are 128 shells and 416 basis functions

Total QAlloc Memory Limit   2000 MB
Mega-Array Size       743 MB
MEM_STATIC part       760 MB
 A cutoff of  1.0D-08 yielded   6560 shell pairs
 There are  69931 function pairs ( 87060 Cartesian)
Evaluating contribution to one-electron hamiltonian from nuclear
 Smallest overlap matrix eigenvalue = 7.44E-07

 Q-Chem warning in module mkSTV.C, line 194:

 Overlap eigenvalue is smaller than square root of threshold

 Linear dependence detected in AO basis
 Number of orthogonalized atomic orbitals = 415
 Maximum deviation from orthogonality = 1.050E-10
 Multipole matrices computed through 2nd order

  Scale SEOQF with 1.000000e-03/1.000000e-03/1.000000e-03

 Standard Electronic Orientation quadrupole field applied
 Nucleus-field energy     =     0.0000000004 hartrees
 Guess from superposition of atomic densities
 Warning:  Energy on first SCF cycle will be non-variational
 An unrestricted hybrid HF-DFT SCF calculation will be
 performed using Pulay DIIS extrapolation
 Exchange:     1.0000 Hartree-Fock + 1.0000 BNL
 Correlation:  1.0000 LYP
 Using SG-1 standard quadrature grid
 SCF converges when DIIS error is below 1.0E-05
 Warning!  Inaccurate integrated density:
   Number of electrons =    59
   Numerical integral  =    58.000897553966
   Relative error      =    -1.6933939763 %
 ---------------------------------------
  Cycle       Energy         DIIS Error
 ---------------------------------------
    1    -341.5087782880      2.47E-02
    2    -338.6786964352      3.05E-03
    3    -338.6342792992      3.55E-03
    4    -338.9093662132      6.79E-04
    5    -338.9216530000      2.57E-04
    6    -338.9233890621      6.50E-05
    7    -338.9238842249      4.59E-05
    8    -338.9241837301      3.75E-05
    9    -338.9244308224      3.60E-05
   10    -338.9247754563      3.88E-05
   11    -338.9236412398      3.84E-05
   12    -338.9222639241      9.18E-05
   13    -338.9223891154      9.32E-05
   14    -338.9223400060      9.04E-05
   15    -338.9221872203      7.95E-05
   16    -338.9221440523      6.54E-05
   17    -338.9223253722      3.38E-05
   18    -338.9225176796      1.02E-05
   19    -338.9225475941      9.45E-06 Convergence criterion met
 ---------------------------------------
 One-Electron    Energy = -1153.5995439996
 Total Coulomb   Energy =   516.4674023313
 Alpha Exchange  Energy =    -4.9164820523
 Beta  Exchange  Energy =    -4.7695248959
 DFT   Exchange  Energy =   -33.6527617066
 DFT Correlation Energy =    -1.9808644205
 Nuclear Repu.   Energy =   343.5292271494
 Nuclear Attr.   Energy = -1490.9897595686
 Kinetic         Energy =   337.3902155690
 <S^2> = 0.7618
 SCF time:  CPU 2746.15 s  wall 2750.07 s
 Final Alpha MO Eigenvalues
            1           2           3           4           5           6
    1 -13.8413377 -13.8412938  -9.7765702  -9.7764751  -9.7174609  -9.7173637
            7           8           9          10          11          12
    1  -9.7166966  -9.7166395  -0.8348547  -0.8289895  -0.7264104  -0.6427557
           13          14          15          16          17          18
    1  -0.6170543  -0.5311497  -0.5081351  -0.4524063  -0.4399284  -0.4151740
           19          20          21          22          23          24
    1  -0.4062525  -0.3366333  -0.3233117  -0.3167992  -0.3107241  -0.2943002
           25          26          27          28          29          30
    1  -0.2700840  -0.2345875  -0.2010079  -0.1643031  -0.1004090   0.0457446
           31          32          33          34          35
    1   0.1352384   0.1354694   0.1466184   0.1547666   0.1583722
 Final Beta MO Eigenvalues
            1           2           3           4           5           6
    1 -13.8413671 -13.8413224  -9.7780168  -9.7779191  -9.7136560  -9.7135544
            7           8           9          10          11          12
    1  -9.7127337  -9.7126572  -0.8343794  -0.8289155  -0.7221953  -0.6346412
           13          14          15          16          17          18
    1  -0.6138574  -0.5225141  -0.5068362  -0.4515300  -0.4372776  -0.4126208
           19          20          21          22          23          24
    1  -0.4033710  -0.3327973  -0.3202704  -0.3100650  -0.3067418  -0.2907040
           25          26          27          28          29          30
    1  -0.2668384  -0.2317644  -0.1948742  -0.1318290  -0.0855518   0.1325119
           31          32          33          34
    1   0.1331404   0.1429413   0.1509966   0.1559094
 Analysis of SCF Wavefunction
 
 --------------------------------------------------------------
                    Orbital Energies (a.u.)
 --------------------------------------------------------------
 
 Alpha MOs
 -- Occupied --
-13.841 -13.841  -9.777  -9.776  -9.717  -9.717  -9.717  -9.717
 -0.835  -0.829  -0.726  -0.643  -0.617  -0.531  -0.508  -0.452
 -0.440  -0.415  -0.406  -0.337  -0.323  -0.317  -0.311  -0.294
 -0.270  -0.235  -0.201  -0.164  -0.100   0.046
 -- Virtual --
  0.135   0.135   0.147   0.155   0.158   0.184   0.189   0.209
  0.232   0.237   0.251   0.267   0.272   0.280   0.282   0.283
  0.286   0.290   0.300   0.308   0.312   0.318   0.328   0.329
  0.333   0.339   0.342   0.347   0.358   0.363   0.366   0.376
  0.380   0.386   0.399   0.414   0.424   0.428   0.439   0.440
  0.445   0.461   0.465   0.484   0.495   0.495   0.502   0.506
  0.523   0.536   0.564   0.601   0.618   0.620   0.633   0.691
  0.737   0.743   0.775   0.778   0.779   0.781   0.784   0.788
  0.805   0.820   0.829   0.836   0.842   0.844   0.847   0.864
  0.890   0.903   0.907   0.910   0.910   0.919   0.920   0.930
  0.951   0.962   0.967   0.976   0.978   0.986   0.992   1.030
  1.032   1.043   1.048   1.052   1.061   1.072   1.094   1.096
  1.108   1.118   1.120   1.170   1.191   1.199   1.230   1.246
  1.289   1.295   1.307   1.309   1.323   1.335   1.347   1.365
  1.379   1.390   1.414   1.437   1.440   1.452   1.485   1.506
  1.519   1.533   1.548   1.556   1.586   1.588   1.590   1.603
  1.622   1.629   1.660   1.675   1.677   1.681   1.719   1.735
  1.757   1.763   1.785   1.814   1.890   1.939   1.947   1.959
  1.983   2.019   2.020   2.048   2.053   2.069   2.102   2.109
  2.111   2.141   2.159   2.202   2.295   2.414   2.478   2.506
  2.590   2.712   2.802   2.806   2.807   2.871   2.900   2.913
  2.936   2.971   2.985   2.994   3.005   3.029   3.046   3.061
  3.065   3.069   3.098   3.100   3.117   3.146   3.150   3.158
  3.165   3.184   3.206   3.217   3.219   3.248   3.324   3.345
  3.348   3.366   3.399   3.423   3.456   3.456   3.469   3.473
  3.478   3.492   3.501   3.503   3.541   3.542   3.558   3.594
  3.616   3.639   3.643   3.651   3.664   3.669   3.677   3.690
  3.702   3.732   3.737   3.765   3.767   3.801   3.823   3.843
  3.862   3.891   3.898   3.938   3.940   3.958   3.984   3.997
  4.012   4.016   4.035   4.068   4.147   4.156   4.159   4.162
  4.165   4.189   4.209   4.226   4.244   4.247   4.254   4.262
  4.273   4.332   4.339   4.359   4.406   4.441   4.517   4.530
  4.559   4.586   4.606   4.622   4.637   4.647   4.670   4.673
  4.686   4.704   4.723   4.749   4.773   4.784   4.791   4.810
  4.877   4.929   4.954   4.961   5.063   5.073   5.089   5.116
  5.164   5.213   5.213   5.233   5.281   5.378   5.400   5.407
  5.446   5.477   5.478   5.500   5.537   5.541   5.604   5.617
  5.673   5.820   5.829   5.852   5.922   5.924   6.057   6.072
  6.074   6.144   6.229   6.309   6.561   6.616   6.624   6.671
  6.766  24.107  24.652  24.683  24.926  24.934  25.419  27.450
 27.614  27.623  27.694  27.712  27.922  28.152  28.271  28.287
 28.438  28.463  28.466  28.697  28.718  28.791  28.817  28.852
 29.369  36.096  36.121  37.745  37.752  38.443  38.453  38.625
 38.717  40.678  40.682  40.750  40.752  40.847  40.849  40.871
 40.874  40.954  40.958  41.037  41.044  41.103  41.107  41.112
 41.113  41.132  41.137  41.175  41.219  41.262  41.280  41.371
 41.382  41.406  41.424  41.437  41.438  41.439  41.457  41.470
 41.477  41.506  41.511  41.563  41.602  41.624  41.643  41.707
 41.734
 
 Beta MOs
 -- Occupied --
-13.841 -13.841  -9.778  -9.778  -9.714  -9.714  -9.713  -9.713
 -0.834  -0.829  -0.722  -0.635  -0.614  -0.523  -0.507  -0.452
 -0.437  -0.413  -0.403  -0.333  -0.320  -0.310  -0.307  -0.291
 -0.267  -0.232  -0.195  -0.132  -0.086
 -- Virtual --
  0.133   0.133   0.143   0.151   0.156   0.180   0.185   0.206
  0.228   0.233   0.239   0.248   0.265   0.270   0.278   0.280
  0.282   0.285   0.287   0.298   0.307   0.317   0.324   0.326
  0.329   0.335   0.336   0.340   0.344   0.357   0.361   0.365
  0.377   0.377   0.384   0.399   0.413   0.421   0.427   0.438
  0.445   0.445   0.463   0.477   0.483   0.493   0.496   0.502
  0.505   0.525   0.537   0.565   0.604   0.620   0.620   0.633
  0.691   0.737   0.749   0.780   0.781   0.784   0.784   0.787
  0.792   0.810   0.823   0.831   0.838   0.842   0.846   0.852
  0.865   0.892   0.906   0.909   0.910   0.914   0.921   0.922
  0.931   0.955   0.967   0.969   0.980   0.985   0.988   0.994
  1.031   1.034   1.044   1.051   1.052   1.066   1.074   1.096
  1.100   1.110   1.120   1.122   1.172   1.191   1.201   1.232
  1.246   1.292   1.297   1.308   1.313   1.326   1.336   1.349
  1.369   1.380   1.391   1.416   1.437   1.441   1.453   1.489
  1.511   1.520   1.535   1.550   1.556   1.589   1.591   1.592
  1.604   1.625   1.632   1.662   1.676   1.679   1.688   1.719
  1.736   1.760   1.765   1.787   1.817   1.892   1.942   1.948
  1.962   1.984   2.023   2.023   2.052   2.054   2.070   2.106
  2.112   2.113   2.142   2.162   2.205   2.299   2.416   2.481
  2.508   2.590   2.715   2.804   2.812   2.813   2.877   2.905
  2.923   2.944   2.973   2.985   3.002   3.007   3.031   3.050
  3.068   3.071   3.073   3.101   3.107   3.123   3.150   3.161
  3.169   3.172   3.187   3.214   3.223   3.225   3.251   3.330
  3.349   3.349   3.369   3.406   3.427   3.458   3.460   3.475
  3.479   3.485   3.495   3.508   3.510   3.543   3.548   3.560
  3.598   3.621   3.642   3.646   3.655   3.666   3.673   3.678
  3.697   3.704   3.739   3.745   3.768   3.771   3.806   3.828
  3.848   3.864   3.894   3.900   3.942   3.945   3.960   3.989
  4.000   4.015   4.027   4.038   4.072   4.149   4.159   4.164
  4.166   4.166   4.192   4.211   4.227   4.247   4.248   4.256
  4.268   4.276   4.333   4.340   4.362   4.410   4.444   4.517
  4.532   4.564   4.588   4.611   4.626   4.639   4.652   4.677
  4.677   4.690   4.709   4.727   4.753   4.779   4.792   4.793
  4.813   4.878   4.931   4.958   4.963   5.066   5.076   5.091
  5.120   5.164   5.216   5.216   5.236   5.282   5.381   5.402
  5.409   5.446   5.478   5.479   5.500   5.539   5.542   5.605
  5.618   5.675   5.821   5.831   5.854   5.923   5.925   6.060
  6.074   6.074   6.145   6.231   6.310   6.561   6.616   6.624
  6.672   6.769  24.111  24.657  24.684  24.926  24.940  25.421
 27.454  27.621  27.624  27.695  27.719  27.926  28.153  28.272
 28.287  28.440  28.465  28.467  28.699  28.720  28.793  28.818
 28.853  29.370  36.096  36.121  37.745  37.752  38.443  38.453
 38.625  38.717  40.678  40.682  40.750  40.752  40.847  40.849
 40.871  40.874  40.954  40.958  41.038  41.044  41.108  41.111
 41.116  41.119  41.137  41.138  41.179  41.222  41.265  41.283
 41.371  41.384  41.406  41.428  41.443  41.444  41.445  41.463
 41.472  41.479  41.508  41.513  41.566  41.605  41.628  41.646
 41.708  41.735
 --------------------------------------------------------------
 
          Ground-State Mulliken Net Atomic Charges

     Atom                 Charge (a.u.)    Spin (a.u.)
  --------------------------------------------------------
      1 C                    -0.130608       0.283976
      2 C                    -0.119366       0.265310
      3 C                    -0.423498      -0.024765
      4 C                    -0.129628       0.283582
      5 C                    -0.118294       0.265095
      6 C                    -0.422445      -0.024874
      7 H                     0.094363      -0.017831
      8 H                     0.094160      -0.017252
      9 H                     0.094363      -0.017768
     10 H                     0.094082      -0.017302
     11 H                     0.166639       0.008704
     12 H                     0.169960       0.005296
     13 H                     0.166677       0.008740
     14 H                     0.169932       0.005267
     15 N                    -0.353256      -0.003084
     16 N                    -0.353081      -0.003094
  --------------------------------------------------------
  Sum of atomic charges =    -1.000000
  Sum of spin   charges =     1.000000

 -----------------------------------------------------------------
                    Cartesian Multipole Moments
 -----------------------------------------------------------------
    Charge (ESU x 10^10)
                -4.8032
    Dipole Moment (Debye)
         X    -128.2386      Y    -117.7412      Z    -120.7971
       Tot     211.8964
    Quadrupole Moments (Debye-Ang)
        XX   -3488.7439     XY   -3145.2284     YY   -2945.3843
        XZ   -3219.1642     YZ   -2959.6880     ZZ   -3094.9361
    Octapole Moments (Debye-Ang^2)
       XXX  -96613.1075    XXY  -85611.0413    XYY  -78721.2585
       YYY  -75102.1134    XXZ  -87422.0512    XYZ  -78916.6693
       YYZ  -74004.7390    XZZ  -82331.3862    YZZ  -75795.0232
       ZZZ  -80701.2351
    Hexadecapole Moments (Debye-Ang^3)
      XXXX ************   XXXY ************   XXYY ************
      XYYY ************   YYYY ************   XXXZ ************
      XXYZ ************   XYYZ ************   YYYZ ************
      XXZZ ************   XYZZ ************   YYZZ ************
      XZZZ ************   YZZZ ************   ZZZZ ************
 -----------------------------------------------------------------
 Total job time:  2751.57s(wall), 2747.63s(cpu) 
 Tue Apr 12 14:06:47 2011

        *************************************************************
        *                                                           *
        *  Thank you very much for using Q-Chem.  Have a nice day.  *
        *                                                           *
        *************************************************************


0 sent ACK to 0 
now end server 0 ... 
 
**********************************************************************
Job 2 of 3 
**********************************************************************
 
Process 0 of 1 is on cl053.dal.acenet.ca - thread support 1
initial socket setup ...start
initial socket setup ...done 
now start server 0 ... 

cmd = /usr/bin/ssh glooscap.ace-net.ca /usr/local/qchem/bin/get_hostid 1787903736 > /tmp/179726.1.long.q/qchem19820/lic.dat
                  Welcome to Q-Chem
     A Quantum Leap Into The Future Of Chemistry

 Y. Shao, L. Fusti-Molnar, Y. Jung, J. Kussmann, C. Ochsenfeld,
 S. T. Brown, A. T. B. Gilbert, L. V. Slipchenko,S. V. Levchenko,
 D. P. O'Neill, R. A. DiStasio Jr., R. C. Lochan, T. Wang,
 G. J. O. Beran, N. A. Besley, J. M. Herbert, C. Y. Lin,
 T. Van Voorhis, S. H. Chien, A. Sodt, R. P. Steele, 
 V. A. Rassolov, P. E. Maslen, P. P. Korambath, R. D. Adamson,
 B. Austin, J. Baker, E. F. C. Byrd, H. Dachsel, R. J. Doerksen,
 A. Dreuw, B. D. Dunietz, A. D. Dutoi, T. R. Furlani,
 S. R. Gwaltney, A. Heyden, S. Hirata, C.-P. Hsu, G. Kedziora,
 R. Z. Khaliullin, P. Klunzinger, A. M. Lee, M. S. Lee, W. Liang,
 I. Lotan, N. Nair, B. Peters, E. I. Proynov, P. A. Pieniazek, 
 Y. M. Rhee, J. Ritchie, E. Rosta, C. D. Sherrill, 
 A. C. Simmonett, J. E. Subotnik, H. L. Woodcock III,
 W. Zhang, A. T. Bell, A. K. Chakraborty, D. M. Chipman,
 F. J. Keil, A. Warshel, W. J. Hehre, H. F. Schaefer III,
 J. Kong, A. I. Krylov, P. M. W. Gill, M. Head-Gordon,
 Q-Chem, Version 3.1, Q-Chem, Inc., Pittsburgh, PA (2007).

 Additional authors for Version 3.1: 
 Z. Gan, Y. Zhao, N. E. Schultz, D. Truhlar, E. Epifanovsky and M. Oana.

 Additional authors for Version 3.2: 
 R. Baer, B. R. Brooks, D. Casanova, J.-D. Chai, C.-L. Cheng, 
 C. Cramer, D. Crittenden, A. Ghysels, G. Hawkins, E. G. Hohenstein, 
 C. Kelley, W. Kurlancheek, D. Liotard, E. Livshits, P. Manohar, 
 A. Marenich, D. Neuhauser, R. Olson, M. A. Rohrdanz, K. S. Thanthiriwatte, 
 A. J. W. Thom, V. Vanovschi, C. F. Williams, Q. Wu and Z.-Q. You. 


 Intel X86 Linux Version

 Q-chem begins on Tue Apr 12 14:07:10 2011  

 Parallel job on  1  processors
Processing $rem in /usr/local/qchem/config/preferences.

theFileMan(): MAXOPENFILES=974 MAX_SUB_FILE_NUM=16
Maximum size of a physical file is 2.0 GB, maximum size of a tmp-file is 32.0 GB


--------------------------------------------------------------
User input:
--------------------------------------------------------------

$molecule
0,1
 C        27.589041       23.466286       25.344061
 C        26.339153       23.225647       24.775341
 C        25.423603       24.268255       24.563448
 C        25.808182       25.560291       24.954315
 C        27.058195       25.800951       25.523088
 C        27.973625       24.758410       25.735035
 H        28.281313       22.632208       25.481283
 H        26.068596       22.204544       24.496038
 H        25.116135       26.394463       24.817167
 H        27.328890       26.822035       25.802298
 H        23.708551       24.814869       23.583281
 H        24.079388       23.185360       23.458334
 H        29.688467       24.211771       26.715748
 H        29.317875       25.841635       26.839811
 N        29.254854       25.009876       26.258593
 N        24.142208       24.016731       24.040218

$end

$comment
neutral
$end

$xc_functional
   X HF 1.0
   X BNL 1.0
   C LYP 1.0
$end

$rem
SYMMETRY_DECOMPOSITION	0
exchange 		general
BASIS                   g3large
omega			320
separate_jk		true
mem_static              760
max_scf_cycles          200
scf_final_print         1
sym_ignore              true
$end

--------------------------------------------------------------
 Writing REM_CC_EA           16
 ----------------------------------------------------
       Standard Nuclear Orientation (Angstroms)
    I     Atom         X            Y            Z
 ----------------------------------------------------
    1      C      27.589041    23.466286    25.344061
    2      C      26.339153    23.225647    24.775341
    3      C      25.423603    24.268255    24.563448
    4      C      25.808182    25.560291    24.954315
    5      C      27.058195    25.800951    25.523088
    6      C      27.973625    24.758410    25.735035
    7      H      28.281313    22.632208    25.481283
    8      H      26.068596    22.204544    24.496038
    9      H      25.116135    26.394463    24.817167
   10      H      27.328890    26.822035    25.802298
   11      H      23.708551    24.814869    23.583281
   12      H      24.079388    23.185360    23.458334
   13      H      29.688467    24.211771    26.715748
   14      H      29.317875    25.841635    26.839811
   15      N      29.254854    25.009876    26.258593
   16      N      24.142208    24.016731    24.040218
 ----------------------------------------------------
 Nuclear Repulsion Energy =   343.5292271490 hartrees
 There are       29 alpha and       29 beta electrons
 Requested basis set is G3large
 There are 128 shells and 416 basis functions

Total QAlloc Memory Limit   2000 MB
Mega-Array Size       743 MB
MEM_STATIC part       760 MB
 A cutoff of  1.0D-08 yielded   6560 shell pairs
 There are  69931 function pairs ( 87060 Cartesian)
Evaluating contribution to one-electron hamiltonian from nuclear
 Smallest overlap matrix eigenvalue = 7.44E-07

 Q-Chem warning in module mkSTV.C, line 194:

 Overlap eigenvalue is smaller than square root of threshold

 Linear dependence detected in AO basis
 Number of orthogonalized atomic orbitals = 415
 Maximum deviation from orthogonality = 1.050E-10
 Multipole matrices computed through 2nd order

  Scale SEOQF with 1.000000e-03/1.000000e-03/1.000000e-03

 Standard Electronic Orientation quadrupole field applied
 Nucleus-field energy     =     0.0000000004 hartrees
 Guess from superposition of atomic densities
 Warning:  Energy on first SCF cycle will be non-variational
 A restricted hybrid HF-DFT SCF calculation will be
 performed using Pulay DIIS extrapolation
 Exchange:     1.0000 Hartree-Fock + 1.0000 BNL
 Correlation:  1.0000 LYP
 Using SG-1 standard quadrature grid
 SCF converges when DIIS error is below 1.0E-05
 ---------------------------------------
  Cycle       Energy         DIIS Error
 ---------------------------------------
    1    -341.5087782880      2.47E-02
    2    -338.8599949263      2.23E-03
    3    -338.9304281068      1.52E-03
    4    -338.9723901685      2.22E-04
    5    -338.9735344814      7.69E-05
    6    -338.9736719233      3.94E-05
    7    -338.9736943751      6.13E-06 Convergence criterion met
 ---------------------------------------
 One-Electron    Energy = -1142.9680334850
 Total Coulomb   Energy =   505.5332776696
 Alpha Exchange  Energy =    -4.7802938010
 Beta  Exchange  Energy =    -4.7802938010
 DFT   Exchange  Energy =   -33.5521441107
 DFT Correlation Energy =    -1.9554339965
 Nuclear Repu.   Energy =   343.5292271494
 Nuclear Attr.   Energy = -1480.0794816861
 Kinetic         Energy =   337.1114482011
 SCF time:  CPU 750.38 s  wall 751.74 s
 Final Alpha MO Eigenvalues
            1           2           3           4           5           6
    1 -14.0001801 -14.0001689  -9.9630588  -9.9629662  -9.9258581  -9.9257425
            7           8           9          10          11          12
    1  -9.9253605  -9.9252923  -1.0062771  -0.9953397  -0.9137373  -0.8373305
           13          14          15          16          17          18
    1  -0.8004291  -0.7152971  -0.6886567  -0.6235075  -0.6206922  -0.5867727
           19          20          21          22          23          24
    1  -0.5693903  -0.5256220  -0.5113980  -0.5004664  -0.4990843  -0.4773922
           25          26          27          28          29          30
    1  -0.4424471  -0.4244810  -0.3687937  -0.3429668  -0.2661112   0.0287846
           31          32          33          34
    1   0.0332980   0.0402907   0.0552668   0.0559803
 Analysis of SCF Wavefunction
 
 --------------------------------------------------------------
                    Orbital Energies (a.u.)
 --------------------------------------------------------------
 
 Alpha MOs
 -- Occupied --
-14.000 -14.000  -9.963  -9.963  -9.926  -9.926  -9.925  -9.925
 -1.006  -0.995  -0.914  -0.837  -0.800  -0.715  -0.689  -0.624
 -0.621  -0.587  -0.569  -0.526  -0.511  -0.500  -0.499  -0.477
 -0.442  -0.424  -0.369  -0.343  -0.266
 -- Virtual --
  0.029   0.033   0.040   0.055   0.056   0.057   0.077   0.087
  0.088   0.102   0.110   0.127   0.131   0.135   0.139   0.148
  0.157   0.160   0.169   0.173   0.174   0.182   0.195   0.196
  0.204   0.204   0.211   0.220   0.224   0.225   0.227   0.239
  0.246   0.255   0.261   0.274   0.276   0.286   0.287   0.294
  0.303   0.308   0.316   0.328   0.349   0.351   0.353   0.358
  0.361   0.373   0.374   0.395   0.436   0.449   0.459   0.469
  0.528   0.564   0.576   0.605   0.605   0.609   0.615   0.618
  0.623   0.637   0.647   0.669   0.677   0.677   0.685   0.689
  0.704   0.722   0.740   0.740   0.745   0.751   0.755   0.756
  0.772   0.775   0.785   0.810   0.811   0.811   0.825   0.829
  0.859   0.866   0.887   0.888   0.889   0.889   0.901   0.920
  0.927   0.932   0.934   0.946   1.012   1.032   1.034   1.061
  1.087   1.118   1.133   1.138   1.140   1.155   1.170   1.177
  1.185   1.210   1.227   1.245   1.269   1.277   1.279   1.310
  1.333   1.348   1.362   1.373   1.389   1.411   1.414   1.420
  1.431   1.446   1.447   1.497   1.504   1.508   1.509   1.551
  1.578   1.585   1.594   1.617   1.645   1.708   1.769   1.782
  1.785   1.822   1.838   1.848   1.870   1.886   1.905   1.928
  1.943   1.944   1.982   1.984   2.021   2.111   2.231   2.304
  2.330   2.415   2.530   2.612   2.628   2.632   2.684   2.710
  2.728   2.744   2.790   2.809   2.818   2.822   2.849   2.859
  2.877   2.878   2.882   2.908   2.910   2.928   2.956   2.958
  2.965   2.974   2.994   3.014   3.027   3.035   3.062   3.142
  3.157   3.161   3.178   3.207   3.240   3.266   3.271   3.279
  3.283   3.288   3.301   3.311   3.313   3.352   3.358   3.375
  3.410   3.425   3.454   3.461   3.473   3.480   3.490   3.498
  3.510   3.522   3.544   3.557   3.587   3.591   3.617   3.639
  3.657   3.685   3.716   3.717   3.755   3.758   3.777   3.806
  3.824   3.826   3.839   3.858   3.898   3.974   3.974   3.976
  3.981   3.981   4.009   4.027   4.061   4.063   4.067   4.077
  4.080   4.085   4.168   4.172   4.173   4.218   4.258   4.334
  4.342   4.375   4.410   4.425   4.438   4.453   4.464   4.483
  4.496   4.497   4.517   4.540   4.566   4.585   4.591   4.615
  4.624   4.707   4.760   4.771   4.776   4.881   4.894   4.910
  4.933   4.992   5.033   5.035   5.047   5.098   5.198   5.222
  5.232   5.285   5.310   5.313   5.337   5.361   5.367   5.427
  5.451   5.501   5.644   5.648   5.675   5.757   5.759   5.865
  5.886   5.903   5.963   6.041   6.131   6.398   6.458   6.469
  6.501   6.575  23.906  24.446  24.487  24.728  24.733  25.220
 27.248  27.406  27.430  27.500  27.504  27.720  27.952  28.073
 28.090  28.235  28.260  28.267  28.496  28.515  28.588  28.616
 28.654  29.168  35.937  35.962  37.586  37.593  38.285  38.295
 38.465  38.557  40.519  40.523  40.591  40.593  40.688  40.690
 40.711  40.714  40.795  40.799  40.843  40.852  40.896  40.903
 40.907  40.912  40.929  40.943  40.972  41.017  41.064  41.078
 41.179  41.181  41.213  41.222  41.230  41.232  41.235  41.251
 41.274  41.284  41.310  41.311  41.360  41.398  41.418  41.436
 41.508  41.536
 --------------------------------------------------------------
 
          Ground-State Mulliken Net Atomic Charges

     Atom                 Charge (a.u.)
  ----------------------------------------
      1 C                     0.009008
      2 C                     0.014432
      3 C                    -0.406916
      4 C                     0.008931
      5 C                     0.014665
      6 C                    -0.406873
      7 H                     0.154945
      8 H                     0.154758
      9 H                     0.154983
     10 H                     0.154661
     11 H                     0.196065
     12 H                     0.196130
     13 H                     0.196090
     14 H                     0.196141
     15 N                    -0.318514
     16 N                    -0.318506
  ----------------------------------------
  Sum of atomic charges =     0.000000

 -----------------------------------------------------------------
                    Cartesian Multipole Moments
 -----------------------------------------------------------------
    Charge (ESU x 10^10)
                 0.0000
    Dipole Moment (Debye)
         X       0.0010      Y       0.0005      Z      -0.0003
       Tot       0.0012
    Quadrupole Moments (Debye-Ang)
        XX     -47.1484     XY      -1.9561     YY     -42.7215
        XZ      10.9489     YZ       2.7939     ZZ     -46.0079
    Octapole Moments (Debye-Ang^2)
       XXX   -3778.5771    XXY   -1261.9208    XYY   -1237.7985
       YYY   -3142.6696    XXZ    -602.2746    XYZ     293.0021
       YYZ    -937.9016    XZZ    -677.8869    YZZ    -987.2446
       ZZZ   -3470.6336
    Hexadecapole Moments (Debye-Ang^3)
      XXXX -202645.7183   XXXY  -96959.9393   XXYY  -64175.6475
      XYYY  -87518.4656   YYYY -154405.3904   XXXZ  -71738.7531
      XXYZ  -15453.2139   XYYZ  -20948.8455   YYYZ  -74039.5246
      XXZZ  -33370.6502   XYZZ  -14126.9297   YYZZ  -47877.5092
      XZZZ  -72039.2405   YZZZ  -79813.0799   ZZZZ -174770.2200
 -----------------------------------------------------------------
 Total job time:  753.12s(wall), 751.75s(cpu) 
 Tue Apr 12 14:19:43 2011

        *************************************************************
        *                                                           *
        *  Thank you very much for using Q-Chem.  Have a nice day.  *
        *                                                           *
        *************************************************************


0 sent ACK to 0 
now end server 0 ... 
 
**********************************************************************
Job 3 of 3 
**********************************************************************
 
Process 0 of 1 is on cl053.dal.acenet.ca - thread support 1
initial socket setup ...start
initial socket setup ...done 
now start server 0 ... 

cmd = /usr/bin/ssh glooscap.ace-net.ca /usr/local/qchem/bin/get_hostid 1244603798 > /tmp/179726.1.long.q/qchem19820/lic.dat
                  Welcome to Q-Chem
     A Quantum Leap Into The Future Of Chemistry

 Y. Shao, L. Fusti-Molnar, Y. Jung, J. Kussmann, C. Ochsenfeld,
 S. T. Brown, A. T. B. Gilbert, L. V. Slipchenko,S. V. Levchenko,
 D. P. O'Neill, R. A. DiStasio Jr., R. C. Lochan, T. Wang,
 G. J. O. Beran, N. A. Besley, J. M. Herbert, C. Y. Lin,
 T. Van Voorhis, S. H. Chien, A. Sodt, R. P. Steele, 
 V. A. Rassolov, P. E. Maslen, P. P. Korambath, R. D. Adamson,
 B. Austin, J. Baker, E. F. C. Byrd, H. Dachsel, R. J. Doerksen,
 A. Dreuw, B. D. Dunietz, A. D. Dutoi, T. R. Furlani,
 S. R. Gwaltney, A. Heyden, S. Hirata, C.-P. Hsu, G. Kedziora,
 R. Z. Khaliullin, P. Klunzinger, A. M. Lee, M. S. Lee, W. Liang,
 I. Lotan, N. Nair, B. Peters, E. I. Proynov, P. A. Pieniazek, 
 Y. M. Rhee, J. Ritchie, E. Rosta, C. D. Sherrill, 
 A. C. Simmonett, J. E. Subotnik, H. L. Woodcock III,
 W. Zhang, A. T. Bell, A. K. Chakraborty, D. M. Chipman,
 F. J. Keil, A. Warshel, W. J. Hehre, H. F. Schaefer III,
 J. Kong, A. I. Krylov, P. M. W. Gill, M. Head-Gordon,
 Q-Chem, Version 3.1, Q-Chem, Inc., Pittsburgh, PA (2007).

 Additional authors for Version 3.1: 
 Z. Gan, Y. Zhao, N. E. Schultz, D. Truhlar, E. Epifanovsky and M. Oana.

 Additional authors for Version 3.2: 
 R. Baer, B. R. Brooks, D. Casanova, J.-D. Chai, C.-L. Cheng, 
 C. Cramer, D. Crittenden, A. Ghysels, G. Hawkins, E. G. Hohenstein, 
 C. Kelley, W. Kurlancheek, D. Liotard, E. Livshits, P. Manohar, 
 A. Marenich, D. Neuhauser, R. Olson, M. A. Rohrdanz, K. S. Thanthiriwatte, 
 A. J. W. Thom, V. Vanovschi, C. F. Williams, Q. Wu and Z.-Q. You. 


 Intel X86 Linux Version

 Q-chem begins on Tue Apr 12 14:20:05 2011  

 Parallel job on  1  processors
Processing $rem in /usr/local/qchem/config/preferences.

theFileMan(): MAXOPENFILES=974 MAX_SUB_FILE_NUM=16
Maximum size of a physical file is 2.0 GB, maximum size of a tmp-file is 32.0 GB


--------------------------------------------------------------
User input:
--------------------------------------------------------------

$molecule
1,2
 C        27.589041       23.466286       25.344061
 C        26.339153       23.225647       24.775341
 C        25.423603       24.268255       24.563448
 C        25.808182       25.560291       24.954315
 C        27.058195       25.800951       25.523088
 C        27.973625       24.758410       25.735035
 H        28.281313       22.632208       25.481283
 H        26.068596       22.204544       24.496038
 H        25.116135       26.394463       24.817167
 H        27.328890       26.822035       25.802298
 H        23.708551       24.814869       23.583281
 H        24.079388       23.185360       23.458334
 H        29.688467       24.211771       26.715748
 H        29.317875       25.841635       26.839811
 N        29.254854       25.009876       26.258593
 N        24.142208       24.016731       24.040218

$end

$comment
positive
$end

$xc_functional
   X HF 1.0
   X BNL 1.0
   C LYP 1.0
$end

$rem
SYMMETRY_DECOMPOSITION	0
exchange 		general
BASIS                   g3large
omega			320
separate_jk		true
mem_static              760
max_scf_cycles          200
scf_final_print         1
sym_ignore              true
$end

--------------------------------------------------------------
 Writing REM_CC_EA           16
 ----------------------------------------------------
       Standard Nuclear Orientation (Angstroms)
    I     Atom         X            Y            Z
 ----------------------------------------------------
    1      C      27.589041    23.466286    25.344061
    2      C      26.339153    23.225647    24.775341
    3      C      25.423603    24.268255    24.563448
    4      C      25.808182    25.560291    24.954315
    5      C      27.058195    25.800951    25.523088
    6      C      27.973625    24.758410    25.735035
    7      H      28.281313    22.632208    25.481283
    8      H      26.068596    22.204544    24.496038
    9      H      25.116135    26.394463    24.817167
   10      H      27.328890    26.822035    25.802298
   11      H      23.708551    24.814869    23.583281
   12      H      24.079388    23.185360    23.458334
   13      H      29.688467    24.211771    26.715748
   14      H      29.317875    25.841635    26.839811
   15      N      29.254854    25.009876    26.258593
   16      N      24.142208    24.016731    24.040218
 ----------------------------------------------------
 Nuclear Repulsion Energy =   343.5292271490 hartrees
 There are       29 alpha and       28 beta electrons
 Requested basis set is G3large
 There are 128 shells and 416 basis functions

Total QAlloc Memory Limit   2000 MB
Mega-Array Size       743 MB
MEM_STATIC part       760 MB
 A cutoff of  1.0D-08 yielded   6560 shell pairs
 There are  69931 function pairs ( 87060 Cartesian)
Evaluating contribution to one-electron hamiltonian from nuclear
 Smallest overlap matrix eigenvalue = 7.44E-07

 Q-Chem warning in module mkSTV.C, line 194:

 Overlap eigenvalue is smaller than square root of threshold

 Linear dependence detected in AO basis
 Number of orthogonalized atomic orbitals = 415
 Maximum deviation from orthogonality = 1.050E-10
 Multipole matrices computed through 2nd order

  Scale SEOQF with 1.000000e-03/1.000000e-03/1.000000e-03

 Standard Electronic Orientation quadrupole field applied
 Nucleus-field energy     =     0.0000000004 hartrees
 Guess from superposition of atomic densities
 Warning:  Energy on first SCF cycle will be non-variational
 An unrestricted hybrid HF-DFT SCF calculation will be
 performed using Pulay DIIS extrapolation
 Exchange:     1.0000 Hartree-Fock + 1.0000 BNL
 Correlation:  1.0000 LYP
 Using SG-1 standard quadrature grid
 SCF converges when DIIS error is below 1.0E-05
 Warning!  Inaccurate integrated density:
   Number of electrons =    57
   Numerical integral  =    58.000897553966
   Relative error      =     1.7559606210 %
 ---------------------------------------
  Cycle       Energy         DIIS Error
 ---------------------------------------
    1    -341.5087782880      2.47E-02
    2    -338.6360993777      1.73E-03
    3    -338.6939391035      9.25E-04
    4    -338.7091285743      3.03E-04
    5    -338.7112521777      9.14E-05
    6    -338.7114839021      3.61E-05
    7    -338.7115621944      1.08E-05
    8    -338.7115682249      4.81E-06 Convergence criterion met
 ---------------------------------------
 One-Electron    Energy = -1131.3448206054
 Total Coulomb   Energy =   493.8494862717
 Alpha Exchange  Energy =    -4.7935878679
 Beta  Exchange  Energy =    -4.6182669266
 DFT   Exchange  Energy =   -33.4105851073
 DFT Correlation Energy =    -1.9230211388
 Nuclear Repu.   Energy =   343.5292271494
 Nuclear Attr.   Energy = -1468.1589034064
 Kinetic         Energy =   336.8140828010
 <S^2> = 0.7699
 SCF time:  CPU 1066.95 s  wall 1068.74 s
 Final Alpha MO Eigenvalues
            1           2           3           4           5           6
    1 -14.2180997 -14.2180668 -10.1843601 -10.1842663 -10.1270330 -10.1269148
            7           8           9          10          11          12
    1 -10.1265596 -10.1264951  -1.2146261  -1.2031942  -1.1198326  -1.0344475
           13          14          15          16          17          18
    1  -1.0107833  -0.9165190  -0.8877205  -0.8207210  -0.8202514  -0.7896221
           19          20          21          22          23          24
    1  -0.7664130  -0.7191911  -0.7117855  -0.7080098  -0.6932182  -0.6805185
           25          26          27          28          29          30
    1  -0.6532810  -0.6194199  -0.5804264  -0.5384539  -0.4829103  -0.1311597
           31          32          33          34
    1  -0.1165346  -0.0930710  -0.0858718  -0.0727722
 Final Beta MO Eigenvalues
            1           2           3           4           5           6
    1 -14.2125442 -14.2125142 -10.1812920 -10.1812130 -10.1262166 -10.1260960
            7           8           9          10          11          12
    1 -10.1257848 -10.1257384  -1.2072272  -1.1950687  -1.1128632  -1.0323291
           13          14          15          16          17          18
    1  -0.9981082  -0.9120743  -0.8834365  -0.8176739  -0.8165914  -0.7842432
           19          20          21          22          23          24
    1  -0.7616401  -0.7154788  -0.7078446  -0.6920403  -0.6907243  -0.6717520
           25          26          27          28          29          30
    1  -0.6275492  -0.6168178  -0.5362689  -0.5292786  -0.2585952  -0.1146886
           31          32          33
    1  -0.0926807  -0.0924592  -0.0817344
 Analysis of SCF Wavefunction
 
 --------------------------------------------------------------
                    Orbital Energies (a.u.)
 --------------------------------------------------------------
 
 Alpha MOs
 -- Occupied --
-14.218 -14.218 -10.184 -10.184 -10.127 -10.127 -10.127 -10.126
 -1.215  -1.203  -1.120  -1.034  -1.011  -0.917  -0.888  -0.821
 -0.820  -0.790  -0.766  -0.719  -0.712  -0.708  -0.693  -0.681
 -0.653  -0.619  -0.580  -0.538  -0.483
 -- Virtual --
 -0.131  -0.117  -0.093  -0.086  -0.073  -0.060  -0.054  -0.037
 -0.029  -0.025  -0.016  -0.007  -0.006   0.007   0.008   0.018
  0.033   0.036   0.037   0.044   0.044   0.048   0.055   0.056
  0.067   0.075   0.077   0.081   0.087   0.095   0.096   0.097
  0.105   0.112   0.126   0.128   0.138   0.139   0.150   0.158
  0.161   0.168   0.170   0.179   0.186   0.201   0.205   0.208
  0.215   0.220   0.224   0.226   0.278   0.281   0.287   0.293
  0.360   0.376   0.407   0.425   0.428   0.432   0.445   0.446
  0.448   0.463   0.463   0.498   0.503   0.504   0.509   0.520
  0.534   0.542   0.557   0.562   0.576   0.579   0.584   0.585
  0.598   0.604   0.613   0.632   0.634   0.637   0.640   0.663
  0.684   0.685   0.704   0.710   0.714   0.721   0.722   0.735
  0.744   0.748   0.753   0.769   0.837   0.851   0.859   0.882
  0.907   0.934   0.957   0.958   0.959   0.975   0.989   1.003
  1.003   1.032   1.058   1.062   1.088   1.097   1.104   1.125
  1.147   1.169   1.174   1.192   1.206   1.227   1.234   1.234
  1.246   1.262   1.262   1.318   1.321   1.326   1.327   1.374
  1.400   1.417   1.419   1.432   1.460   1.520   1.583   1.593
  1.596   1.634   1.652   1.661   1.680   1.695   1.714   1.740
  1.751   1.752   1.788   1.793   1.837   1.921   2.036   2.110
  2.137   2.227   2.327   2.405   2.437   2.438   2.490   2.518
  2.532   2.541   2.598   2.611   2.616   2.632   2.654   2.661
  2.676   2.680   2.689   2.708   2.710   2.727   2.757   2.759
  2.767   2.769   2.786   2.810   2.821   2.833   2.853   2.944
  2.958   2.959   2.978   3.005   3.036   3.065   3.066   3.076
  3.085   3.086   3.103   3.113   3.115   3.152   3.160   3.172
  3.205   3.225   3.250   3.266   3.277   3.278   3.293   3.295
  3.312   3.323   3.349   3.361   3.388   3.391   3.417   3.436
  3.462   3.487   3.514   3.518   3.555   3.559   3.572   3.608
  3.623   3.629   3.635   3.656   3.703   3.765   3.767   3.778
  3.785   3.791   3.808   3.831   3.858   3.868   3.870   3.879
  3.884   3.888   3.971   3.976   3.980   4.036   4.074   4.141
  4.142   4.178   4.214   4.228   4.249   4.259   4.260   4.282
  4.290   4.301   4.317   4.345   4.361   4.389   4.392   4.408
  4.431   4.504   4.565   4.569   4.574   4.675   4.694   4.710
  4.733   4.782   4.835   4.838   4.847   4.895   4.992   5.020
  5.025   5.073   5.100   5.101   5.124   5.162   5.163   5.227
  5.243   5.292   5.444   5.446   5.470   5.550   5.553   5.677
  5.685   5.697   5.761   5.836   5.936   6.195   6.260   6.270
  6.298   6.375  23.700  24.244  24.276  24.518  24.527  25.011
 27.039  27.204  27.213  27.283  27.301  27.511  27.743  27.864
 27.880  28.031  28.056  28.058  28.290  28.311  28.384  28.410
 28.446  28.962  35.719  35.744  37.364  37.371  38.070  38.080
 38.249  38.342  40.298  40.302  40.372  40.373  40.465  40.467
 40.492  40.496  40.579  40.583  40.627  40.634  40.693  40.696
 40.703  40.703  40.723  40.729  40.767  40.811  40.853  40.870
 40.961  40.973  40.996  41.015  41.028  41.028  41.029  41.047
 41.062  41.069  41.098  41.103  41.154  41.194  41.215  41.234
 41.299  41.327
 
 Beta MOs
 -- Occupied --
-14.213 -14.213 -10.181 -10.181 -10.126 -10.126 -10.126 -10.126
 -1.207  -1.195  -1.113  -1.032  -0.998  -0.912  -0.883  -0.818
 -0.817  -0.784  -0.762  -0.715  -0.708  -0.692  -0.691  -0.672
 -0.628  -0.617  -0.536  -0.529
 -- Virtual --
 -0.259  -0.115  -0.093  -0.092  -0.082  -0.072  -0.059  -0.053
 -0.037  -0.028  -0.024  -0.016  -0.006  -0.006   0.007   0.009
  0.019   0.033   0.037   0.038   0.045   0.046   0.049   0.055
  0.061   0.070   0.077   0.078   0.082   0.089   0.096   0.098
  0.099   0.107   0.113   0.127   0.131   0.140   0.141   0.153
  0.158   0.161   0.170   0.170   0.181   0.189   0.201   0.208
  0.209   0.216   0.222   0.227   0.227   0.279   0.283   0.290
  0.297   0.361   0.381   0.409   0.429   0.430   0.435   0.448
  0.449   0.450   0.464   0.469   0.501   0.506   0.507   0.513
  0.523   0.537   0.547   0.561   0.566   0.579   0.581   0.586
  0.588   0.599   0.607   0.615   0.637   0.637   0.639   0.645
  0.665   0.686   0.689   0.709   0.716   0.717   0.724   0.724
  0.740   0.746   0.751   0.755   0.771   0.838   0.856   0.860
  0.885   0.911   0.937   0.961   0.961   0.961   0.977   0.992
  1.004   1.006   1.034   1.059   1.064   1.092   1.098   1.106
  1.129   1.150   1.171   1.177   1.195   1.210   1.232   1.235
  1.237   1.249   1.264   1.266   1.321   1.324   1.329   1.331
  1.376   1.403   1.418   1.421   1.436   1.463   1.523   1.587
  1.598   1.599   1.639   1.654   1.663   1.684   1.701   1.720
  1.744   1.758   1.758   1.793   1.798   1.839   1.925   2.039
  2.115   2.140   2.229   2.333   2.413   2.441   2.442   2.494
  2.521   2.536   2.547   2.602   2.619   2.619   2.636   2.658
  2.665   2.682   2.685   2.694   2.711   2.713   2.732   2.759
  2.764   2.772   2.775   2.795   2.817   2.829   2.839   2.862
  2.947   2.962   2.964   2.981   3.009   3.041   3.070   3.073
  3.082   3.090   3.091   3.107   3.118   3.118   3.157   3.163
  3.177   3.212   3.228   3.257   3.269   3.281   3.284   3.297
  3.303   3.316   3.327   3.353   3.366   3.394   3.397   3.422
  3.443   3.466   3.493   3.520   3.524   3.561   3.565   3.579
  3.613   3.628   3.634   3.644   3.664   3.707   3.775   3.778
  3.782   3.788   3.793   3.815   3.835   3.863   3.874   3.874
  3.882   3.890   3.891   3.977   3.982   3.982   4.037   4.075
  4.145   4.145   4.182   4.219   4.233   4.251   4.263   4.266
  4.286   4.297   4.304   4.321   4.348   4.368   4.392   4.396
  4.417   4.433   4.511   4.569   4.574   4.579   4.681   4.698
  4.714   4.737   4.791   4.839   4.842   4.852   4.900   4.999
  5.024   5.035   5.087   5.112   5.114   5.140   5.170   5.170
  5.232   5.254   5.304   5.449   5.452   5.477   5.558   5.560
  5.678   5.688   5.703   5.765   5.840   5.939   6.200   6.265
  6.276   6.303   6.377  23.702  24.245  24.279  24.521  24.528
 25.014  27.042  27.205  27.217  27.288  27.303  27.514  27.745
 27.865  27.881  28.032  28.057  28.060  28.291  28.312  28.385
 28.411  28.447  28.963  35.727  35.751  37.374  37.381  38.074
 38.084  38.254  38.346  40.309  40.313  40.381  40.382  40.478
 40.480  40.501  40.504  40.585  40.588  40.632  40.639  40.695
 40.699  40.704  40.705  40.725  40.732  40.768  40.812  40.856
 40.872  40.966  40.975  41.000  41.017  41.029  41.030  41.031
 41.049  41.064  41.072  41.100  41.105  41.156  41.195  41.216
 41.235  41.300  41.328
 --------------------------------------------------------------
 
          Ground-State Mulliken Net Atomic Charges

     Atom                 Charge (a.u.)    Spin (a.u.)
  --------------------------------------------------------
      1 C                     0.063968       0.043161
      2 C                     0.064418       0.037655
      3 C                    -0.348739       0.199808
      4 C                     0.063299       0.043148
      5 C                     0.064513       0.037877
      6 C                    -0.349643       0.199680
      7 H                     0.203795      -0.003324
      8 H                     0.203475      -0.003039
      9 H                     0.203794      -0.003323
     10 H                     0.203394      -0.003047
     11 H                     0.238953      -0.001517
     12 H                     0.238965      -0.001533
     13 H                     0.238996      -0.001519
     14 H                     0.238964      -0.001544
     15 N                    -0.164024       0.228822
     16 N                    -0.164130       0.228695
  --------------------------------------------------------
  Sum of atomic charges =     1.000000
  Sum of spin   charges =     1.000000

 -----------------------------------------------------------------
                    Cartesian Multipole Moments
 -----------------------------------------------------------------
    Charge (ESU x 10^10)
                 4.8032
    Dipole Moment (Debye)
         X     128.2404      Y     117.7433      Z     120.7971
       Tot     211.8986
    Quadrupole Moments (Debye-Ang)
        XX    3401.6368     XY    3144.4806     YY    2853.5305
        XZ    3244.5720     YZ    2965.9370     ZZ    3000.5798
    Octapole Moments (Debye-Ang^2)
       XXX   89632.2826    XXY   83431.9853    XYY   76228.4604
       YYY   68343.5174    XXZ   86585.6148    XYZ   79685.0198
       YYZ   71998.5246    XZZ   81089.0128    YZZ   73795.0448
       ZZZ   73582.2538
    Hexadecapole Moments (Debye-Ang^3)
      XXXX 2344927.5659   XXXY 2198995.7657   XXYY 2022845.3131
      XYYY 1826226.4634   YYYY 1616009.9653   XXXZ 2295709.2674
      XXYZ 2127083.0972   XYYZ 1934993.8673   YYYZ 1727387.8543
      XXZZ 2176932.9205   XYZZ 1994743.1267   YYZZ 1794070.1263
      XZZZ 2001312.4980   YZZZ 1812798.6686   ZZZZ 1779440.0050
 -----------------------------------------------------------------
 Total job time:  1070.15s(wall), 1068.34s(cpu) 
 Tue Apr 12 14:37:55 2011

        *************************************************************
        *                                                           *
        *  Thank you very much for using Q-Chem.  Have a nice day.  *
        *                                                           *
        *************************************************************


0 sent ACK to 0 
now end server 0 ... 
