Process 0 of 1 is on cl076.stfx.acenet.ca - thread support 1
initial socket setup ...start
initial socket setup ...done 
now start server 0 ... 

cmd = /usr/bin/ssh clhead /usr/local/qchem/bin/get_hostid 890685500 > /scratch/tmp/5955833.1.short.q/qchem30691/lic.dat
                  Welcome to Q-Chem
     A Quantum Leap Into The Future Of Chemistry

 Y. Shao, L. Fusti-Molnar, Y. Jung, J. Kussmann, C. Ochsenfeld,
 S. T. Brown, A. T. B. Gilbert, L. V. Slipchenko,S. V. Levchenko,
 D. P. O'Neill, R. A. DiStasio Jr., R. C. Lochan, T. Wang,
 G. J. O. Beran, N. A. Besley, J. M. Herbert, C. Y. Lin,
 T. Van Voorhis, S. H. Chien, A. Sodt, R. P. Steele, 
 V. A. Rassolov, P. E. Maslen, P. P. Korambath, R. D. Adamson,
 B. Austin, J. Baker, E. F. C. Byrd, H. Dachsel, R. J. Doerksen,
 A. Dreuw, B. D. Dunietz, A. D. Dutoi, T. R. Furlani,
 S. R. Gwaltney, A. Heyden, S. Hirata, C.-P. Hsu, G. Kedziora,
 R. Z. Khaliullin, P. Klunzinger, A. M. Lee, M. S. Lee, W. Liang,
 I. Lotan, N. Nair, B. Peters, E. I. Proynov, P. A. Pieniazek, 
 Y. M. Rhee, J. Ritchie, E. Rosta, C. D. Sherrill, 
 A. C. Simmonett, J. E. Subotnik, H. L. Woodcock III,
 W. Zhang, A. T. Bell, A. K. Chakraborty, D. M. Chipman,
 F. J. Keil, A. Warshel, W. J. Hehre, H. F. Schaefer III,
 J. Kong, A. I. Krylov, P. M. W. Gill, M. Head-Gordon,
 Q-Chem, Version 3.1, Q-Chem, Inc., Pittsburgh, PA (2007).

 Additional authors for Version 3.1: 
 Z. Gan, Y. Zhao, N. E. Schultz, D. Truhlar, E. Epifanovsky and M. Oana.

 Additional authors for Version 3.2: 
 R. Baer, B. R. Brooks, D. Casanova, J.-D. Chai, C.-L. Cheng, 
 C. Cramer, D. Crittenden, A. Ghysels, G. Hawkins, E. G. Hohenstein, 
 C. Kelley, W. Kurlancheek, D. Liotard, E. Livshits, P. Manohar, 
 A. Marenich, D. Neuhauser, R. Olson, M. A. Rohrdanz, K. S. Thanthiriwatte, 
 A. J. W. Thom, V. Vanovschi, C. F. Williams, Q. Wu and Z.-Q. You. 


 Intel X86 Linux Version

 Q-chem begins on Tue Apr 30 21:26:34 2013  

 Parallel job on  1  processors
Processing $rem in /usr/local/qchem/config/preferences.

theFileMan(): MAXOPENFILES=974 MAX_SUB_FILE_NUM=16
Maximum size of a physical file is 2.0 GB, maximum size of a tmp-file is 32.0 GB


--------------------------------------------------------------
User input:
--------------------------------------------------------------

$molecule
-1,2
C
CL,1,CCl
H,1,CH,2,HCCl
H,1,CH,2,HCCl,3,120.,0
H,1,CH,2,HCCl,3,240.,0

CCl=1.80320288
CH=1.09011507
HCCl=108.51648869

$end

$comment
negative
$end

$xc_functional
C PBE   1.00
X wPBE  1.00
$end

$rem
SYMMETRY_DECOMPOSITION	0
exchange 		general
LRC_DFT                 true
BASIS                   g3large
omega			380
mem_static              760
max_scf_cycles          200
scf_final_print         1
sym_ignore              true
$end

--------------------------------------------------------------
 Writing REM_CC_EA            5
 ----------------------------------------------------
       Standard Nuclear Orientation (Angstroms)
    I     Atom         X            Y            Z
 ----------------------------------------------------
    1      C       0.000000     0.000000     0.000000
    2      Cl      0.000000     0.000000     1.803203
    3      H       1.033682     0.000000    -0.346196
    4      H      -0.516841    -0.895195    -0.346196
    5      H      -0.516841     0.895195    -0.346196
 ----------------------------------------------------
 Nuclear Repulsion Energy =    50.8734754393 hartrees
 There are       14 alpha and       13 beta electrons
 Requested basis set is G3large
 There are 47 shells and 138 basis functions

Total QAlloc Memory Limit   2000 MB
Mega-Array Size       743 MB
MEM_STATIC part       760 MB

                       Distance Matrix (Angstroms)
             C (  1)   Cl(  2)   H (  3)   H (  4)
   Cl(  2)  1.803203
   H (  3)  1.090115  2.385040
   H (  4)  1.090115  2.385040  1.790390
   H (  5)  1.090115  2.385040  1.790390  1.790390
 
 A cutoff of  1.0D-08 yielded   1078 shell pairs
 There are   9413 function pairs ( 12248 Cartesian)
Evaluating contribution to one-electron hamiltonian from nuclear
 Smallest overlap matrix eigenvalue = 3.86E-04
 Multipole matrices computed through 2nd order

  Scale SEOQF with 1.000000e-01/1.000000e-01/1.000000e-01

 Standard Electronic Orientation quadrupole field applied
 Nucleus-field energy     =    -0.0000000058 hartrees
 Guess from superposition of atomic densities
 Warning:  Energy on first SCF cycle will be non-variational
 Long-range K will be added via erf
 Coulomb attenuation parameter = 0.38 bohr**(-1)
 An unrestricted Kohn-Sham SCF calculation will be
 performed using Pulay DIIS extrapolation
 Exchange:  wPBE + LR-HF      Correlation:  PBE
 Using SG-1 standard quadrature grid
 SCF converges when DIIS error is below 1.0E-05
 Requested basis set is G3large
 There are 47 shells and 138 basis functions
 A cutoff of  1.0D-08 yielded   1078 shell pairs
 There are   9413 function pairs ( 12248 Cartesian)
 Warning!  Inaccurate integrated density:
   Number of electrons =    27
   Numerical integral  =    26.000018219035
   Relative error      =    -3.7036362258 %
 ---------------------------------------
  Cycle       Energy         DIIS Error
 ---------------------------------------
    1    -500.1214263735      2.87E-02
    2    -499.8106481162      4.40E-03
    3    -499.8594034555      4.85E-03
    4    -499.9102454583      9.85E-04
    5    -499.9189102508      7.00E-04
    6    -499.9249760489      4.13E-04
    7    -499.9306075459      1.44E-04
    8    -499.9325231670      7.39E-05
    9    -499.9329875566      5.34E-05
   10    -499.9332730863      3.16E-05
   11    -499.9333144640      1.95E-05
   12    -499.9333183545      4.60E-06 Convergence criterion met
 ---------------------------------------
 One-Electron    Energy =  -793.2029226466
 Total Coulomb   Energy =   277.0849521471
 Alpha Exchange  Energy =    -2.6111399482
 Beta  Exchange  Energy =    -2.5386551348
 DFT   Exchange  Energy =   -28.5867164322
 DFT Correlation Energy =    -0.9523117735
 Nuclear Repu.   Energy =    50.8734754336
 Nuclear Attr.   Energy = -1292.3716471755
 Kinetic         Energy =   499.1687245290
 <S^2> = 0.7501
 SCF time:  CPU 72.39 s  wall 74.74 s
 Final Alpha MO Eigenvalues
            1           2           3           4           5           6
    1-100.7204936  -9.9956319  -9.2423887  -7.0611743  -7.0515365  -7.0515355
            7           8           9          10          11          12
    1  -0.8484744  -0.6656922  -0.4214960  -0.4214796  -0.3846865  -0.2772131
           13          14          15          16          17          18
    1  -0.2772078   0.0241939   0.1589175   0.1589647   0.1816240   0.2423120
           19
    1   0.2579584
 Final Beta MO Eigenvalues
            1           2           3           4           5           6
    1-100.7204114  -9.9946889  -9.2423078  -7.0608967  -7.0515072  -7.0515063
            7           8           9          10          11          12
    1  -0.8475768  -0.6633616  -0.4203582  -0.4203417  -0.3825896  -0.2766995
           13          14          15          16          17          18
    1  -0.2766940   0.1499587   0.1773343   0.1774038   0.1857537   0.2473951
 Analysis of SCF Wavefunction
 
 --------------------------------------------------------------
                    Orbital Energies (a.u.)
 --------------------------------------------------------------
 
 Alpha MOs
 -- Occupied --
*******  -9.996  -9.242  -7.061  -7.052  -7.052  -0.848  -0.666
 -0.421  -0.421  -0.385  -0.277  -0.277   0.024
 -- Virtual --
  0.159   0.159   0.182   0.242   0.258   0.258   0.265   0.269
  0.269   0.315   0.350   0.381   0.381   0.460   0.511   0.511
  0.545   0.545   0.621   0.650   0.665   0.666   0.719   0.719
  0.789   0.789   0.835   0.862   0.955   0.984   0.984   1.099
  1.199   1.199   1.227   1.274   1.274   1.323   1.350   1.350
  1.359   1.359   1.389   1.444   1.463   1.591   1.591   1.613
  1.644   1.644   1.669   1.669   1.761   1.801   1.801   1.919
  2.430   2.430   2.528   2.697   2.697   2.780   3.156   3.179
  3.307   3.307   3.404   3.404   3.542   3.542   3.654   3.749
  3.750   3.787   4.083   4.083   4.115   4.320   4.320   4.464
  4.526   4.526   4.577   4.614   4.655   4.655   4.711   4.771
  4.771   4.857   5.265   5.267   5.330   5.393   5.393   5.851
  5.851   5.889   9.922  20.735  20.735  20.948  24.232  27.235
 27.281  27.316  27.352  27.352  28.066  28.169  28.169  36.959
 36.960  36.963  36.964  36.972  36.972  36.979  41.044  41.064
 41.279  41.307  41.359 215.788
 
 Beta MOs
 -- Occupied --
*******  -9.995  -9.242  -7.061  -7.052  -7.052  -0.848  -0.663
 -0.420  -0.420  -0.383  -0.277  -0.277
 -- Virtual --
  0.150   0.177   0.177   0.186   0.247   0.259   0.259   0.268
  0.268   0.274   0.318   0.350   0.383   0.383   0.456   0.512
  0.512   0.545   0.545   0.620   0.650   0.665   0.665   0.719
  0.719   0.787   0.787   0.834   0.861   0.955   0.985   0.985
  1.100   1.199   1.200   1.227   1.275   1.275   1.323   1.350
  1.350   1.360   1.360   1.389   1.445   1.464   1.592   1.592
  1.612   1.644   1.644   1.670   1.670   1.761   1.802   1.802
  1.919   2.430   2.430   2.529   2.697   2.697   2.780   3.157
  3.180   3.307   3.307   3.405   3.406   3.543   3.543   3.654
  3.751   3.751   3.789   4.084   4.084   4.115   4.321   4.321
  4.464   4.526   4.526   4.577   4.615   4.656   4.656   4.711
  4.772   4.772   4.858   5.265   5.267   5.331   5.393   5.393
  5.852   5.852   5.889   9.923  20.735  20.735  20.948  24.233
 27.235  27.281  27.316  27.352  27.352  28.067  28.170  28.170
 36.959  36.960  36.963  36.964  36.972  36.972  36.979  41.044
 41.064  41.279  41.307  41.360 215.788
 --------------------------------------------------------------
 
          Ground-State Mulliken Net Atomic Charges

     Atom                 Charge (a.u.)    Spin (a.u.)
  --------------------------------------------------------
      1 C                     3.530066      -3.474441
      2 Cl                   -1.007501       0.674297
      3 H                    -1.176411       1.269005
      4 H                    -1.175548       1.268133
      5 H                    -1.170605       1.263006
  --------------------------------------------------------
  Sum of atomic charges =    -1.000000
  Sum of spin   charges =     1.000000

 -----------------------------------------------------------------
                    Cartesian Multipole Moments
 -----------------------------------------------------------------
    Charge (ESU x 10^10)
                -4.8032
    Dipole Moment (Debye)
         X      -0.0095      Y       0.0162      Z       3.2294
       Tot       3.2295
    Quadrupole Moments (Debye-Ang)
        XX     -42.6880     XY      -0.0131     YY     -42.6675
        XZ       0.0099     YZ      -0.0167     ZZ     -45.7984
    Octapole Moments (Debye-Ang^2)
       XXX      -4.3391    XXY       0.0587    XYY       4.1838
       YYY       0.1762    XXZ      -2.2524    XYZ       0.0078
       YYZ      -2.2645    XZZ      -0.0361    YZZ       0.0550
       ZZZ     -20.0122
    Hexadecapole Moments (Debye-Ang^3)
      XXXX    -283.2059   XXXY      -0.1017   XXYY     -94.3338
      XYYY      -0.1189   YYYY    -282.8438   XXXZ       2.5305
      XXYZ      -0.0443   XYYZ      -2.4210   YYYZ      -0.1329
      XXZZ    -134.3278   XYZZ      -0.0349   YYZZ    -134.2696
      XZZZ       0.0804   YZZZ      -0.1250   ZZZZ    -500.7285
 -----------------------------------------------------------------
 Total job time:  74.95s(wall), 72.55s(cpu) 
 Tue Apr 30 21:27:49 2013

        *************************************************************
        *                                                           *
        *  Thank you very much for using Q-Chem.  Have a nice day.  *
        *                                                           *
        *************************************************************


0 sent ACK to 0 
now end server 0 ... 
 
**********************************************************************
Job 2 of 3 
**********************************************************************
 
Process 0 of 1 is on cl076.stfx.acenet.ca - thread support 1
initial socket setup ...start
initial socket setup ...done 
now start server 0 ... 

cmd = /usr/bin/ssh clhead /usr/local/qchem/bin/get_hostid 1858503291 > /scratch/tmp/5955833.1.short.q/qchem30691/lic.dat
                  Welcome to Q-Chem
     A Quantum Leap Into The Future Of Chemistry

 Y. Shao, L. Fusti-Molnar, Y. Jung, J. Kussmann, C. Ochsenfeld,
 S. T. Brown, A. T. B. Gilbert, L. V. Slipchenko,S. V. Levchenko,
 D. P. O'Neill, R. A. DiStasio Jr., R. C. Lochan, T. Wang,
 G. J. O. Beran, N. A. Besley, J. M. Herbert, C. Y. Lin,
 T. Van Voorhis, S. H. Chien, A. Sodt, R. P. Steele, 
 V. A. Rassolov, P. E. Maslen, P. P. Korambath, R. D. Adamson,
 B. Austin, J. Baker, E. F. C. Byrd, H. Dachsel, R. J. Doerksen,
 A. Dreuw, B. D. Dunietz, A. D. Dutoi, T. R. Furlani,
 S. R. Gwaltney, A. Heyden, S. Hirata, C.-P. Hsu, G. Kedziora,
 R. Z. Khaliullin, P. Klunzinger, A. M. Lee, M. S. Lee, W. Liang,
 I. Lotan, N. Nair, B. Peters, E. I. Proynov, P. A. Pieniazek, 
 Y. M. Rhee, J. Ritchie, E. Rosta, C. D. Sherrill, 
 A. C. Simmonett, J. E. Subotnik, H. L. Woodcock III,
 W. Zhang, A. T. Bell, A. K. Chakraborty, D. M. Chipman,
 F. J. Keil, A. Warshel, W. J. Hehre, H. F. Schaefer III,
 J. Kong, A. I. Krylov, P. M. W. Gill, M. Head-Gordon,
 Q-Chem, Version 3.1, Q-Chem, Inc., Pittsburgh, PA (2007).

 Additional authors for Version 3.1: 
 Z. Gan, Y. Zhao, N. E. Schultz, D. Truhlar, E. Epifanovsky and M. Oana.

 Additional authors for Version 3.2: 
 R. Baer, B. R. Brooks, D. Casanova, J.-D. Chai, C.-L. Cheng, 
 C. Cramer, D. Crittenden, A. Ghysels, G. Hawkins, E. G. Hohenstein, 
 C. Kelley, W. Kurlancheek, D. Liotard, E. Livshits, P. Manohar, 
 A. Marenich, D. Neuhauser, R. Olson, M. A. Rohrdanz, K. S. Thanthiriwatte, 
 A. J. W. Thom, V. Vanovschi, C. F. Williams, Q. Wu and Z.-Q. You. 


 Intel X86 Linux Version

 Q-chem begins on Tue Apr 30 21:27:52 2013  

 Parallel job on  1  processors
Processing $rem in /usr/local/qchem/config/preferences.

theFileMan(): MAXOPENFILES=974 MAX_SUB_FILE_NUM=16
Maximum size of a physical file is 2.0 GB, maximum size of a tmp-file is 32.0 GB


--------------------------------------------------------------
User input:
--------------------------------------------------------------

$molecule
0,1
C
CL,1,CCl
H,1,CH,2,HCCl
H,1,CH,2,HCCl,3,120.,0
H,1,CH,2,HCCl,3,240.,0

CCl=1.80320288
CH=1.09011507
HCCl=108.51648869

$end

$comment
neutral
$end

$xc_functional
C PBE   1.00
X wPBE  1.00
$end


$rem
SYMMETRY_DECOMPOSITION	0
LRC_DFT                 true
exchange 		general
BASIS                   g3large
omega			380
mem_static              760
max_scf_cycles          200
scf_final_print         1
sym_ignore              true
$end

--------------------------------------------------------------
 Writing REM_CC_EA            5
 ----------------------------------------------------
       Standard Nuclear Orientation (Angstroms)
    I     Atom         X            Y            Z
 ----------------------------------------------------
    1      C       0.000000     0.000000     0.000000
    2      Cl      0.000000     0.000000     1.803203
    3      H       1.033682     0.000000    -0.346196
    4      H      -0.516841    -0.895195    -0.346196
    5      H      -0.516841     0.895195    -0.346196
 ----------------------------------------------------
 Nuclear Repulsion Energy =    50.8734754393 hartrees
 There are       13 alpha and       13 beta electrons
 Requested basis set is G3large
 There are 47 shells and 138 basis functions

Total QAlloc Memory Limit   2000 MB
Mega-Array Size       743 MB
MEM_STATIC part       760 MB

                       Distance Matrix (Angstroms)
             C (  1)   Cl(  2)   H (  3)   H (  4)
   Cl(  2)  1.803203
   H (  3)  1.090115  2.385040
   H (  4)  1.090115  2.385040  1.790390
   H (  5)  1.090115  2.385040  1.790390  1.790390
 
 A cutoff of  1.0D-08 yielded   1078 shell pairs
 There are   9413 function pairs ( 12248 Cartesian)
Evaluating contribution to one-electron hamiltonian from nuclear
 Smallest overlap matrix eigenvalue = 3.86E-04
 Multipole matrices computed through 2nd order

  Scale SEOQF with 1.000000e-01/1.000000e-01/1.000000e-01

 Standard Electronic Orientation quadrupole field applied
 Nucleus-field energy     =    -0.0000000058 hartrees
 Guess from superposition of atomic densities
 Warning:  Energy on first SCF cycle will be non-variational
 Long-range K will be added via erf
 Coulomb attenuation parameter = 0.38 bohr**(-1)
 A restricted Kohn-Sham SCF calculation will be
 performed using Pulay DIIS extrapolation
 Exchange:  wPBE + LR-HF      Correlation:  PBE
 Using SG-1 standard quadrature grid
 SCF converges when DIIS error is below 1.0E-05
 Requested basis set is G3large
 There are 47 shells and 138 basis functions
 A cutoff of  1.0D-08 yielded   1078 shell pairs
 There are   9413 function pairs ( 12248 Cartesian)
 ---------------------------------------
  Cycle       Energy         DIIS Error
 ---------------------------------------
    1    -500.1214263735      2.87E-02
    2    -499.9443672341      2.51E-03
    3    -499.9587133460      1.38E-03
    4    -499.9616590346      3.35E-04
    5    -499.9619158052      9.32E-05
    6    -499.9619456879      2.74E-05
    7    -499.9619490939      7.40E-06 Convergence criterion met
 ---------------------------------------
 One-Electron    Energy =  -789.5351808934
 Total Coulomb   Energy =   273.3000324597
 Alpha Exchange  Energy =    -2.5399267866
 Beta  Exchange  Energy =    -2.5399267866
 DFT   Exchange  Energy =   -28.5761350246
 DFT Correlation Energy =    -0.9442874961
 Nuclear Repu.   Energy =    50.8734754336
 Nuclear Attr.   Energy = -1288.6142157691
 Kinetic         Energy =   499.0790348758
 SCF time:  CPU 34.62 s  wall 36.10 s
 Final Alpha MO Eigenvalues
            1           2           3           4           5           6
    1-100.8577907 -10.1516347  -9.3794879  -7.1989322  -7.1883151  -7.1883124
            7           8           9          10          11          12
    1  -0.9886237  -0.8140473  -0.5730459  -0.5730422  -0.5256664  -0.4143916
           13          14          15          16          17          18
    1  -0.4143874   0.0354532   0.0686786   0.0686832   0.0750017   0.1315050
 Analysis of SCF Wavefunction
 
 --------------------------------------------------------------
                    Orbital Energies (a.u.)
 --------------------------------------------------------------
 
 Alpha MOs
 -- Occupied --
******* -10.152  -9.379  -7.199  -7.188  -7.188  -0.989  -0.814
 -0.573  -0.573  -0.526  -0.414  -0.414
 -- Virtual --
  0.035   0.069   0.069   0.075   0.132   0.147   0.151   0.151
  0.155   0.155   0.189   0.234   0.241   0.241   0.326   0.377
  0.377   0.413   0.413   0.482   0.518   0.518   0.531   0.590
  0.590   0.647   0.647   0.692   0.718   0.811   0.837   0.837
  0.943   1.057   1.057   1.085   1.132   1.132   1.180   1.209
  1.209   1.217   1.218   1.257   1.311   1.318   1.449   1.449
  1.472   1.495   1.495   1.520   1.520   1.612   1.662   1.662
  1.780   2.296   2.296   2.388   2.545   2.545   2.629   3.001
  3.028   3.154   3.154   3.251   3.251   3.390   3.390   3.508
  3.597   3.597   3.635   3.930   3.930   3.960   4.165   4.165
  4.312   4.373   4.373   4.438   4.479   4.518   4.519   4.559
  4.632   4.632   4.717   5.130   5.132   5.177   5.254   5.254
  5.696   5.696   5.749   9.786  20.599  20.599  20.811  24.076
 27.098  27.140  27.179  27.215  27.215  27.914  28.014  28.014
 36.823  36.824  36.826  36.827  36.834  36.834  36.841  40.888
 40.908  41.123  41.151  41.204 215.651
 --------------------------------------------------------------
 
          Ground-State Mulliken Net Atomic Charges

     Atom                 Charge (a.u.)
  ----------------------------------------
      1 C                     0.013205
      2 Cl                   -0.287013
      3 H                     0.091283
      4 H                     0.091269
      5 H                     0.091257
  ----------------------------------------
  Sum of atomic charges =     0.000000

 -----------------------------------------------------------------
                    Cartesian Multipole Moments
 -----------------------------------------------------------------
    Charge (ESU x 10^10)
                 0.0000
    Dipole Moment (Debye)
         X       0.0004      Y      -0.0001      Z      -2.0307
       Tot       2.0307
    Quadrupole Moments (Debye-Ang)
        XX     -19.8757     XY       0.0000     YY     -19.8758
        XZ       0.0008     YZ      -0.0002     ZZ     -22.5596
    Octapole Moments (Debye-Ang^2)
       XXX       0.8783    XXY       0.0000    XYY      -0.8777
       YYY      -0.0001    XXZ     -23.7321    XYZ      -0.0002
       YYZ     -23.7321    XZZ       0.0027    YZZ      -0.0024
       ZZZ     -67.5157
    Hexadecapole Moments (Debye-Ang^3)
      XXXX     -28.8239   XXXY       0.0001   XXYY      -9.6081
      XYYY       0.0001   YYYY     -28.8243   XXXZ      -0.3314
      XXYZ       0.0000   XYYZ       0.3329   YYYZ       0.0001
      XXZZ     -52.5693   XYZZ      -0.0002   YYZZ     -52.5694
      XZZZ       0.0071   YZZZ      -0.0074   ZZZZ    -261.8651
 -----------------------------------------------------------------
 Total job time:  36.29s(wall), 34.78s(cpu) 
 Tue Apr 30 21:28:28 2013

        *************************************************************
        *                                                           *
        *  Thank you very much for using Q-Chem.  Have a nice day.  *
        *                                                           *
        *************************************************************


0 sent ACK to 0 
now end server 0 ... 
 
**********************************************************************
Job 3 of 3 
**********************************************************************
 
Process 0 of 1 is on cl076.stfx.acenet.ca - thread support 1
initial socket setup ...start
initial socket setup ...done 
now start server 0 ... 

cmd = /usr/bin/ssh clhead /usr/local/qchem/bin/get_hostid 720235200 > /scratch/tmp/5955833.1.short.q/qchem30691/lic.dat
                  Welcome to Q-Chem
     A Quantum Leap Into The Future Of Chemistry

 Y. Shao, L. Fusti-Molnar, Y. Jung, J. Kussmann, C. Ochsenfeld,
 S. T. Brown, A. T. B. Gilbert, L. V. Slipchenko,S. V. Levchenko,
 D. P. O'Neill, R. A. DiStasio Jr., R. C. Lochan, T. Wang,
 G. J. O. Beran, N. A. Besley, J. M. Herbert, C. Y. Lin,
 T. Van Voorhis, S. H. Chien, A. Sodt, R. P. Steele, 
 V. A. Rassolov, P. E. Maslen, P. P. Korambath, R. D. Adamson,
 B. Austin, J. Baker, E. F. C. Byrd, H. Dachsel, R. J. Doerksen,
 A. Dreuw, B. D. Dunietz, A. D. Dutoi, T. R. Furlani,
 S. R. Gwaltney, A. Heyden, S. Hirata, C.-P. Hsu, G. Kedziora,
 R. Z. Khaliullin, P. Klunzinger, A. M. Lee, M. S. Lee, W. Liang,
 I. Lotan, N. Nair, B. Peters, E. I. Proynov, P. A. Pieniazek, 
 Y. M. Rhee, J. Ritchie, E. Rosta, C. D. Sherrill, 
 A. C. Simmonett, J. E. Subotnik, H. L. Woodcock III,
 W. Zhang, A. T. Bell, A. K. Chakraborty, D. M. Chipman,
 F. J. Keil, A. Warshel, W. J. Hehre, H. F. Schaefer III,
 J. Kong, A. I. Krylov, P. M. W. Gill, M. Head-Gordon,
 Q-Chem, Version 3.1, Q-Chem, Inc., Pittsburgh, PA (2007).

 Additional authors for Version 3.1: 
 Z. Gan, Y. Zhao, N. E. Schultz, D. Truhlar, E. Epifanovsky and M. Oana.

 Additional authors for Version 3.2: 
 R. Baer, B. R. Brooks, D. Casanova, J.-D. Chai, C.-L. Cheng, 
 C. Cramer, D. Crittenden, A. Ghysels, G. Hawkins, E. G. Hohenstein, 
 C. Kelley, W. Kurlancheek, D. Liotard, E. Livshits, P. Manohar, 
 A. Marenich, D. Neuhauser, R. Olson, M. A. Rohrdanz, K. S. Thanthiriwatte, 
 A. J. W. Thom, V. Vanovschi, C. F. Williams, Q. Wu and Z.-Q. You. 


 Intel X86 Linux Version

 Q-chem begins on Tue Apr 30 21:28:30 2013  

 Parallel job on  1  processors
Processing $rem in /usr/local/qchem/config/preferences.

theFileMan(): MAXOPENFILES=974 MAX_SUB_FILE_NUM=16
Maximum size of a physical file is 2.0 GB, maximum size of a tmp-file is 32.0 GB


--------------------------------------------------------------
User input:
--------------------------------------------------------------

$molecule
1,2
C
CL,1,CCl
H,1,CH,2,HCCl
H,1,CH,2,HCCl,3,120.,0
H,1,CH,2,HCCl,3,240.,0

CCl=1.80320288
CH=1.09011507
HCCl=108.51648869

$end

$comment
positive
$end

$xc_functional
C PBE   1.00
X wPBE  1.00
$end

$rem
SYMMETRY_DECOMPOSITION	0
LRC_DFT                 true
exchange 		general
BASIS                   g3large
omega			380
mem_static              760
max_scf_cycles          200
scf_final_print         1
sym_ignore              true
$end

--------------------------------------------------------------
 Writing REM_CC_EA            5
 ----------------------------------------------------
       Standard Nuclear Orientation (Angstroms)
    I     Atom         X            Y            Z
 ----------------------------------------------------
    1      C       0.000000     0.000000     0.000000
    2      Cl      0.000000     0.000000     1.803203
    3      H       1.033682     0.000000    -0.346196
    4      H      -0.516841    -0.895195    -0.346196
    5      H      -0.516841     0.895195    -0.346196
 ----------------------------------------------------
 Nuclear Repulsion Energy =    50.8734754393 hartrees
 There are       13 alpha and       12 beta electrons
 Requested basis set is G3large
 There are 47 shells and 138 basis functions

Total QAlloc Memory Limit   2000 MB
Mega-Array Size       743 MB
MEM_STATIC part       760 MB

                       Distance Matrix (Angstroms)
             C (  1)   Cl(  2)   H (  3)   H (  4)
   Cl(  2)  1.803203
   H (  3)  1.090115  2.385040
   H (  4)  1.090115  2.385040  1.790390
   H (  5)  1.090115  2.385040  1.790390  1.790390
 
 A cutoff of  1.0D-08 yielded   1078 shell pairs
 There are   9413 function pairs ( 12248 Cartesian)
Evaluating contribution to one-electron hamiltonian from nuclear
 Smallest overlap matrix eigenvalue = 3.86E-04
 Multipole matrices computed through 2nd order

  Scale SEOQF with 1.000000e-01/1.000000e-01/1.000000e-01

 Standard Electronic Orientation quadrupole field applied
 Nucleus-field energy     =    -0.0000000058 hartrees
 Guess from superposition of atomic densities
 Warning:  Energy on first SCF cycle will be non-variational
 Long-range K will be added via erf
 Coulomb attenuation parameter = 0.38 bohr**(-1)
 An unrestricted Kohn-Sham SCF calculation will be
 performed using Pulay DIIS extrapolation
 Exchange:  wPBE + LR-HF      Correlation:  PBE
 Using SG-1 standard quadrature grid
 SCF converges when DIIS error is below 1.0E-05
 Requested basis set is G3large
 There are 47 shells and 138 basis functions
 A cutoff of  1.0D-08 yielded   1078 shell pairs
 There are   9413 function pairs ( 12248 Cartesian)
 Warning!  Inaccurate integrated density:
   Number of electrons =    25
   Numerical integral  =    26.000018219035
   Relative error      =     4.0000728761 %
 ---------------------------------------
  Cycle       Energy         DIIS Error
 ---------------------------------------
    1    -500.1214263735      2.87E-02
    2    -499.4954386226      3.46E-03
    3    -499.5329082993      2.00E-03
    4    -499.5406242418      2.94E-04
    5    -499.5420148380      2.04E-04
    6    -499.5424822810      1.03E-04
    7    -499.5428192879      5.91E-05
    8    -499.5429479623      1.33E-05
    9    -499.5429560884      5.94E-06 Convergence criterion met
 ---------------------------------------
 One-Electron    Energy =  -780.8283061078
 Total Coulomb   Energy =   264.6725388986
 Alpha Exchange  Energy =    -2.5553768591
 Beta  Exchange  Energy =    -2.3579264954
 DFT   Exchange  Energy =   -28.4426783223
 DFT Correlation Energy =    -0.9046826359
 Nuclear Repu.   Energy =    50.8734754336
 Nuclear Attr.   Energy = -1279.5391655405
 Kinetic         Energy =   498.7108594327
 <S^2> = 0.7548
 SCF time:  CPU 53.13 s  wall 55.26 s
 Final Alpha MO Eigenvalues
            1           2           3           4           5           6
    1-101.2568911 -10.4192101  -9.7721641  -7.5980235  -7.5856068  -7.5755167
            7           8           9          10          11          12
    1  -1.3407170  -1.1015529  -0.8749560  -0.8450636  -0.8400035  -0.7738066
           13          14          15          16          17          18
    1  -0.7364418  -0.1785837  -0.1171961  -0.0764916  -0.0724586  -0.0598784
 Final Beta MO Eigenvalues
            1           2           3           4           5           6
    1-101.2509774 -10.4188222  -9.7667916  -7.5824511  -7.5823834  -7.5715265
            7           8           9          10          11          12
    1  -1.3002266  -1.0837669  -0.8392797  -0.8290222  -0.8186696  -0.7249723
           13          14          15          16          17
    1  -0.4213548  -0.1676169  -0.1156629  -0.0745589  -0.0720647
 Analysis of SCF Wavefunction
 
 --------------------------------------------------------------
                    Orbital Energies (a.u.)
 --------------------------------------------------------------
 
 Alpha MOs
 -- Occupied --
******* -10.419  -9.772  -7.598  -7.586  -7.576  -1.341  -1.102
 -0.875  -0.845  -0.840  -0.774  -0.736
 -- Virtual --
 -0.179  -0.117  -0.076  -0.072  -0.060  -0.034  -0.032  -0.031
 -0.017  -0.011   0.024   0.041   0.049   0.051   0.076   0.085
  0.128   0.138   0.145   0.253   0.297   0.300   0.304   0.330
  0.347   0.426   0.433   0.444   0.499   0.565   0.573   0.587
  0.716   0.770   0.785   0.803   0.847   0.849   0.867   0.874
  0.897   0.943   0.961   0.966   1.013   1.061   1.157   1.166
  1.190   1.247   1.258   1.266   1.268   1.369   1.379   1.396
  1.501   1.933   1.972   2.077   2.282   2.291   2.374   2.746
  2.758   2.886   2.894   2.987   2.994   3.122   3.128   3.217
  3.335   3.336   3.368   3.664   3.670   3.701   3.900   3.902
  4.020   4.050   4.086   4.087   4.093   4.146   4.158   4.273
  4.289   4.301   4.377   4.739   4.741   4.873   4.900   4.913
  5.395   5.432   5.442   9.404  20.189  20.214  20.427  23.809
 26.698  26.765  26.785  26.815  26.832  27.626  27.745  27.747
 36.424  36.426  36.432  36.435  36.439  36.454  36.458  40.619
 40.641  40.855  40.883  40.936 215.253
 
 Beta MOs
 -- Occupied --
******* -10.419  -9.767  -7.582  -7.582  -7.572  -1.300  -1.084
 -0.839  -0.829  -0.819  -0.725
 -- Virtual --
 -0.421  -0.168  -0.116  -0.075  -0.072  -0.057  -0.031  -0.028
 -0.027  -0.011  -0.010   0.024   0.050   0.050   0.054   0.105
  0.110   0.146   0.155   0.159   0.260   0.301   0.307   0.307
  0.351   0.353   0.432   0.434   0.452   0.503   0.568   0.587
  0.590   0.720   0.788   0.790   0.820   0.862   0.863   0.899
  0.902   0.918   0.969   0.970   0.973   1.025   1.071   1.174
  1.176   1.204   1.258   1.260   1.273   1.274   1.376   1.397
  1.398   1.511   1.981   1.984   2.084   2.291   2.295   2.380
  2.750   2.759   2.892   2.896   2.992   2.995   3.126   3.128
  3.219   3.338   3.339   3.370   3.670   3.672   3.706   3.910
  3.911   4.042   4.104   4.105   4.106   4.141   4.180   4.183
  4.298   4.308   4.308   4.393   4.756   4.761   4.891   4.902
  4.920   5.405   5.441   5.446   9.416  20.214  20.221  20.431
 23.809  26.711  26.776  26.793  26.828  26.834  27.626  27.747
 27.748  36.430  36.432  36.437  36.438  36.444  36.455  36.459
 40.619  40.642  40.855  40.883  40.937 215.260
 --------------------------------------------------------------
 
          Ground-State Mulliken Net Atomic Charges

     Atom                 Charge (a.u.)    Spin (a.u.)
  --------------------------------------------------------
      1 C                     0.094528       0.008493
      2 Cl                    0.433817       0.902773
      3 H                     0.157061       0.028774
      4 H                     0.149471       0.005062
      5 H                     0.165123       0.054899
  --------------------------------------------------------
  Sum of atomic charges =     1.000000
  Sum of spin   charges =     1.000000

 -----------------------------------------------------------------
                    Cartesian Multipole Moments
 -----------------------------------------------------------------
    Charge (ESU x 10^10)
                 4.8032
    Dipole Moment (Debye)
         X      -0.0016      Y       0.0877      Z       3.9131
       Tot       3.9141
    Quadrupole Moments (Debye-Ang)
        XX     -15.7834     XY      -0.8577     YY     -15.7256
        XZ       0.0058     YZ      -0.1042     ZZ      -7.0950
    Octapole Moments (Debye-Ang^2)
       XXX       1.2640    XXY       0.0328    XYY      -1.2656
       YYY       0.0982    XXZ     -18.9909    XYZ      -1.3577
       YYZ     -18.8989    XZZ       0.0069    YZZ      -0.0299
       ZZZ     -35.2681
    Hexadecapole Moments (Debye-Ang^3)
      XXXX     -19.8649   XXXY      -0.7054   XXYY      -6.6046
      XYYY      -0.7259   YYYY     -19.7691   XXXZ      -0.5950
      XXYZ      -0.0523   XYYZ       0.6064   YYYZ      -0.1570
      XXZZ     -39.8319   XYZZ      -2.9001   YYZZ     -39.6353
      XZZZ       0.0194   YZZZ      -0.1821   ZZZZ    -177.8639
 -----------------------------------------------------------------
 Total job time:  55.44s(wall), 53.29s(cpu) 
 Tue Apr 30 21:29:26 2013

        *************************************************************
        *                                                           *
        *  Thank you very much for using Q-Chem.  Have a nice day.  *
        *                                                           *
        *************************************************************


0 sent ACK to 0 
now end server 0 ... 
