Process 0 of 1 is on cl068.stfx.acenet.ca - thread support 1
initial socket setup ...start
initial socket setup ...done 
now start server 0 ... 

cmd = /usr/bin/ssh clhead /usr/local/qchem/bin/get_hostid 1769704694 > /scratch/tmp/6064169.1.short.q/qchem27417/lic.dat
                  Welcome to Q-Chem
     A Quantum Leap Into The Future Of Chemistry

 Y. Shao, L. Fusti-Molnar, Y. Jung, J. Kussmann, C. Ochsenfeld,
 S. T. Brown, A. T. B. Gilbert, L. V. Slipchenko,S. V. Levchenko,
 D. P. O'Neill, R. A. DiStasio Jr., R. C. Lochan, T. Wang,
 G. J. O. Beran, N. A. Besley, J. M. Herbert, C. Y. Lin,
 T. Van Voorhis, S. H. Chien, A. Sodt, R. P. Steele, 
 V. A. Rassolov, P. E. Maslen, P. P. Korambath, R. D. Adamson,
 B. Austin, J. Baker, E. F. C. Byrd, H. Dachsel, R. J. Doerksen,
 A. Dreuw, B. D. Dunietz, A. D. Dutoi, T. R. Furlani,
 S. R. Gwaltney, A. Heyden, S. Hirata, C.-P. Hsu, G. Kedziora,
 R. Z. Khaliullin, P. Klunzinger, A. M. Lee, M. S. Lee, W. Liang,
 I. Lotan, N. Nair, B. Peters, E. I. Proynov, P. A. Pieniazek, 
 Y. M. Rhee, J. Ritchie, E. Rosta, C. D. Sherrill, 
 A. C. Simmonett, J. E. Subotnik, H. L. Woodcock III,
 W. Zhang, A. T. Bell, A. K. Chakraborty, D. M. Chipman,
 F. J. Keil, A. Warshel, W. J. Hehre, H. F. Schaefer III,
 J. Kong, A. I. Krylov, P. M. W. Gill, M. Head-Gordon,
 Q-Chem, Version 3.1, Q-Chem, Inc., Pittsburgh, PA (2007).

 Additional authors for Version 3.1: 
 Z. Gan, Y. Zhao, N. E. Schultz, D. Truhlar, E. Epifanovsky and M. Oana.

 Additional authors for Version 3.2: 
 R. Baer, B. R. Brooks, D. Casanova, J.-D. Chai, C.-L. Cheng, 
 C. Cramer, D. Crittenden, A. Ghysels, G. Hawkins, E. G. Hohenstein, 
 C. Kelley, W. Kurlancheek, D. Liotard, E. Livshits, P. Manohar, 
 A. Marenich, D. Neuhauser, R. Olson, M. A. Rohrdanz, K. S. Thanthiriwatte, 
 A. J. W. Thom, V. Vanovschi, C. F. Williams, Q. Wu and Z.-Q. You. 


 Intel X86 Linux Version

 Q-chem begins on Sun Jul  7 11:17:19 2013  

 Parallel job on  1  processors
Processing $rem in /usr/local/qchem/config/preferences.

theFileMan(): MAXOPENFILES=974 MAX_SUB_FILE_NUM=16
Maximum size of a physical file is 2.0 GB, maximum size of a tmp-file is 32.0 GB


--------------------------------------------------------------
User input:
--------------------------------------------------------------

$molecule
0,1
N          0.00000        0.00000        1.83618
C          0.00000        0.00000        0.69391
C          0.00000        0.00000       -0.69391
N          0.00000        0.00000       -1.83618
$end

$comment
neutral
$end

$xc_functional
C PBE   1.00
X wPBE  1.00
$end


$rem
SYMMETRY_DECOMPOSITION	0
LRC_DFT                 true
exchange 		general
BASIS                   g3large
omega			420 
JOBTYPE                 opt
mem_static              760
max_scf_cycles          200
scf_final_print         1
sym_ignore              true
$end


--------------------------------------------------------------
 Writing REM_CC_EA            4
 ----------------------------------------------------
       Standard Nuclear Orientation (Angstroms)
    I     Atom         X            Y            Z
 ----------------------------------------------------
    1      N       0.000000     0.000000     1.836180
    2      C       0.000000     0.000000     0.693910
    3      C       0.000000     0.000000    -0.693910
    4      N       0.000000     0.000000    -1.836180
 ----------------------------------------------------
 Nuclear Repulsion Energy =    77.2710182365 hartrees
 There are       13 alpha and       13 beta electrons
 Requested basis set is G3large
 There are 40 shells and 168 basis functions

Total QAlloc Memory Limit   2000 MB
Mega-Array Size       743 MB
MEM_STATIC part       760 MB
 A cutoff of  1.0D-11 yielded    741 shell pairs
 There are  13388 function pairs ( 17541 Cartesian)
Evaluating contribution to one-electron hamiltonian from nuclear
 Smallest overlap matrix eigenvalue = 9.69E-06
 Multipole matrices computed through 2nd order

  Scale SEOQF with 1.000000e-01/1.000000e-01/1.000000e-01

 Standard Electronic Orientation quadrupole field applied
 Nucleus-field energy     =    -0.0000000057 hartrees
 Guess from superposition of atomic densities
 Warning:  Energy on first SCF cycle will be non-variational
 Long-range K will be added via erf
 Coulomb attenuation parameter = 0.42 bohr**(-1)
 A restricted Kohn-Sham SCF calculation will be
 performed using Pulay DIIS extrapolation
 Exchange:  wPBE + LR-HF      Correlation:  PBE
 Using SG-1 standard quadrature grid
 SCF converges when DIIS error is below 1.0E-08
 Requested basis set is G3large
 There are 40 shells and 168 basis functions
 A cutoff of  1.0D-11 yielded    741 shell pairs
 There are  13388 function pairs ( 17541 Cartesian)
 ---------------------------------------
  Cycle       Energy         DIIS Error
 ---------------------------------------
    1    -186.3104036746      3.76E-02
    2    -185.4281103930      5.65E-03
    3    -185.3438731300      8.62E-03
    4    -185.5449257678      4.80E-04
    5    -185.5473141046      1.55E-04
    6    -185.5477296884      4.22E-05
    7    -185.5477621757      7.77E-06
    8    -185.5477628879      2.07E-06
    9    -185.5477629196      3.18E-07
   10    -185.5477628890      6.25E-08
   11    -185.5477628859      7.73E-09 Convergence criterion met
 ---------------------------------------
 One-Electron    Energy =  -402.4098484168
 Total Coulomb   Energy =   163.9696641764
 Alpha Exchange  Energy =    -2.7213719389
 Beta  Exchange  Energy =    -2.7213719389
 DFT   Exchange  Energy =   -18.0928749356
 DFT Correlation Energy =    -0.8429780629
 Nuclear Repu.   Energy =    77.2710182308
 Nuclear Attr.   Energy =  -587.4047973994
 Kinetic         Energy =   184.9949489826
 SCF time:  CPU 66.74 s  wall 67.79 s
 Final Alpha MO Eigenvalues
            1           2           3           4           5           6
    1 -14.2835577 -14.2834989 -10.2294880 -10.2289874  -1.1405744  -1.1165019
            7           8           9          10          11          12
    1  -0.8931126  -0.5985587  -0.5985587  -0.5690607  -0.5564976  -0.5027852
           13          14          15          16          17          18
    1  -0.5027852  -0.0018814  -0.0018814   0.0489476   0.0760892   0.1005531
 Analysis of SCF Wavefunction
 
 --------------------------------------------------------------
                    Orbital Energies (a.u.)
 --------------------------------------------------------------
 
 Alpha MOs
 -- Occupied --
-14.284 -14.283 -10.229 -10.229  -1.141  -1.117  -0.893  -0.599
 -0.599  -0.569  -0.556  -0.503  -0.503
 -- Virtual --
 -0.002  -0.002   0.049   0.076   0.101   0.101   0.134   0.134
  0.150   0.168   0.223   0.223   0.233   0.255   0.255   0.263
  0.291   0.319   0.328   0.328   0.375   0.563   0.573   0.573
  0.597   0.597   0.680   0.680   0.718   0.758   0.806   0.806
  0.879   0.889   0.901   0.901   0.916   0.965   0.965   0.990
  0.990   1.013   1.198   1.198   1.243   1.383   1.383   1.412
  1.460   1.460   1.639   1.776   1.776   2.089   2.100   2.121
  2.121   2.138   2.418   2.695   2.695   2.699   2.699   2.710
  2.710   2.718   2.819   2.819   2.923   2.923   2.935   2.935
  3.153   3.154   3.174   3.174   3.243   3.243   3.255   3.285
  3.470   3.470   3.525   3.525   3.708   3.708   3.747   3.747
  3.889   3.889   3.977   4.036   4.036   4.174   4.274   4.274
  4.456   4.615   4.615   4.695   4.748   4.748   4.836   4.836
  4.899   4.899   5.096   5.166   5.166   5.315   5.315   5.790
  5.979   5.979   6.553   6.959   6.959   6.978   8.252  24.388
 24.775  27.278  27.278  27.473  27.473  28.658  30.132  36.056
 36.914  37.409  37.409  37.777  37.777  38.239  38.373  40.399
 40.409  40.509  40.511  40.520  40.591  40.591  40.765  40.778
 40.782  40.782  41.014  41.029  41.042  41.210  41.210  41.287
 41.287  41.610  41.654
 --------------------------------------------------------------
 
          Ground-State Mulliken Net Atomic Charges

     Atom                 Charge (a.u.)
  ----------------------------------------
      1 N                    -0.283032
      2 C                     0.283032
      3 C                     0.283032
      4 N                    -0.283032
  ----------------------------------------
  Sum of atomic charges =     0.000000

 -----------------------------------------------------------------
                    Cartesian Multipole Moments
 -----------------------------------------------------------------
    Charge (ESU x 10^10)
                 0.0000
    Dipole Moment (Debye)
         X       0.0000      Y       0.0000      Z       0.0000
       Tot       0.0000
    Quadrupole Moments (Debye-Ang)
        XX     -20.8389     XY       0.0000     YY     -20.8389
        XZ       0.0000     YZ       0.0000     ZZ     -30.3035
    Octapole Moments (Debye-Ang^2)
       XXX       0.0000    XXY       0.0000    XYY       0.0000
       YYY       0.0000    XXZ       0.0000    XYZ       0.0000
       YYZ       0.0000    XZZ       0.0000    YZZ       0.0000
       ZZZ       0.0000
    Hexadecapole Moments (Debye-Ang^3)
      XXXX     -20.1790   XXXY       0.0000   XXYY      -6.7263
      XYYY       0.0000   YYYY     -20.1790   XXXZ       0.0000
      XXYZ       0.0000   XYYZ       0.0000   YYYZ       0.0000
      XXZZ     -50.3413   XYZZ       0.0000   YYZZ     -50.3413
      XZZZ       0.0000   YZZZ       0.0000   ZZZZ    -331.7772
 -----------------------------------------------------------------
 Calculating analytic gradient of the SCF energy
 Gradient of AOints
            1           2           3           4
    1  -0.0000001  -0.0000000   0.0000000   0.0000001
    2   0.0000001   0.0000000  -0.0000000  -0.0000001
    3 -15.6911161   1.7614393  -1.7614393  15.6911161
 Gradient of XC Energy
            1           2           3           4
    1   0.0000000  -0.0000000   0.0000000  -0.0000000
    2  -0.0000000   0.0000000  -0.0000000   0.0000000
    3   0.4701225  -0.1713442   0.1713442  -0.4701225
 Gradient of SCF Energy
            1           2           3           4
    1   0.0000000  -0.0000000   0.0000000  -0.0000000
    2  -0.0000000   0.0000000  -0.0000000   0.0000000
    3   0.0001683   0.0002032  -0.0002032  -0.0001683
 Max gradient component =       2.032E-04
 RMS gradient           =       1.077E-04
 Gradient time:  CPU 36.09 s  wall 36.53 s
 Geometry Optimization Parameters
   NAtoms,    NIC,     NZ,  NCons,   NDum,   NFix, NCnnct, MaxDiis
        4      14       0       0       0       0       0       0


** GEOMETRY OPTIMIZATION IN DELOCALIZED INTERNAL COORDINATES **
   Searching for a Minimum

   Optimization Cycle:   1

                       Coordinates (Angstroms)
     ATOM              X           Y           Z
    1  N           0.000000    0.000000    1.836180
    2  C           0.000000    0.000000    0.693910
    3  C           0.000000    0.000000   -0.693910
    4  N           0.000000    0.000000   -1.836180
   Point Group: c1    Number of degrees of freedom:   6


   Energy is   -185.547762886


 Attempting to Generate Delocalized Internal Coordinates

  ***ERROR*** Angle     1    2    3   is near-linear
              But No atom available to define colinear bend
**WARNING** Problems with Internal Coordinates
  Switching to Cartesian Coordinates

 Translations and Rotations Projected Out of Hessian

  7 Hessian modes will be used to form the next step
  Hessian Eigenvalues:
     1.000000    1.000000    1.000000    1.000000    1.000000    1.000000
     1.000000

 Minimum Search - Taking Simple RFO Step
 Searching for Lamda that Minimizes Along All modes
 Value Taken    Lamda =   0.00000000
 Step Taken.  Stepsize is  0.000373

                             Maximum     Tolerance    Cnvgd?
         Gradient           0.000203      0.000300     YES
         Displacement       0.000203      0.001200     YES
         Energy change     *********      0.000001      NO


                       Distance Matrix (Angstroms)
             N (  1)   C (  2)   C (  3)
   C (  2)  1.142270
   C (  3)  2.530090  1.387820
   N (  4)  3.672360  2.530090  1.142270
 


 ******************************
 **  OPTIMIZATION CONVERGED  **
 ******************************
 Analysis of SCF Wavefunction
 
 --------------------------------------------------------------
                    Orbital Energies (a.u.)
 --------------------------------------------------------------
 
 Alpha MOs
 -- Occupied --
-14.284 -14.283 -10.229 -10.229  -1.141  -1.117  -0.893  -0.599
 -0.599  -0.569  -0.556  -0.503  -0.503
 -- Virtual --
 -0.002  -0.002   0.049   0.076   0.101   0.101   0.134   0.134
  0.150   0.168   0.223   0.223   0.233   0.255   0.255   0.263
  0.291   0.319   0.328   0.328   0.375   0.563   0.573   0.573
  0.597   0.597   0.680   0.680   0.718   0.758   0.806   0.806
  0.879   0.889   0.901   0.901   0.916   0.965   0.965   0.990
  0.990   1.013   1.198   1.198   1.243   1.383   1.383   1.412
  1.460   1.460   1.639   1.776   1.776   2.089   2.100   2.121
  2.121   2.138   2.418   2.695   2.695   2.699   2.699   2.710
  2.710   2.718   2.819   2.819   2.923   2.923   2.935   2.935
  3.153   3.154   3.174   3.174   3.243   3.243   3.255   3.285
  3.470   3.470   3.525   3.525   3.708   3.708   3.747   3.747
  3.889   3.889   3.977   4.036   4.036   4.174   4.274   4.274
  4.456   4.615   4.615   4.695   4.748   4.748   4.836   4.836
  4.899   4.899   5.096   5.166   5.166   5.315   5.315   5.790
  5.979   5.979   6.553   6.959   6.959   6.978   8.252  24.388
 24.775  27.278  27.278  27.473  27.473  28.658  30.132  36.056
 36.914  37.409  37.409  37.777  37.777  38.239  38.373  40.399
 40.409  40.509  40.511  40.520  40.591  40.591  40.765  40.778
 40.782  40.782  41.014  41.029  41.042  41.210  41.210  41.287
 41.287  41.610  41.654
 --------------------------------------------------------------
 
          Ground-State Mulliken Net Atomic Charges

     Atom                 Charge (a.u.)
  ----------------------------------------
      1 N                    -0.283032
      2 C                     0.283032
      3 C                     0.283032
      4 N                    -0.283032
  ----------------------------------------
  Sum of atomic charges =     0.000000

 -----------------------------------------------------------------
                    Cartesian Multipole Moments
 -----------------------------------------------------------------
    Charge (ESU x 10^10)
                 0.0000
    Dipole Moment (Debye)
         X       0.0000      Y       0.0000      Z       0.0000
       Tot       0.0000
    Quadrupole Moments (Debye-Ang)
        XX     -20.8389     XY       0.0000     YY     -20.8389
        XZ       0.0000     YZ       0.0000     ZZ     -30.3035
    Octapole Moments (Debye-Ang^2)
       XXX       0.0000    XXY       0.0000    XYY       0.0000
       YYY       0.0000    XXZ       0.0000    XYZ       0.0000
       YYZ       0.0000    XZZ       0.0000    YZZ       0.0000
       ZZZ       0.0000
    Hexadecapole Moments (Debye-Ang^3)
      XXXX     -20.1790   XXXY       0.0000   XXYY      -6.7263
      XYYY       0.0000   YYYY     -20.1790   XXXZ       0.0000
      XXYZ       0.0000   XYYZ       0.0000   YYYZ       0.0000
      XXZZ     -50.3413   XYZZ       0.0000   YYZZ     -50.3413
      XZZZ       0.0000   YZZZ       0.0000   ZZZZ    -331.7772
 -----------------------------------------------------------------
 Total job time:  104.56s(wall), 103.06s(cpu) 
 Sun Jul  7 11:19:03 2013

        *************************************************************
        *                                                           *
        *  Thank you very much for using Q-Chem.  Have a nice day.  *
        *                                                           *
        *************************************************************


0 sent ACK to 0 
now end server 0 ... 
 
**********************************************************************
Job 2 of 2 
**********************************************************************
 
Process 0 of 1 is on cl068.stfx.acenet.ca - thread support 1
initial socket setup ...start
initial socket setup ...done 
now start server 0 ... 

cmd = /usr/bin/ssh clhead /usr/local/qchem/bin/get_hostid 358506728 > /scratch/tmp/6064169.1.short.q/qchem27417/lic.dat
                  Welcome to Q-Chem
     A Quantum Leap Into The Future Of Chemistry

 Y. Shao, L. Fusti-Molnar, Y. Jung, J. Kussmann, C. Ochsenfeld,
 S. T. Brown, A. T. B. Gilbert, L. V. Slipchenko,S. V. Levchenko,
 D. P. O'Neill, R. A. DiStasio Jr., R. C. Lochan, T. Wang,
 G. J. O. Beran, N. A. Besley, J. M. Herbert, C. Y. Lin,
 T. Van Voorhis, S. H. Chien, A. Sodt, R. P. Steele, 
 V. A. Rassolov, P. E. Maslen, P. P. Korambath, R. D. Adamson,
 B. Austin, J. Baker, E. F. C. Byrd, H. Dachsel, R. J. Doerksen,
 A. Dreuw, B. D. Dunietz, A. D. Dutoi, T. R. Furlani,
 S. R. Gwaltney, A. Heyden, S. Hirata, C.-P. Hsu, G. Kedziora,
 R. Z. Khaliullin, P. Klunzinger, A. M. Lee, M. S. Lee, W. Liang,
 I. Lotan, N. Nair, B. Peters, E. I. Proynov, P. A. Pieniazek, 
 Y. M. Rhee, J. Ritchie, E. Rosta, C. D. Sherrill, 
 A. C. Simmonett, J. E. Subotnik, H. L. Woodcock III,
 W. Zhang, A. T. Bell, A. K. Chakraborty, D. M. Chipman,
 F. J. Keil, A. Warshel, W. J. Hehre, H. F. Schaefer III,
 J. Kong, A. I. Krylov, P. M. W. Gill, M. Head-Gordon,
 Q-Chem, Version 3.1, Q-Chem, Inc., Pittsburgh, PA (2007).

 Additional authors for Version 3.1: 
 Z. Gan, Y. Zhao, N. E. Schultz, D. Truhlar, E. Epifanovsky and M. Oana.

 Additional authors for Version 3.2: 
 R. Baer, B. R. Brooks, D. Casanova, J.-D. Chai, C.-L. Cheng, 
 C. Cramer, D. Crittenden, A. Ghysels, G. Hawkins, E. G. Hohenstein, 
 C. Kelley, W. Kurlancheek, D. Liotard, E. Livshits, P. Manohar, 
 A. Marenich, D. Neuhauser, R. Olson, M. A. Rohrdanz, K. S. Thanthiriwatte, 
 A. J. W. Thom, V. Vanovschi, C. F. Williams, Q. Wu and Z.-Q. You. 


 Intel X86 Linux Version

 Q-chem begins on Sun Jul  7 11:19:06 2013  

 Parallel job on  1  processors
Processing $rem in /usr/local/qchem/config/preferences.

theFileMan(): MAXOPENFILES=974 MAX_SUB_FILE_NUM=16
Maximum size of a physical file is 2.0 GB, maximum size of a tmp-file is 32.0 GB


--------------------------------------------------------------
User input:
--------------------------------------------------------------

$molecule 
READ 
$end 

$xc_functional
C PBE   1.00
X wPBE  1.00
$end


$rem
SYMMETRY_DECOMPOSITION	0
LRC_DFT                 true
exchange 		general
BASIS                   g3large
omega			420 
JOBTYPE                 freq
IDERIV 1
SCF_GUESS READ
mem_static              760
max_scf_cycles          200
scf_final_print         1
sym_ignore              true
$end

--------------------------------------------------------------
 Writing REM_CC_EA            4
 ----------------------------------------------------
       Standard Nuclear Orientation (Angstroms)
    I     Atom         X            Y            Z
 ----------------------------------------------------
    1      N       0.000000     0.000000     1.836180
    2      C       0.000000     0.000000     0.693910
    3      C       0.000000     0.000000    -0.693910
    4      N       0.000000     0.000000    -1.836180
 ----------------------------------------------------
 Nuclear Repulsion Energy =    77.2710182365 hartrees
 There are       13 alpha and       13 beta electrons
 Requested basis set is G3large
 There are 40 shells and 168 basis functions

Total QAlloc Memory Limit   2000 MB
Mega-Array Size       759 MB
MEM_STATIC part       760 MB

                       Distance Matrix (Angstroms)
             N (  1)   C (  2)   C (  3)
   C (  2)  1.142270
   C (  3)  2.530090  1.387820
   N (  4)  3.672360  2.530090  1.142270
 
 A cutoff of  1.0D-11 yielded    741 shell pairs
 There are  13388 function pairs ( 17541 Cartesian)
Evaluating contribution to one-electron hamiltonian from nuclear
 Smallest overlap matrix eigenvalue = 9.69E-06
 Multipole matrices computed through 2nd order
 Guess MOs from SCF MO coefficient file
Reading MOs from coefficient file
Reading MOs from coefficient file
 Long-range K will be added via erf
 Coulomb attenuation parameter = 0.42 bohr**(-1)
 A restricted Kohn-Sham SCF calculation will be
 performed using Pulay DIIS extrapolation
 Exchange:  wPBE + LR-HF      Correlation:  PBE
 Using SG-1 standard quadrature grid
 SCF converges when DIIS error is below 1.0E-08
 ---------------------------------------
  Cycle       Energy         DIIS Error
 ---------------------------------------
    1    -185.5477629885      1.58E-09
    2    -185.5477629886      5.98E-10 Convergence criterion met
 ---------------------------------------
 One-Electron    Energy =  -402.4098489741
 Total Coulomb   Energy =   163.9696648709
 Alpha Exchange  Energy =    -2.7213719581
 Beta  Exchange  Energy =    -2.7213719581
 DFT   Exchange  Energy =   -18.0928751278
 DFT Correlation Energy =    -0.8429780778
 Nuclear Repu.   Energy =    77.2710182365
 Nuclear Attr.   Energy =  -587.4047990419
 Kinetic         Energy =   184.9949500678
 SCF time:  CPU 13.37 s  wall 13.44 s
 Final Alpha MO Eigenvalues
            1           2           3           4           5           6
    1 -14.2835577 -14.2834989 -10.2294880 -10.2289874  -1.1405744  -1.1165019
            7           8           9          10          11          12
    1  -0.8931126  -0.5985586  -0.5985586  -0.5690607  -0.5564976  -0.5027852
           13          14          15          16          17          18
    1  -0.5027852  -0.0018814  -0.0018814   0.0489476   0.0760892   0.1005531
 Analysis of SCF Wavefunction
 
 --------------------------------------------------------------
                    Orbital Energies (a.u.)
 --------------------------------------------------------------
 
 Alpha MOs
 -- Occupied --
-14.284 -14.283 -10.229 -10.229  -1.141  -1.117  -0.893  -0.599
 -0.599  -0.569  -0.556  -0.503  -0.503
 -- Virtual --
 -0.002  -0.002   0.049   0.076   0.101   0.101   0.134   0.134
  0.150   0.168   0.223   0.223   0.233   0.255   0.255   0.263
  0.291   0.319   0.328   0.328   0.375   0.563   0.573   0.573
  0.597   0.597   0.680   0.680   0.718   0.758   0.806   0.806
  0.879   0.889   0.901   0.901   0.916   0.965   0.965   0.990
  0.990   1.013   1.198   1.198   1.243   1.383   1.383   1.412
  1.460   1.460   1.639   1.776   1.776   2.089   2.100   2.121
  2.121   2.138   2.418   2.695   2.695   2.699   2.699   2.710
  2.710   2.718   2.819   2.819   2.923   2.923   2.935   2.935
  3.153   3.154   3.174   3.174   3.243   3.243   3.255   3.285
  3.470   3.470   3.525   3.525   3.708   3.708   3.747   3.747
  3.889   3.889   3.977   4.036   4.036   4.174   4.274   4.274
  4.456   4.615   4.615   4.695   4.748   4.748   4.836   4.836
  4.899   4.899   5.096   5.166   5.166   5.315   5.315   5.790
  5.979   5.979   6.553   6.959   6.959   6.978   8.252  24.388
 24.775  27.278  27.278  27.473  27.473  28.658  30.132  36.056
 36.914  37.409  37.409  37.777  37.777  38.239  38.373  40.399
 40.409  40.509  40.511  40.520  40.591  40.591  40.765  40.778
 40.782  40.782  41.014  41.029  41.042  41.210  41.210  41.287
 41.287  41.610  41.654
 --------------------------------------------------------------
 
          Ground-State Mulliken Net Atomic Charges

     Atom                 Charge (a.u.)
  ----------------------------------------
      1 N                    -0.283031
      2 C                     0.283031
      3 C                     0.283031
      4 N                    -0.283031
  ----------------------------------------
  Sum of atomic charges =     0.000000

 -----------------------------------------------------------------
                    Cartesian Multipole Moments
 -----------------------------------------------------------------
    Charge (ESU x 10^10)
                 0.0000
    Dipole Moment (Debye)
         X       0.0000      Y       0.0000      Z       0.0000
       Tot       0.0000
    Quadrupole Moments (Debye-Ang)
        XX     -20.8389     XY       0.0000     YY     -20.8389
        XZ       0.0000     YZ       0.0000     ZZ     -30.3035
    Octapole Moments (Debye-Ang^2)
       XXX       0.0000    XXY       0.0000    XYY       0.0000
       YYY       0.0000    XXZ       0.0000    XYZ       0.0000
       YYZ       0.0000    XZZ       0.0000    YZZ       0.0000
       ZZZ       0.0000
    Hexadecapole Moments (Debye-Ang^3)
      XXXX     -20.1790   XXXY       0.0000   XXYY      -6.7263
      XYYY       0.0000   YYYY     -20.1790   XXXZ       0.0000
      XXYZ       0.0000   XYYZ       0.0000   YYYZ       0.0000
      XXZZ     -50.3413   XYZZ       0.0000   YYZZ     -50.3413
      XZZZ       0.0000   YZZZ       0.0000   ZZZZ    -331.7772
 -----------------------------------------------------------------
 Calculating analytic gradient of the SCF energy
 Gradient of AOints
            1           2           3           4
    1  -0.0000000  -0.0000000   0.0000000   0.0000000
    2   0.0000000  -0.0000000  -0.0000000  -0.0000000
    3 -15.6911161   1.7614410  -1.7614410  15.6911161
 Gradient of XC Energy
            1           2           3           4
    1   0.0000000  -0.0000000   0.0000000  -0.0000000
    2  -0.0000000   0.0000000  -0.0000000   0.0000000
    3   0.4701225  -0.1713442   0.1713442  -0.4701225
 Gradient of SCF Energy
            1           2           3           4
    1   0.0000000  -0.0000000   0.0000000  -0.0000000
    2  -0.0000000   0.0000000  -0.0000000   0.0000000
    3   0.0001683   0.0002032  -0.0002032  -0.0001683
 Max gradient component =       2.032E-04
 RMS gradient           =       1.077E-04
 Gradient time:  CPU 36.21 s  wall 36.29 s
 ######################################################
 ######################################################
 # Starting finite difference calculation for IDERIV  #
 Finite diff step size: 1.89e-03 a.u.
 Writing REM_CC_EA            4
 ----------------------------------------------------
       Standard Nuclear Orientation (Angstroms)
    I     Atom         X            Y            Z
 ----------------------------------------------------
    1      N       0.001000     0.000000     1.836180
    2      C       0.000000     0.000000     0.693910
    3      C       0.000000     0.000000    -0.693910
    4      N       0.000000     0.000000    -1.836180
 ----------------------------------------------------
 Nuclear Repulsion Energy =    77.2710098324 hartrees
 There are       13 alpha and       13 beta electrons

                       Distance Matrix (Angstroms)
             N (  1)   C (  2)   C (  3)
   C (  2)  1.142270
   C (  3)  2.530090  1.387820
   N (  4)  3.672360  2.530090  1.142270
 
 Requested basis set is G3large
 There are 40 shells and 168 basis functions
 A cutoff of  1.0D-11 yielded    741 shell pairs
 There are  13388 function pairs ( 17541 Cartesian)
Evaluating contribution to one-electron hamiltonian from nuclear
 Smallest overlap matrix eigenvalue = 9.69E-06
 Multipole matrices computed through 2nd order
 Guess MOs from SCF MO coefficient file
Reading MOs from coefficient file
Reading MOs from coefficient file
 Long-range K will be added via erf
 Coulomb attenuation parameter = 0.42 bohr**(-1)
 A restricted Kohn-Sham SCF calculation will be
 performed using Pulay DIIS extrapolation
 Exchange:  wPBE + LR-HF      Correlation:  PBE
 Using SG-1 standard quadrature grid
 SCF converges when DIIS error is below 1.0E-08
 ---------------------------------------
  Cycle       Energy         DIIS Error
 ---------------------------------------
    1    -185.5477624631      3.31E-05
    2    -185.5477629109      2.63E-06
    3    -185.5477629657      1.00E-06
    4    -185.5477629697      3.03E-07
    5    -185.5477629721      7.55E-08
    6    -185.5477629716      4.34E-08
    7    -185.5477629718      2.17E-08
    8    -185.5477629719      2.76E-09 Convergence criterion met
 ---------------------------------------
 One-Electron    Energy =  -402.4098324989
 Total Coulomb   Energy =   163.9696562753
 Alpha Exchange  Energy =    -2.7213719137
 Beta  Exchange  Energy =    -2.7213719137
 DFT   Exchange  Energy =   -18.0928746924
 DFT Correlation Energy =    -0.8429780609
 Nuclear Repu.   Energy =    77.2710098324
 Nuclear Attr.   Energy =  -587.4047801643
 Kinetic         Energy =   184.9949476654
 SCF time:  CPU 46.41 s  wall 46.77 s
 Final Alpha MO Eigenvalues
            1           2           3           4           5           6
    1 -14.2835578 -14.2834990 -10.2294880 -10.2289874  -1.1405743  -1.1165018
            7           8           9          10          11          12
    1  -0.8931126  -0.5985586  -0.5985586  -0.5690608  -0.5564976  -0.5027851
           13          14          15          16          17          18
    1  -0.5027851  -0.0018815  -0.0018814   0.0489476   0.0760892   0.1005531
 Analysis of SCF Wavefunction
 
 --------------------------------------------------------------
                    Orbital Energies (a.u.)
 --------------------------------------------------------------
 
 Alpha MOs
 -- Occupied --
-14.284 -14.283 -10.229 -10.229  -1.141  -1.117  -0.893  -0.599
 -0.599  -0.569  -0.556  -0.503  -0.503
 -- Virtual --
 -0.002  -0.002   0.049   0.076   0.101   0.101   0.134   0.134
  0.150   0.168   0.223   0.223   0.233   0.255   0.255   0.263
  0.291   0.319   0.328   0.328   0.375   0.563   0.573   0.573
  0.597   0.597   0.680   0.680   0.718   0.758   0.806   0.806
  0.879   0.889   0.901   0.901   0.916   0.965   0.965   0.990
  0.990   1.013   1.198   1.198   1.243   1.383   1.383   1.412
  1.460   1.460   1.639   1.776   1.776   2.089   2.100   2.121
  2.121   2.138   2.418   2.695   2.695   2.699   2.699   2.710
  2.710   2.718   2.819   2.819   2.923   2.923   2.935   2.935
  3.153   3.154   3.174   3.174   3.243   3.243   3.255   3.285
  3.470   3.470   3.525   3.525   3.708   3.708   3.747   3.747
  3.889   3.889   3.977   4.036   4.036   4.174   4.274   4.274
  4.456   4.615   4.615   4.695   4.748   4.748   4.836   4.836
  4.899   4.899   5.096   5.166   5.166   5.315   5.315   5.790
  5.979   5.979   6.553   6.959   6.959   6.978   8.252  24.388
 24.775  27.278  27.278  27.473  27.473  28.658  30.132  36.056
 36.914  37.409  37.410  37.777  37.777  38.239  38.373  40.399
 40.409  40.509  40.511  40.520  40.591  40.591  40.765  40.778
 40.782  40.782  41.014  41.029  41.042  41.210  41.210  41.287
 41.287  41.610  41.654
 --------------------------------------------------------------
 
          Ground-State Mulliken Net Atomic Charges

     Atom                 Charge (a.u.)
  ----------------------------------------
      1 N                    -0.283030
      2 C                     0.283031
      3 C                     0.283031
      4 N                    -0.283031
  ----------------------------------------
  Sum of atomic charges =     0.000000

 -----------------------------------------------------------------
                    Cartesian Multipole Moments
 -----------------------------------------------------------------
    Charge (ESU x 10^10)
                 0.0000
    Dipole Moment (Debye)
         X      -0.0013      Y       0.0000      Z       0.0000
       Tot       0.0013
    Quadrupole Moments (Debye-Ang)
        XX     -20.8389     XY       0.0000     YY     -20.8389
        XZ      -0.0025     YZ       0.0000     ZZ     -30.3035
    Octapole Moments (Debye-Ang^2)
       XXX      -0.0167    XXY       0.0000    XYY      -0.0056
       YYY       0.0000    XXZ       0.0000    XYZ       0.0000
       YYZ       0.0000    XZZ      -0.0112    YZZ       0.0000
       ZZZ       0.0000
    Hexadecapole Moments (Debye-Ang^3)
      XXXX     -20.1791   XXXY       0.0000   XXYY      -6.7263
      XYYY       0.0000   YYYY     -20.1790   XXXZ      -0.0307
      XXYZ       0.0000   XYYZ      -0.0102   YYYZ       0.0000
      XXZZ     -50.3413   XYZZ       0.0000   YYZZ     -50.3413
      XZZZ      -0.0443   YZZZ       0.0000   ZZZZ    -331.7772
 -----------------------------------------------------------------
 Calculating analytic gradient of the SCF energy
 Gradient of AOints
            1           2           3           4
    1  -0.0143928   0.0186084  -0.0064067   0.0021911
    2   0.0000000   0.0000000  -0.0000000   0.0000000
    3 -15.6911211   1.7614606  -1.7614577  15.6911182
 Gradient of XC Energy
            1           2           3           4
    1   0.0004701  -0.0005755   0.0001572  -0.0000518
    2  -0.0000000   0.0000000   0.0000000  -0.0000000
    3   0.4701227  -0.1713449   0.1713448  -0.4701225
 Gradient of SCF Energy
            1           2           3           4
    1   0.0000341  -0.0000647   0.0000333  -0.0000027
    2  -0.0000000   0.0000000  -0.0000000   0.0000000
    3   0.0001694   0.0002022  -0.0002032  -0.0001683
 Max gradient component =       2.032E-04
 RMS gradient           =       1.102E-04
 Gradient time:  CPU 36.25 s  wall 36.37 s
 Writing REM_CC_EA            4
 ----------------------------------------------------
       Standard Nuclear Orientation (Angstroms)
    I     Atom         X            Y            Z
 ----------------------------------------------------
    1      N      -0.001000     0.000000     1.836180
    2      C       0.000000     0.000000     0.693910
    3      C       0.000000     0.000000    -0.693910
    4      N       0.000000     0.000000    -1.836180
 ----------------------------------------------------
 Nuclear Repulsion Energy =    77.2710098324 hartrees
 There are       13 alpha and       13 beta electrons

                       Distance Matrix (Angstroms)
             N (  1)   C (  2)   C (  3)
   C (  2)  1.142270
   C (  3)  2.530090  1.387820
   N (  4)  3.672360  2.530090  1.142270
 
 Requested basis set is G3large
 There are 40 shells and 168 basis functions
 A cutoff of  1.0D-11 yielded    741 shell pairs
 There are  13388 function pairs ( 17541 Cartesian)
Evaluating contribution to one-electron hamiltonian from nuclear
 Smallest overlap matrix eigenvalue = 9.69E-06
 Multipole matrices computed through 2nd order
 Guess MOs from SCF MO coefficient file
Reading MOs from coefficient file
Reading MOs from coefficient file
 Long-range K will be added via erf
 Coulomb attenuation parameter = 0.42 bohr**(-1)
 A restricted Kohn-Sham SCF calculation will be
 performed using Pulay DIIS extrapolation
 Exchange:  wPBE + LR-HF      Correlation:  PBE
 Using SG-1 standard quadrature grid
 SCF converges when DIIS error is below 1.0E-08
 ---------------------------------------
  Cycle       Energy         DIIS Error
 ---------------------------------------
    1    -185.5477603690      6.62E-05
    2    -185.5477627301      5.27E-06
    3    -185.5477629332      2.00E-06
    4    -185.5477629486      6.08E-07
    5    -185.5477629565      1.68E-07
    6    -185.5477629561      1.20E-07
    7    -185.5477629562      3.46E-08
    8    -185.5477629558      5.79E-09 Convergence criterion met
 ---------------------------------------
 One-Electron    Energy =  -402.4098324400
 Total Coulomb   Energy =   163.9696561702
 Alpha Exchange  Energy =    -2.7213719111
 Beta  Exchange  Energy =    -2.7213719111
 DFT   Exchange  Energy =   -18.0928746365
 DFT Correlation Energy =    -0.8429780598
 Nuclear Repu.   Energy =    77.2710098324
 Nuclear Attr.   Energy =  -587.4047798060
 Kinetic         Energy =   184.9949473660
 SCF time:  CPU 47.26 s  wall 47.61 s
 Final Alpha MO Eigenvalues
            1           2           3           4           5           6
    1 -14.2835579 -14.2834991 -10.2294879 -10.2289873  -1.1405743  -1.1165018
            7           8           9          10          11          12
    1  -0.8931125  -0.5985586  -0.5985586  -0.5690608  -0.5564977  -0.5027851
           13          14          15          16          17          18
    1  -0.5027851  -0.0018815  -0.0018814   0.0489476   0.0760892   0.1005531
 Analysis of SCF Wavefunction
 
 --------------------------------------------------------------
                    Orbital Energies (a.u.)
 --------------------------------------------------------------
 
 Alpha MOs
 -- Occupied --
-14.284 -14.283 -10.229 -10.229  -1.141  -1.117  -0.893  -0.599
 -0.599  -0.569  -0.556  -0.503  -0.503
 -- Virtual --
 -0.002  -0.002   0.049   0.076   0.101   0.101   0.134   0.134
  0.150   0.168   0.223   0.223   0.233   0.255   0.255   0.263
  0.291   0.319   0.328   0.328   0.375   0.563   0.573   0.573
  0.597   0.597   0.680   0.680   0.718   0.758   0.806   0.806
  0.879   0.889   0.901   0.901   0.916   0.965   0.965   0.990
  0.990   1.013   1.198   1.198   1.243   1.383   1.383   1.412
  1.460   1.460   1.639   1.776   1.776   2.089   2.100   2.121
  2.121   2.138   2.418   2.695   2.695   2.699   2.699   2.710
  2.710   2.718   2.819   2.819   2.923   2.923   2.935   2.935
  3.153   3.154   3.174   3.174   3.243   3.243   3.255   3.285
  3.470   3.470   3.525   3.525   3.708   3.708   3.747   3.747
  3.889   3.889   3.977   4.036   4.036   4.174   4.274   4.274
  4.456   4.615   4.615   4.695   4.748   4.748   4.836   4.836
  4.899   4.899   5.096   5.166   5.166   5.315   5.315   5.790
  5.979   5.979   6.553   6.959   6.959   6.978   8.252  24.388
 24.775  27.278  27.278  27.473  27.473  28.658  30.132  36.056
 36.914  37.409  37.409  37.777  37.777  38.239  38.373  40.399
 40.409  40.509  40.511  40.520  40.591  40.591  40.765  40.778
 40.782  40.782  41.014  41.029  41.042  41.210  41.210  41.287
 41.287  41.610  41.654
 --------------------------------------------------------------
 
          Ground-State Mulliken Net Atomic Charges

     Atom                 Charge (a.u.)
  ----------------------------------------
      1 N                    -0.283031
      2 C                     0.283031
      3 C                     0.283031
      4 N                    -0.283032
  ----------------------------------------
  Sum of atomic charges =     0.000000

 -----------------------------------------------------------------
                    Cartesian Multipole Moments
 -----------------------------------------------------------------
    Charge (ESU x 10^10)
                 0.0000
    Dipole Moment (Debye)
         X       0.0013      Y       0.0000      Z       0.0000
       Tot       0.0013
    Quadrupole Moments (Debye-Ang)
        XX     -20.8389     XY       0.0000     YY     -20.8389
        XZ       0.0025     YZ       0.0000     ZZ     -30.3035
    Octapole Moments (Debye-Ang^2)
       XXX       0.0167    XXY       0.0000    XYY       0.0056
       YYY       0.0000    XXZ       0.0000    XYZ       0.0000
       YYZ       0.0000    XZZ       0.0112    YZZ       0.0000
       ZZZ       0.0000
    Hexadecapole Moments (Debye-Ang^3)
      XXXX     -20.1791   XXXY       0.0000   XXYY      -6.7263
      XYYY       0.0000   YYYY     -20.1790   XXXZ       0.0307
      XXYZ       0.0000   XYYZ       0.0102   YYYZ       0.0000
      XXZZ     -50.3413   XYZZ       0.0000   YYZZ     -50.3413
      XZZZ       0.0443   YZZZ       0.0000   ZZZZ    -331.7772
 -----------------------------------------------------------------
 Calculating analytic gradient of the SCF energy
 Gradient of AOints
            1           2           3           4
    1   0.0143926  -0.0186077   0.0064061  -0.0021910
    2  -0.0000000   0.0000000  -0.0000000  -0.0000000
    3 -15.6911214   1.7614609  -1.7614577  15.6911182
 Gradient of XC Energy
            1           2           3           4
    1  -0.0004701   0.0005755  -0.0001572   0.0000518
    2   0.0000000  -0.0000000   0.0000000  -0.0000000
    3   0.4701227  -0.1713449   0.1713448  -0.4701225
 Gradient of SCF Energy
            1           2           3           4
    1  -0.0000341   0.0000647  -0.0000333   0.0000027
    2  -0.0000000   0.0000000  -0.0000000   0.0000000
    3   0.0001694   0.0002022  -0.0002032  -0.0001683
 Max gradient component =       2.032E-04
 RMS gradient           =       1.102E-04
 Gradient time:  CPU 36.30 s  wall 36.37 s
 Writing REM_CC_EA            4
 ----------------------------------------------------
       Standard Nuclear Orientation (Angstroms)
    I     Atom         X            Y            Z
 ----------------------------------------------------
    1      N       0.000000     0.001000     1.836180
    2      C       0.000000     0.000000     0.693910
    3      C       0.000000     0.000000    -0.693910
    4      N       0.000000     0.000000    -1.836180
 ----------------------------------------------------
 Nuclear Repulsion Energy =    77.2710098324 hartrees
 There are       13 alpha and       13 beta electrons

                       Distance Matrix (Angstroms)
             N (  1)   C (  2)   C (  3)
   C (  2)  1.142270
   C (  3)  2.530090  1.387820
   N (  4)  3.672360  2.530090  1.142270
 
 Requested basis set is G3large
 There are 40 shells and 168 basis functions
 A cutoff of  1.0D-11 yielded    741 shell pairs
 There are  13388 function pairs ( 17541 Cartesian)
Evaluating contribution to one-electron hamiltonian from nuclear
 Smallest overlap matrix eigenvalue = 9.69E-06
 Multipole matrices computed through 2nd order
 Guess MOs from SCF MO coefficient file
Reading MOs from coefficient file
Reading MOs from coefficient file
 Long-range K will be added via erf
 Coulomb attenuation parameter = 0.42 bohr**(-1)
 A restricted Kohn-Sham SCF calculation will be
 performed using Pulay DIIS extrapolation
 Exchange:  wPBE + LR-HF      Correlation:  PBE
 Using SG-1 standard quadrature grid
 SCF converges when DIIS error is below 1.0E-08
 ---------------------------------------
  Cycle       Energy         DIIS Error
 ---------------------------------------
    1    -185.5477616626      4.68E-05
    2    -185.5477628425      3.73E-06
    3    -185.5477629450      1.42E-06
    4    -185.5477629527      4.29E-07
    5    -185.5477629565      1.12E-07
    6    -185.5477629566      7.66E-08
    7    -185.5477629563      2.84E-08
    8    -185.5477629564      5.26E-09 Convergence criterion met
 ---------------------------------------
 One-Electron    Energy =  -402.4098324584
 Total Coulomb   Energy =   163.9696562007
 Alpha Exchange  Energy =    -2.7213719117
 Beta  Exchange  Energy =    -2.7213719117
 DFT   Exchange  Energy =   -18.0928746478
 DFT Correlation Energy =    -0.8429780598
 Nuclear Repu.   Energy =    77.2710098324
 Nuclear Attr.   Energy =  -587.4047799042
 Kinetic         Energy =   184.9949474458
 SCF time:  CPU 46.87 s  wall 47.20 s
 Final Alpha MO Eigenvalues
            1           2           3           4           5           6
    1 -14.2835578 -14.2834990 -10.2294880 -10.2289874  -1.1405743  -1.1165018
            7           8           9          10          11          12
    1  -0.8931126  -0.5985586  -0.5985586  -0.5690608  -0.5564976  -0.5027851
           13          14          15          16          17          18
    1  -0.5027851  -0.0018815  -0.0018814   0.0489476   0.0760892   0.1005531
 Analysis of SCF Wavefunction
 
 --------------------------------------------------------------
                    Orbital Energies (a.u.)
 --------------------------------------------------------------
 
 Alpha MOs
 -- Occupied --
-14.284 -14.283 -10.229 -10.229  -1.141  -1.117  -0.893  -0.599
 -0.599  -0.569  -0.556  -0.503  -0.503
 -- Virtual --
 -0.002  -0.002   0.049   0.076   0.101   0.101   0.134   0.134
  0.150   0.168   0.223   0.223   0.233   0.255   0.255   0.263
  0.291   0.319   0.328   0.328   0.375   0.563   0.573   0.573
  0.597   0.597   0.680   0.680   0.718   0.758   0.806   0.806
  0.879   0.889   0.901   0.901   0.916   0.965   0.965   0.990
  0.990   1.013   1.198   1.198   1.243   1.383   1.383   1.412
  1.460   1.460   1.639   1.776   1.776   2.089   2.100   2.121
  2.121   2.138   2.418   2.695   2.695   2.699   2.699   2.710
  2.710   2.718   2.819   2.819   2.923   2.923   2.935   2.935
  3.153   3.154   3.174   3.174   3.243   3.243   3.255   3.285
  3.470   3.470   3.525   3.525   3.708   3.708   3.747   3.747
  3.889   3.889   3.977   4.036   4.036   4.174   4.274   4.274
  4.456   4.615   4.615   4.695   4.748   4.748   4.836   4.836
  4.899   4.899   5.096   5.166   5.166   5.315   5.315   5.790
  5.979   5.979   6.553   6.959   6.959   6.978   8.252  24.388
 24.775  27.278  27.278  27.473  27.473  28.658  30.132  36.056
 36.914  37.409  37.410  37.777  37.777  38.239  38.373  40.399
 40.409  40.509  40.511  40.520  40.591  40.591  40.765  40.778
 40.782  40.782  41.014  41.029  41.042  41.210  41.210  41.287
 41.287  41.610  41.654
 --------------------------------------------------------------
 
          Ground-State Mulliken Net Atomic Charges

     Atom                 Charge (a.u.)
  ----------------------------------------
      1 N                    -0.283031
      2 C                     0.283031
      3 C                     0.283031
      4 N                    -0.283031
  ----------------------------------------
  Sum of atomic charges =     0.000000

 -----------------------------------------------------------------
                    Cartesian Multipole Moments
 -----------------------------------------------------------------
    Charge (ESU x 10^10)
                 0.0000
    Dipole Moment (Debye)
         X       0.0000      Y      -0.0013      Z       0.0000
       Tot       0.0013
    Quadrupole Moments (Debye-Ang)
        XX     -20.8389     XY       0.0000     YY     -20.8389
        XZ       0.0000     YZ      -0.0025     ZZ     -30.3035
    Octapole Moments (Debye-Ang^2)
       XXX       0.0000    XXY      -0.0056    XYY       0.0000
       YYY      -0.0167    XXZ       0.0000    XYZ       0.0000
       YYZ       0.0000    XZZ       0.0000    YZZ      -0.0112
       ZZZ       0.0000
    Hexadecapole Moments (Debye-Ang^3)
      XXXX     -20.1790   XXXY       0.0000   XXYY      -6.7263
      XYYY       0.0000   YYYY     -20.1791   XXXZ       0.0000
      XXYZ      -0.0102   XYYZ       0.0000   YYYZ      -0.0307
      XXZZ     -50.3413   XYZZ       0.0000   YYZZ     -50.3413
      XZZZ       0.0000   YZZZ      -0.0443   ZZZZ    -331.7772
 -----------------------------------------------------------------
 Calculating analytic gradient of the SCF energy
 Gradient of AOints
            1           2           3           4
    1   0.0000002  -0.0000007   0.0000006  -0.0000002
    2  -0.0143928   0.0186082  -0.0064065   0.0021911
    3 -15.6911213   1.7614607  -1.7614575  15.6911180
 Gradient of XC Energy
            1           2           3           4
    1  -0.0000000   0.0000000  -0.0000000   0.0000000
    2   0.0004701  -0.0005755   0.0001572  -0.0000518
    3   0.4701227  -0.1713449   0.1713448  -0.4701225
 Gradient of SCF Energy
            1           2           3           4
    1   0.0000000   0.0000000  -0.0000000   0.0000000
    2   0.0000341  -0.0000647   0.0000333  -0.0000027
    3   0.0001694   0.0002022  -0.0002032  -0.0001683
 Max gradient component =       2.032E-04
 RMS gradient           =       1.102E-04
 Gradient time:  CPU 36.31 s  wall 36.46 s
 Writing REM_CC_EA            4
 ----------------------------------------------------
       Standard Nuclear Orientation (Angstroms)
    I     Atom         X            Y            Z
 ----------------------------------------------------
    1      N       0.000000    -0.001000     1.836180
    2      C       0.000000     0.000000     0.693910
    3      C       0.000000     0.000000    -0.693910
    4      N       0.000000     0.000000    -1.836180
 ----------------------------------------------------
 Nuclear Repulsion Energy =    77.2710098324 hartrees
 There are       13 alpha and       13 beta electrons

                       Distance Matrix (Angstroms)
             N (  1)   C (  2)   C (  3)
   C (  2)  1.142270
   C (  3)  2.530090  1.387820
   N (  4)  3.672360  2.530090  1.142270
 
 Requested basis set is G3large
 There are 40 shells and 168 basis functions
 A cutoff of  1.0D-11 yielded    741 shell pairs
 There are  13388 function pairs ( 17541 Cartesian)
Evaluating contribution to one-electron hamiltonian from nuclear
 Smallest overlap matrix eigenvalue = 9.69E-06
 Multipole matrices computed through 2nd order
 Guess MOs from SCF MO coefficient file
Reading MOs from coefficient file
Reading MOs from coefficient file
 Long-range K will be added via erf
 Coulomb attenuation parameter = 0.42 bohr**(-1)
 A restricted Kohn-Sham SCF calculation will be
 performed using Pulay DIIS extrapolation
 Exchange:  wPBE + LR-HF      Correlation:  PBE
 Using SG-1 standard quadrature grid
 SCF converges when DIIS error is below 1.0E-08
 ---------------------------------------
  Cycle       Energy         DIIS Error
 ---------------------------------------
    1    -185.5477603690      6.62E-05
    2    -185.5477627300      5.27E-06
    3    -185.5477629332      2.00E-06
    4    -185.5477629486      6.07E-07
    5    -185.5477629565      1.65E-07
    6    -185.5477629560      1.16E-07
    7    -185.5477629558      3.57E-08
    8    -185.5477629556      6.15E-09 Convergence criterion met
 ---------------------------------------
 One-Electron    Energy =  -402.4098324205
 Total Coulomb   Energy =   163.9696561415
 Alpha Exchange  Energy =    -2.7213719106
 Beta  Exchange  Energy =    -2.7213719106
 DFT   Exchange  Energy =   -18.0928746281
 DFT Correlation Energy =    -0.8429780598
 Nuclear Repu.   Energy =    77.2710098324
 Nuclear Attr.   Energy =  -587.4047797255
 Kinetic         Energy =   184.9949473051
 SCF time:  CPU 47.43 s  wall 47.70 s
 Final Alpha MO Eigenvalues
            1           2           3           4           5           6
    1 -14.2835579 -14.2834991 -10.2294879 -10.2289873  -1.1405743  -1.1165018
            7           8           9          10          11          12
    1  -0.8931125  -0.5985586  -0.5985586  -0.5690608  -0.5564977  -0.5027851
           13          14          15          16          17          18
    1  -0.5027851  -0.0018815  -0.0018814   0.0489476   0.0760892   0.1005531
 Analysis of SCF Wavefunction
 
 --------------------------------------------------------------
                    Orbital Energies (a.u.)
 --------------------------------------------------------------
 
 Alpha MOs
 -- Occupied --
-14.284 -14.283 -10.229 -10.229  -1.141  -1.117  -0.893  -0.599
 -0.599  -0.569  -0.556  -0.503  -0.503
 -- Virtual --
 -0.002  -0.002   0.049   0.076   0.101   0.101   0.134   0.134
  0.150   0.168   0.223   0.223   0.233   0.255   0.255   0.263
  0.291   0.319   0.328   0.328   0.375   0.563   0.573   0.573
  0.597   0.597   0.680   0.680   0.718   0.758   0.806   0.806
  0.879   0.889   0.901   0.901   0.916   0.965   0.965   0.990
  0.990   1.013   1.198   1.198   1.243   1.383   1.383   1.412
  1.460   1.460   1.639   1.776   1.776   2.089   2.100   2.121
  2.121   2.138   2.418   2.695   2.695   2.699   2.699   2.710
  2.710   2.718   2.819   2.819   2.923   2.923   2.935   2.935
  3.153   3.154   3.174   3.174   3.243   3.243   3.255   3.285
  3.470   3.470   3.525   3.525   3.708   3.708   3.747   3.747
  3.889   3.889   3.977   4.036   4.036   4.174   4.274   4.274
  4.456   4.615   4.615   4.695   4.748   4.748   4.836   4.836
  4.899   4.899   5.096   5.166   5.166   5.315   5.315   5.790
  5.979   5.979   6.553   6.959   6.959   6.978   8.252  24.388
 24.775  27.278  27.278  27.473  27.473  28.658  30.132  36.056
 36.914  37.409  37.409  37.777  37.777  38.239  38.373  40.399
 40.409  40.509  40.511  40.520  40.591  40.591  40.765  40.778
 40.782  40.782  41.014  41.029  41.042  41.210  41.210  41.287
 41.287  41.610  41.654
 --------------------------------------------------------------
 
          Ground-State Mulliken Net Atomic Charges

     Atom                 Charge (a.u.)
  ----------------------------------------
      1 N                    -0.283031
      2 C                     0.283031
      3 C                     0.283031
      4 N                    -0.283032
  ----------------------------------------
  Sum of atomic charges =     0.000000

 -----------------------------------------------------------------
                    Cartesian Multipole Moments
 -----------------------------------------------------------------
    Charge (ESU x 10^10)
                 0.0000
    Dipole Moment (Debye)
         X       0.0000      Y       0.0013      Z       0.0000
       Tot       0.0013
    Quadrupole Moments (Debye-Ang)
        XX     -20.8389     XY       0.0000     YY     -20.8389
        XZ       0.0000     YZ       0.0025     ZZ     -30.3035
    Octapole Moments (Debye-Ang^2)
       XXX       0.0000    XXY       0.0056    XYY       0.0000
       YYY       0.0167    XXZ       0.0000    XYZ       0.0000
       YYZ       0.0000    XZZ       0.0000    YZZ       0.0112
       ZZZ       0.0000
    Hexadecapole Moments (Debye-Ang^3)
      XXXX     -20.1790   XXXY       0.0000   XXYY      -6.7263
      XYYY       0.0000   YYYY     -20.1791   XXXZ       0.0000
      XXYZ       0.0102   XYYZ       0.0000   YYYZ       0.0307
      XXZZ     -50.3413   XYZZ       0.0000   YYZZ     -50.3413
      XZZZ       0.0000   YZZZ       0.0443   ZZZZ    -331.7772
 -----------------------------------------------------------------
 Calculating analytic gradient of the SCF energy
 Gradient of AOints
            1           2           3           4
    1   0.0000000  -0.0000000   0.0000000  -0.0000000
    2   0.0143926  -0.0186074   0.0064056  -0.0021908
    3 -15.6911214   1.7614609  -1.7614577  15.6911182
 Gradient of XC Energy
            1           2           3           4
    1  -0.0000000   0.0000000  -0.0000000   0.0000000
    2  -0.0004701   0.0005755  -0.0001572   0.0000518
    3   0.4701227  -0.1713449   0.1713448  -0.4701225
 Gradient of SCF Energy
            1           2           3           4
    1  -0.0000000   0.0000000   0.0000000  -0.0000000
    2  -0.0000341   0.0000647  -0.0000333   0.0000027
    3   0.0001694   0.0002022  -0.0002032  -0.0001683
 Max gradient component =       2.032E-04
 RMS gradient           =       1.102E-04
 Gradient time:  CPU 36.28 s  wall 36.41 s
 Writing REM_CC_EA            4
 ----------------------------------------------------
       Standard Nuclear Orientation (Angstroms)
    I     Atom         X            Y            Z
 ----------------------------------------------------
    1      N       0.000000     0.000000     1.837180
    2      C       0.000000     0.000000     0.693910
    3      C       0.000000     0.000000    -0.693910
    4      N       0.000000     0.000000    -1.836180
 ----------------------------------------------------
 Nuclear Repulsion Energy =    77.2486065096 hartrees
 There are       13 alpha and       13 beta electrons

                       Distance Matrix (Angstroms)
             N (  1)   C (  2)   C (  3)
   C (  2)  1.143270
   C (  3)  2.531090  1.387820
   N (  4)  3.673360  2.530090  1.142270
 
 Requested basis set is G3large
 There are 40 shells and 168 basis functions
 A cutoff of  1.0D-11 yielded    741 shell pairs
 There are  13388 function pairs ( 17541 Cartesian)
Evaluating contribution to one-electron hamiltonian from nuclear
 Smallest overlap matrix eigenvalue = 9.70E-06
 Multipole matrices computed through 2nd order
 Guess MOs from SCF MO coefficient file
Reading MOs from coefficient file
Reading MOs from coefficient file
 Long-range K will be added via erf
 Coulomb attenuation parameter = 0.42 bohr**(-1)
 A restricted Kohn-Sham SCF calculation will be
 performed using Pulay DIIS extrapolation
 Exchange:  wPBE + LR-HF      Correlation:  PBE
 Using SG-1 standard quadrature grid
 SCF converges when DIIS error is below 1.0E-08
 ---------------------------------------
  Cycle       Energy         DIIS Error
 ---------------------------------------
    1    -185.5482396532      6.33E-05
    2    -185.5477599731      9.01E-06
    3    -185.5477599526      1.04E-05
    4    -185.5477602449      1.95E-06
    5    -185.5477602841      4.03E-07
    6    -185.5477602519      1.44E-07
    7    -185.5477602523      4.45E-08
    8    -185.5477602478      2.84E-08
    9    -185.5477602479      7.88E-09 Convergence criterion met
 ---------------------------------------
 One-Electron    Energy =  -402.3657391644
 Total Coulomb   Energy =   163.9467690121
 Alpha Exchange  Energy =    -2.7212748757
 Beta  Exchange  Energy =    -2.7212748757
 DFT   Exchange  Energy =   -18.0919125049
 DFT Correlation Energy =    -0.8429343489
 Nuclear Repu.   Energy =    77.2486065096
 Nuclear Attr.   Energy =  -587.3554223371
 Kinetic         Energy =   184.9896831728
 SCF time:  CPU 53.04 s  wall 53.42 s
 Final Alpha MO Eigenvalues
            1           2           3           4           5           6
    1 -14.2838257 -14.2835443 -10.2296684 -10.2291038  -1.1404324  -1.1163339
            7           8           9          10          11          12
    1  -0.8931533  -0.5984462  -0.5984462  -0.5691292  -0.5565331  -0.5026507
           13          14          15          16          17          18
    1  -0.5026507  -0.0020752  -0.0020752   0.0489472   0.0760816   0.1005663
 Analysis of SCF Wavefunction
 
 --------------------------------------------------------------
                    Orbital Energies (a.u.)
 --------------------------------------------------------------
 
 Alpha MOs
 -- Occupied --
-14.284 -14.284 -10.230 -10.229  -1.140  -1.116  -0.893  -0.598
 -0.598  -0.569  -0.557  -0.503  -0.503
 -- Virtual --
 -0.002  -0.002   0.049   0.076   0.101   0.101   0.134   0.134
  0.150   0.168   0.222   0.222   0.233   0.255   0.255   0.263
  0.291   0.319   0.328   0.328   0.375   0.563   0.573   0.573
  0.597   0.597   0.680   0.680   0.717   0.759   0.806   0.806
  0.878   0.889   0.901   0.901   0.916   0.965   0.965   0.989
  0.989   1.013   1.198   1.198   1.242   1.383   1.383   1.411
  1.460   1.460   1.639   1.776   1.776   2.089   2.099   2.121
  2.121   2.139   2.418   2.695   2.695   2.699   2.699   2.710
  2.710   2.717   2.819   2.819   2.923   2.923   2.935   2.935
  3.154   3.154   3.174   3.174   3.243   3.243   3.256   3.285
  3.469   3.469   3.524   3.524   3.708   3.708   3.747   3.747
  3.889   3.889   3.976   4.035   4.035   4.174   4.273   4.273
  4.455   4.614   4.614   4.694   4.748   4.748   4.836   4.836
  4.898   4.898   5.096   5.166   5.166   5.315   5.315   5.789
  5.977   5.977   6.551   6.957   6.957   6.976   8.250  24.388
 24.773  27.278  27.278  27.473  27.473  28.657  30.129  36.054
 36.912  37.409  37.409  37.776  37.776  38.238  38.372  40.399
 40.408  40.508  40.510  40.520  40.590  40.590  40.765  40.778
 40.781  40.781  41.015  41.029  41.042  41.210  41.210  41.286
 41.286  41.608  41.652
 --------------------------------------------------------------
 
          Ground-State Mulliken Net Atomic Charges

     Atom                 Charge (a.u.)
  ----------------------------------------
      1 N                    -0.282772
      2 C                     0.283491
      3 C                     0.282148
      4 N                    -0.282866
  ----------------------------------------
  Sum of atomic charges =     0.000000

 -----------------------------------------------------------------
                    Cartesian Multipole Moments
 -----------------------------------------------------------------
    Charge (ESU x 10^10)
                 0.0000
    Dipole Moment (Debye)
         X       0.0000      Y       0.0000      Z      -0.0001
       Tot       0.0001
    Quadrupole Moments (Debye-Ang)
        XX     -20.8423     XY       0.0000     YY     -20.8423
        XZ       0.0000     YZ       0.0000     ZZ     -30.3029
    Octapole Moments (Debye-Ang^2)
       XXX       0.0000    XXY       0.0000    XYY       0.0000
       YYY       0.0000    XXZ      -0.0099    XYZ       0.0000
       YYZ      -0.0099    XZZ       0.0000    YZZ       0.0000
       ZZZ      -0.0209
    Hexadecapole Moments (Debye-Ang^3)
      XXXX     -20.1861   XXXY       0.0000   XXYY      -6.7287
      XYYY       0.0000   YYYY     -20.1861   XXXZ       0.0000
      XXYZ       0.0000   XYYZ       0.0000   YYYZ       0.0000
      XXZZ     -50.3668   XYZZ       0.0000   YYZZ     -50.3668
      XZZZ       0.0000   YZZZ       0.0000   ZZZZ    -331.9052
 -----------------------------------------------------------------
 Calculating analytic gradient of the SCF energy
 Gradient of AOints
            1           2           3           4
    1  -0.0000000  -0.0000000   0.0000000   0.0000000
    2   0.0000001  -0.0000004   0.0000005  -0.0000002
    3 -15.6913736   1.7658997  -1.7629722  15.6884461
 Gradient of XC Energy
            1           2           3           4
    1   0.0000000   0.0000000  -0.0000000  -0.0000000
    2  -0.0000000   0.0000000  -0.0000000   0.0000000
    3   0.4702081  -0.1714495   0.1713073  -0.4700660
 Gradient of SCF Energy
            1           2           3           4
    1  -0.0000000   0.0000000  -0.0000000   0.0000000
    2   0.0000000  -0.0000000  -0.0000000   0.0000000
    3   0.0027206  -0.0023117  -0.0002721  -0.0001368
 Max gradient component =       2.721E-03
 RMS gradient           =       1.034E-03
 Gradient time:  CPU 36.28 s  wall 36.41 s
 Writing REM_CC_EA            4
 ----------------------------------------------------
       Standard Nuclear Orientation (Angstroms)
    I     Atom         X            Y            Z
 ----------------------------------------------------
    1      N       0.000000     0.000000     1.835180
    2      C       0.000000     0.000000     0.693910
    3      C       0.000000     0.000000    -0.693910
    4      N       0.000000     0.000000    -1.836180
 ----------------------------------------------------
 Nuclear Repulsion Energy =    77.2934635797 hartrees
 There are       13 alpha and       13 beta electrons

                       Distance Matrix (Angstroms)
             N (  1)   C (  2)   C (  3)
   C (  2)  1.141270
   C (  3)  2.529090  1.387820
   N (  4)  3.671360  2.530090  1.142270
 
 Requested basis set is G3large
 There are 40 shells and 168 basis functions
 A cutoff of  1.0D-11 yielded    741 shell pairs
 There are  13388 function pairs ( 17541 Cartesian)
Evaluating contribution to one-electron hamiltonian from nuclear
 Smallest overlap matrix eigenvalue = 9.69E-06
 Multipole matrices computed through 2nd order
 Guess MOs from SCF MO coefficient file
Reading MOs from coefficient file
Reading MOs from coefficient file
 Long-range K will be added via erf
 Coulomb attenuation parameter = 0.42 bohr**(-1)
 A restricted Kohn-Sham SCF calculation will be
 performed using Pulay DIIS extrapolation
 Exchange:  wPBE + LR-HF      Correlation:  PBE
 Using SG-1 standard quadrature grid
 SCF converges when DIIS error is below 1.0E-08
 ---------------------------------------
  Cycle       Energy         DIIS Error
 ---------------------------------------
    1    -185.5468208605      1.08E-04
    2    -185.5477599805      1.72E-05
    3    -185.5477597794      2.03E-05
    4    -185.5477608558      3.31E-06
    5    -185.5477608762      5.25E-07
    6    -185.5477608941      1.76E-07
    7    -185.5477609148      6.17E-08
    8    -185.5477609205      3.41E-08
    9    -185.5477609228      3.37E-09 Convergence criterion met
 ---------------------------------------
 One-Electron    Energy =  -402.4540158446
 Total Coulomb   Energy =   163.9925912045
 Alpha Exchange  Energy =    -2.7214690317
 Beta  Exchange  Energy =    -2.7214690317
 DFT   Exchange  Energy =   -18.0938399802
 DFT Correlation Energy =    -0.8430218187
 Nuclear Repu.   Energy =    77.2934635797
 Nuclear Attr.   Energy =  -587.4542531363
 Kinetic         Energy =   185.0002372917
 SCF time:  CPU 52.81 s  wall 53.19 s
 Final Alpha MO Eigenvalues
            1           2           3           4           5           6
    1 -14.2835123 -14.2832305 -10.2293714 -10.2288066  -1.1407187  -1.1166672
            7           8           9          10          11          12
    1  -0.8930718  -0.5986716  -0.5986716  -0.5689923  -0.5564618  -0.5029194
           13          14          15          16          17          18
    1  -0.5029194  -0.0016876  -0.0016876   0.0489480   0.0760969   0.1005399
 Analysis of SCF Wavefunction
 
 --------------------------------------------------------------
                    Orbital Energies (a.u.)
 --------------------------------------------------------------
 
 Alpha MOs
 -- Occupied --
-14.284 -14.283 -10.229 -10.229  -1.141  -1.117  -0.893  -0.599
 -0.599  -0.569  -0.556  -0.503  -0.503
 -- Virtual --
 -0.002  -0.002   0.049   0.076   0.101   0.101   0.134   0.134
  0.150   0.168   0.223   0.223   0.233   0.255   0.255   0.263
  0.291   0.319   0.328   0.328   0.375   0.564   0.573   0.573
  0.597   0.597   0.680   0.680   0.718   0.758   0.806   0.806
  0.879   0.889   0.901   0.901   0.916   0.965   0.965   0.990
  0.990   1.014   1.198   1.198   1.244   1.383   1.383   1.412
  1.461   1.461   1.639   1.777   1.777   2.090   2.100   2.121
  2.121   2.138   2.418   2.695   2.695   2.699   2.699   2.710
  2.710   2.718   2.819   2.819   2.923   2.923   2.935   2.935
  3.153   3.153   3.174   3.174   3.243   3.243   3.255   3.285
  3.470   3.470   3.526   3.526   3.708   3.708   3.747   3.747
  3.890   3.890   3.979   4.036   4.036   4.173   4.275   4.275
  4.457   4.615   4.615   4.696   4.749   4.749   4.836   4.836
  4.899   4.899   5.096   5.166   5.166   5.316   5.316   5.792
  5.982   5.982   6.555   6.962   6.962   6.980   8.255  24.389
 24.776  27.279  27.279  27.473  27.473  28.659  30.135  36.057
 36.917  37.410  37.410  37.778  37.778  38.240  38.374  40.400
 40.409  40.509  40.511  40.520  40.591  40.591  40.765  40.778
 40.783  40.783  41.014  41.029  41.042  41.211  41.211  41.288
 41.288  41.611  41.655
 --------------------------------------------------------------
 
          Ground-State Mulliken Net Atomic Charges

     Atom                 Charge (a.u.)
  ----------------------------------------
      1 N                    -0.283290
      2 C                     0.282567
      3 C                     0.283920
      4 N                    -0.283197
  ----------------------------------------
  Sum of atomic charges =     0.000000

 -----------------------------------------------------------------
                    Cartesian Multipole Moments
 -----------------------------------------------------------------
    Charge (ESU x 10^10)
                 0.0000
    Dipole Moment (Debye)
         X       0.0000      Y       0.0000      Z       0.0001
       Tot       0.0001
    Quadrupole Moments (Debye-Ang)
        XX     -20.8354     XY       0.0000     YY     -20.8354
        XZ       0.0000     YZ       0.0000     ZZ     -30.3040
    Octapole Moments (Debye-Ang^2)
       XXX       0.0000    XXY       0.0000    XYY       0.0000
       YYY       0.0000    XXZ       0.0099    XYZ       0.0000
       YYZ       0.0099    XZZ       0.0000    YZZ       0.0000
       ZZZ       0.0209
    Hexadecapole Moments (Debye-Ang^3)
      XXXX     -20.1720   XXXY       0.0000   XXYY      -6.7240
      XYYY       0.0000   YYYY     -20.1720   XXXZ       0.0000
      XXYZ       0.0000   XYYZ       0.0000   YYYZ       0.0000
      XXZZ     -50.3157   XYZZ       0.0000   YYZZ     -50.3157
      XZZZ       0.0000   YZZZ       0.0000   ZZZZ    -331.6491
 -----------------------------------------------------------------
 Calculating analytic gradient of the SCF energy
 Gradient of AOints
            1           2           3           4
    1   0.0000000   0.0000000   0.0000000  -0.0000000
    2  -0.0000000   0.0000000   0.0000000  -0.0000000
    3 -15.6908231   1.7569876  -1.7599556  15.6937911
 Gradient of XC Energy
            1           2           3           4
    1  -0.0000000  -0.0000000  -0.0000000   0.0000000
    2   0.0000000   0.0000000  -0.0000000   0.0000000
    3   0.4700345  -0.1712379   0.1713825  -0.4701791
 Gradient of SCF Energy
            1           2           3           4
    1  -0.0000000   0.0000000  -0.0000000   0.0000000
    2  -0.0000000   0.0000000   0.0000000  -0.0000000
    3  -0.0024001   0.0027343  -0.0001343  -0.0001998
 Max gradient component =       2.734E-03
 RMS gradient           =       1.053E-03
 Gradient time:  CPU 36.28 s  wall 36.37 s
 Writing REM_CC_EA            4
 ----------------------------------------------------
       Standard Nuclear Orientation (Angstroms)
    I     Atom         X            Y            Z
 ----------------------------------------------------
    1      N       0.000000     0.000000     1.836180
    2      C       0.001000     0.000000     0.693910
    3      C       0.000000     0.000000    -0.693910
    4      N       0.000000     0.000000    -1.836180
 ----------------------------------------------------
 Nuclear Repulsion Energy =    77.2710065307 hartrees
 There are       13 alpha and       13 beta electrons

                       Distance Matrix (Angstroms)
             N (  1)   C (  2)   C (  3)
   C (  2)  1.142270
   C (  3)  2.530090  1.387820
   N (  4)  3.672360  2.530090  1.142270
 
 Requested basis set is G3large
 There are 40 shells and 168 basis functions
 A cutoff of  1.0D-11 yielded    741 shell pairs
 There are  13388 function pairs ( 17541 Cartesian)
Evaluating contribution to one-electron hamiltonian from nuclear
 Smallest overlap matrix eigenvalue = 9.69E-06
 Multipole matrices computed through 2nd order
 Guess MOs from SCF MO coefficient file
Reading MOs from coefficient file
Reading MOs from coefficient file
 Long-range K will be added via erf
 Coulomb attenuation parameter = 0.42 bohr**(-1)
 A restricted Kohn-Sham SCF calculation will be
 performed using Pulay DIIS extrapolation
 Exchange:  wPBE + LR-HF      Correlation:  PBE
 Using SG-1 standard quadrature grid
 SCF converges when DIIS error is below 1.0E-08
 ---------------------------------------
  Cycle       Energy         DIIS Error
 ---------------------------------------
    1    -185.5482494772      6.46E-05
    2    -185.5477625573      9.06E-06
    3    -185.5477625445      1.04E-05
    4    -185.5477628392      1.97E-06
    5    -185.5477628783      4.06E-07
    6    -185.5477628475      1.40E-07
    7    -185.5477628533      4.74E-08
    8    -185.5477628483      3.05E-08
    9    -185.5477628484      7.30E-09 Convergence criterion met
 ---------------------------------------
 One-Electron    Energy =  -402.4098272290
 Total Coulomb   Energy =   163.9696543983
 Alpha Exchange  Energy =    -2.7213719042
 Beta  Exchange  Energy =    -2.7213719042
 DFT   Exchange  Energy =   -18.0928746922
 DFT Correlation Energy =    -0.8429780479
 Nuclear Repu.   Energy =    77.2710065307
 Nuclear Attr.   Energy =  -587.4047760209
 Kinetic         Energy =   184.9949487919
 SCF time:  CPU 53.04 s  wall 53.44 s
 Final Alpha MO Eigenvalues
            1           2           3           4           5           6
    1 -14.2835577 -14.2834989 -10.2294880 -10.2289874  -1.1405743  -1.1165018
            7           8           9          10          11          12
    1  -0.8931124  -0.5985585  -0.5985585  -0.5690607  -0.5564976  -0.5027851
           13          14          15          16          17          18
    1  -0.5027851  -0.0018816  -0.0018813   0.0489476   0.0760893   0.1005529
 Analysis of SCF Wavefunction
 
 --------------------------------------------------------------
                    Orbital Energies (a.u.)
 --------------------------------------------------------------
 
 Alpha MOs
 -- Occupied --
-14.284 -14.283 -10.229 -10.229  -1.141  -1.117  -0.893  -0.599
 -0.599  -0.569  -0.556  -0.503  -0.503
 -- Virtual --
 -0.002  -0.002   0.049   0.076   0.101   0.101   0.134   0.134
  0.150   0.168   0.223   0.223   0.233   0.255   0.255   0.263
  0.291   0.319   0.328   0.328   0.375   0.563   0.573   0.573
  0.597   0.597   0.680   0.680   0.718   0.758   0.806   0.806
  0.879   0.889   0.901   0.901   0.916   0.965   0.965   0.990
  0.990   1.013   1.198   1.198   1.243   1.383   1.383   1.412
  1.460   1.460   1.639   1.776   1.776   2.089   2.100   2.121
  2.121   2.138   2.418   2.695   2.695   2.699   2.699   2.710
  2.710   2.718   2.819   2.819   2.923   2.923   2.935   2.935
  3.153   3.154   3.174   3.174   3.243   3.243   3.255   3.285
  3.470   3.470   3.525   3.525   3.708   3.708   3.747   3.747
  3.889   3.889   3.977   4.036   4.036   4.174   4.274   4.274
  4.456   4.615   4.615   4.695   4.748   4.748   4.836   4.836
  4.899   4.899   5.096   5.166   5.166   5.315   5.315   5.790
  5.979   5.979   6.553   6.959   6.959   6.978   8.252  24.388
 24.775  27.278  27.278  27.473  27.473  28.658  30.132  36.056
 36.914  37.409  37.410  37.777  37.777  38.239  38.373  40.399
 40.409  40.509  40.511  40.520  40.591  40.591  40.765  40.778
 40.782  40.782  41.014  41.029  41.042  41.210  41.210  41.287
 41.287  41.610  41.654
 --------------------------------------------------------------
 
          Ground-State Mulliken Net Atomic Charges

     Atom                 Charge (a.u.)
  ----------------------------------------
      1 N                    -0.283028
      2 C                     0.283028
      3 C                     0.283030
      4 N                    -0.283030
  ----------------------------------------
  Sum of atomic charges =     0.000000

 -----------------------------------------------------------------
                    Cartesian Multipole Moments
 -----------------------------------------------------------------
    Charge (ESU x 10^10)
                 0.0000
    Dipole Moment (Debye)
         X       0.0013      Y       0.0000      Z       0.0000
       Tot       0.0013
    Quadrupole Moments (Debye-Ang)
        XX     -20.8389     XY       0.0000     YY     -20.8389
        XZ      -0.0001     YZ       0.0000     ZZ     -30.3035
    Octapole Moments (Debye-Ang^2)
       XXX      -0.0146    XXY       0.0000    XYY      -0.0049
       YYY       0.0000    XXZ       0.0000    XYZ       0.0000
       YYZ       0.0000    XZZ      -0.0039    YZZ       0.0000
       ZZZ       0.0000
    Hexadecapole Moments (Debye-Ang^3)
      XXXX     -20.1791   XXXY       0.0000   XXYY      -6.7263
      XYYY       0.0000   YYYY     -20.1790   XXXZ      -0.0130
      XXYZ       0.0000   XYYZ      -0.0043   YYYZ       0.0000
      XXZZ     -50.3413   XYZZ       0.0000   YYZZ     -50.3413
      XZZZ      -0.0131   YZZZ       0.0000   ZZZZ    -331.7772
 -----------------------------------------------------------------
 Calculating analytic gradient of the SCF energy
 Gradient of AOints
            1           2           3           4
    1   0.0167379  -0.0379283   0.0257262  -0.0045359
    2   0.0000000  -0.0000000  -0.0000000   0.0000000
    3 -15.6911524   1.7615463  -1.7615332  15.6911394
 Gradient of XC Energy
            1           2           3           4
    1  -0.0005615   0.0010554  -0.0006371   0.0001432
    2  -0.0000000   0.0000000   0.0000000  -0.0000000
    3   0.4701238  -0.1713478   0.1713472  -0.4701232
 Gradient of SCF Energy
            1           2           3           4
    1  -0.0000647   0.0001458  -0.0001144   0.0000333
    2   0.0000000  -0.0000000   0.0000000  -0.0000000
    3   0.0001693   0.0002025  -0.0002035  -0.0001683
 Max gradient component =       2.035E-04
 RMS gradient           =       1.221E-04
 Gradient time:  CPU 36.26 s  wall 36.42 s
 Writing REM_CC_EA            4
 ----------------------------------------------------
       Standard Nuclear Orientation (Angstroms)
    I     Atom         X            Y            Z
 ----------------------------------------------------
    1      N       0.000000     0.000000     1.836180
    2      C      -0.001000     0.000000     0.693910
    3      C       0.000000     0.000000    -0.693910
    4      N       0.000000     0.000000    -1.836180
 ----------------------------------------------------
 Nuclear Repulsion Energy =    77.2710065307 hartrees
 There are       13 alpha and       13 beta electrons

                       Distance Matrix (Angstroms)
             N (  1)   C (  2)   C (  3)
   C (  2)  1.142270
   C (  3)  2.530090  1.387820
   N (  4)  3.672360  2.530090  1.142270
 
 Requested basis set is G3large
 There are 40 shells and 168 basis functions
 A cutoff of  1.0D-11 yielded    741 shell pairs
 There are  13388 function pairs ( 17541 Cartesian)
Evaluating contribution to one-electron hamiltonian from nuclear
 Smallest overlap matrix eigenvalue = 9.69E-06
 Multipole matrices computed through 2nd order
 Guess MOs from SCF MO coefficient file
Reading MOs from coefficient file
Reading MOs from coefficient file
 Long-range K will be added via erf
 Coulomb attenuation parameter = 0.42 bohr**(-1)
 A restricted Kohn-Sham SCF calculation will be
 performed using Pulay DIIS extrapolation
 Exchange:  wPBE + LR-HF      Correlation:  PBE
 Using SG-1 standard quadrature grid
 SCF converges when DIIS error is below 1.0E-08
 ---------------------------------------
  Cycle       Energy         DIIS Error
 ---------------------------------------
    1    -185.5477639426      7.04E-05
    2    -185.5477625901      5.58E-06
    3    -185.5477628224      1.93E-06
    4    -185.5477628447      5.49E-07
    5    -185.5477628507      1.50E-07
    6    -185.5477628497      8.61E-08
    7    -185.5477628499      4.37E-08
    8    -185.5477628496      4.55E-09 Convergence criterion met
 ---------------------------------------
 One-Electron    Energy =  -402.4098262342
 Total Coulomb   Energy =   163.9696532668
 Alpha Exchange  Energy =    -2.7213719016
 Beta  Exchange  Energy =    -2.7213719016
 DFT   Exchange  Energy =   -18.0928745627
 DFT Correlation Energy =    -0.8429780471
 Nuclear Repu.   Energy =    77.2710065307
 Nuclear Attr.   Energy =  -587.4047737400
 Kinetic         Energy =   184.9949475059
 SCF time:  CPU 47.46 s  wall 47.93 s
 Final Alpha MO Eigenvalues
            1           2           3           4           5           6
    1 -14.2835578 -14.2834990 -10.2294880 -10.2289874  -1.1405743  -1.1165018
            7           8           9          10          11          12
    1  -0.8931124  -0.5985585  -0.5985585  -0.5690608  -0.5564976  -0.5027851
           13          14          15          16          17          18
    1  -0.5027851  -0.0018816  -0.0018814   0.0489476   0.0760893   0.1005529
 Analysis of SCF Wavefunction
 
 --------------------------------------------------------------
                    Orbital Energies (a.u.)
 --------------------------------------------------------------
 
 Alpha MOs
 -- Occupied --
-14.284 -14.283 -10.229 -10.229  -1.141  -1.117  -0.893  -0.599
 -0.599  -0.569  -0.556  -0.503  -0.503
 -- Virtual --
 -0.002  -0.002   0.049   0.076   0.101   0.101   0.134   0.134
  0.150   0.168   0.223   0.223   0.233   0.255   0.255   0.263
  0.291   0.319   0.328   0.328   0.375   0.563   0.573   0.573
  0.597   0.597   0.680   0.680   0.718   0.758   0.806   0.806
  0.879   0.889   0.901   0.901   0.916   0.965   0.965   0.990
  0.990   1.013   1.198   1.198   1.243   1.383   1.383   1.412
  1.460   1.460   1.639   1.776   1.776   2.089   2.100   2.121
  2.121   2.138   2.418   2.695   2.695   2.699   2.699   2.710
  2.710   2.718   2.819   2.819   2.923   2.923   2.935   2.935
  3.153   3.154   3.174   3.174   3.243   3.243   3.255   3.285
  3.470   3.470   3.525   3.525   3.708   3.708   3.747   3.747
  3.889   3.889   3.977   4.036   4.036   4.174   4.274   4.274
  4.456   4.615   4.615   4.695   4.748   4.748   4.836   4.836
  4.899   4.899   5.096   5.166   5.166   5.315   5.315   5.790
  5.979   5.979   6.553   6.959   6.959   6.978   8.252  24.388
 24.775  27.278  27.278  27.473  27.473  28.658  30.132  36.056
 36.914  37.409  37.410  37.777  37.777  38.239  38.373  40.399
 40.409  40.509  40.511  40.520  40.591  40.591  40.765  40.778
 40.782  40.782  41.014  41.029  41.042  41.210  41.210  41.287
[...]
                    Cartesian Multipole Moments
 -----------------------------------------------------------------
    Charge (ESU x 10^10)
                 0.0000
    Dipole Moment (Debye)
         X       0.0000      Y       0.0000      Z      -0.0001
       Tot       0.0001
    Quadrupole Moments (Debye-Ang)
        XX     -20.8354     XY       0.0000     YY     -20.8354
        XZ       0.0000     YZ       0.0000     ZZ     -30.3040
    Octapole Moments (Debye-Ang^2)
       XXX       0.0000    XXY       0.0000    XYY       0.0000
       YYY       0.0000    XXZ      -0.0099    XYZ       0.0000
       YYZ      -0.0099    XZZ       0.0000    YZZ       0.0000
       ZZZ      -0.0209
    Hexadecapole Moments (Debye-Ang^3)
      XXXX     -20.1720   XXXY       0.0000   XXYY      -6.7240
      XYYY       0.0000   YYYY     -20.1720   XXXZ       0.0000
      XXYZ       0.0000   XYYZ       0.0000   YYYZ       0.0000
      XXZZ     -50.3157   XYZZ       0.0000   YYZZ     -50.3157
      XZZZ       0.0000   YZZZ       0.0000   ZZZZ    -331.6491
 -----------------------------------------------------------------
 Calculating analytic gradient of the SCF energy
 Gradient of AOints
            1           2           3           4
    1   0.0000000   0.0000000  -0.0000000  -0.0000000
    2  -0.0000002   0.0000005  -0.0000004   0.0000001
    3 -15.6937910   1.7599559  -1.7569895  15.6908246
 Gradient of XC Energy
            1           2           3           4
    1  -0.0000000  -0.0000000   0.0000000   0.0000000
    2   0.0000000  -0.0000000   0.0000000  -0.0000000
    3   0.4701791  -0.1713825   0.1712380  -0.4700345
 Gradient of SCF Energy
            1           2           3           4
    1   0.0000000  -0.0000000   0.0000000  -0.0000000
    2   0.0000000  -0.0000000  -0.0000000   0.0000000
    3   0.0001998   0.0001343  -0.0027342   0.0024001
 Max gradient component =       2.734E-03
 RMS gradient           =       1.053E-03
 Gradient time:  CPU 44.88 s  wall 44.95 s
 Writing REM_CC_EA            4
 ----------------------------------------------------
       Standard Nuclear Orientation (Angstroms)
    I     Atom         X            Y            Z
 ----------------------------------------------------
    1      N       0.000000     0.000000     1.836180
    2      C       0.000000     0.000000     0.693910
    3      C       0.000000     0.000000    -0.693910
    4      N       0.000000     0.000000    -1.837180
 ----------------------------------------------------
 Nuclear Repulsion Energy =    77.2486065096 hartrees
 There are       13 alpha and       13 beta electrons

                       Distance Matrix (Angstroms)
             N (  1)   C (  2)   C (  3)
   C (  2)  1.142270
   C (  3)  2.530090  1.387820
   N (  4)  3.673360  2.531090  1.143270
 
 Requested basis set is G3large
 There are 40 shells and 168 basis functions
 A cutoff of  1.0D-11 yielded    741 shell pairs
 There are  13388 function pairs ( 17541 Cartesian)
Evaluating contribution to one-electron hamiltonian from nuclear
 Smallest overlap matrix eigenvalue = 9.70E-06
 Multipole matrices computed through 2nd order
 Guess MOs from SCF MO coefficient file
Reading MOs from coefficient file
Reading MOs from coefficient file
 Long-range K will be added via erf
 Coulomb attenuation parameter = 0.42 bohr**(-1)
 A restricted Kohn-Sham SCF calculation will be
 performed using Pulay DIIS extrapolation
 Exchange:  wPBE + LR-HF      Correlation:  PBE
 Using SG-1 standard quadrature grid
 SCF converges when DIIS error is below 1.0E-08
 ---------------------------------------
  Cycle       Energy         DIIS Error
 ---------------------------------------
    1    -185.5487373113      1.08E-04
    2    -185.5477593440      1.72E-05
    3    -185.5477591394      2.03E-05
    4    -185.5477602289      3.31E-06
    5    -185.5477602616      5.23E-07
    6    -185.5477602458      1.74E-07
    7    -185.5477602238      5.27E-08
    8    -185.5477602180      3.27E-08
    9    -185.5477602170      3.55E-09 Convergence criterion met
 ---------------------------------------
 One-Electron    Energy =  -402.3657390454
 Total Coulomb   Energy =   163.9467688826
 Alpha Exchange  Energy =    -2.7212748804
 Beta  Exchange  Energy =    -2.7212748804
 DFT   Exchange  Energy =   -18.0919124603
 DFT Correlation Energy =    -0.8429343426
 Nuclear Repu.   Energy =    77.2486065096
 Nuclear Attr.   Energy =  -587.3554219655
 Kinetic         Energy =   184.9896829201
 SCF time:  CPU 54.63 s  wall 55.11 s
 Final Alpha MO Eigenvalues
            1           2           3           4           5           6
    1 -14.2838257 -14.2835444 -10.2296685 -10.2291038  -1.1404324  -1.1163339
            7           8           9          10          11          12
    1  -0.8931533  -0.5984462  -0.5984462  -0.5691292  -0.5565332  -0.5026508
           13          14          15          16          17          18
    1  -0.5026508  -0.0020752  -0.0020752   0.0489472   0.0760816   0.1005663
 Analysis of SCF Wavefunction
 
 --------------------------------------------------------------
                    Orbital Energies (a.u.)
 --------------------------------------------------------------
 
 Alpha MOs
 -- Occupied --
-14.284 -14.284 -10.230 -10.229  -1.140  -1.116  -0.893  -0.598
 -0.598  -0.569  -0.557  -0.503  -0.503
 -- Virtual --
 -0.002  -0.002   0.049   0.076   0.101   0.101   0.134   0.134
  0.150   0.168   0.222   0.222   0.233   0.255   0.255   0.263
  0.291   0.319   0.328   0.328   0.375   0.563   0.573   0.573
  0.597   0.597   0.680   0.680   0.717   0.759   0.806   0.806
  0.878   0.889   0.901   0.901   0.916   0.965   0.965   0.989
  0.989   1.013   1.198   1.198   1.242   1.383   1.383   1.411
  1.460   1.460   1.639   1.776   1.776   2.089   2.099   2.121
  2.121   2.139   2.418   2.695   2.695   2.699   2.699   2.710
  2.710   2.717   2.819   2.819   2.923   2.923   2.935   2.935
  3.154   3.154   3.174   3.174   3.243   3.243   3.256   3.285
  3.469   3.469   3.524   3.524   3.708   3.708   3.747   3.747
  3.889   3.889   3.976   4.035   4.035   4.174   4.273   4.273
  4.455   4.614   4.614   4.694   4.748   4.748   4.836   4.836
  4.898   4.898   5.096   5.166   5.166   5.315   5.315   5.789
  5.977   5.977   6.551   6.957   6.957   6.976   8.250  24.388
 24.773  27.278  27.278  27.473  27.473  28.657  30.129  36.054
 36.912  37.409  37.409  37.776  37.776  38.238  38.372  40.399
 40.408  40.508  40.510  40.520  40.590  40.590  40.765  40.778
 40.781  40.781  41.015  41.029  41.042  41.210  41.210  41.286
 41.286  41.608  41.652
 --------------------------------------------------------------
 
          Ground-State Mulliken Net Atomic Charges

     Atom                 Charge (a.u.)
  ----------------------------------------
      1 N                    -0.282866
      2 C                     0.282148
      3 C                     0.283491
      4 N                    -0.282772
  ----------------------------------------
  Sum of atomic charges =     0.000000

 -----------------------------------------------------------------
                    Cartesian Multipole Moments
 -----------------------------------------------------------------
    Charge (ESU x 10^10)
                 0.0000
    Dipole Moment (Debye)
         X       0.0000      Y       0.0000      Z       0.0001
       Tot       0.0001
    Quadrupole Moments (Debye-Ang)
        XX     -20.8423     XY       0.0000     YY     -20.8423
        XZ       0.0000     YZ       0.0000     ZZ     -30.3029
    Octapole Moments (Debye-Ang^2)
       XXX       0.0000    XXY       0.0000    XYY       0.0000
       YYY       0.0000    XXZ       0.0099    XYZ       0.0000
       YYZ       0.0099    XZZ       0.0000    YZZ       0.0000
       ZZZ       0.0209
    Hexadecapole Moments (Debye-Ang^3)
      XXXX     -20.1861   XXXY       0.0000   XXYY      -6.7287
      XYYY       0.0000   YYYY     -20.1861   XXXZ       0.0000
      XXYZ       0.0000   XYYZ       0.0000   YYYZ       0.0000
      XXZZ     -50.3668   XYZZ       0.0000   YYZZ     -50.3668
      XZZZ       0.0000   YZZZ       0.0000   ZZZZ    -331.9052
 -----------------------------------------------------------------
 Calculating analytic gradient of the SCF energy
 Gradient of AOints
            1           2           3           4
    1   0.0000000  -0.0000000   0.0000000  -0.0000000
    2  -0.0000000  -0.0000000   0.0000000  -0.0000000
    3 -15.6884461   1.7629724  -1.7659015  15.6913751
 Gradient of XC Energy
            1           2           3           4
    1  -0.0000000  -0.0000000  -0.0000000   0.0000000
    2   0.0000000   0.0000000  -0.0000000   0.0000000
    3   0.4700660  -0.1713073   0.1714496  -0.4702082
 Gradient of SCF Energy
            1           2           3           4
    1  -0.0000000   0.0000000  -0.0000000   0.0000000
    2  -0.0000000  -0.0000000  -0.0000000   0.0000000
    3   0.0001367   0.0002722   0.0023117  -0.0027206
 Max gradient component =       2.721E-03
 RMS gradient           =       1.034E-03
 Gradient time:  CPU 45.03 s  wall 45.13 s
Dipole drv :
gprntSymmMtrx error report: 
 Final Hessian.
            1           2           3           4           5           6
    1   0.0180221   0.0000004   0.0000000  -0.0342338  -0.0000008   0.0000008
    2   0.0000004   0.0180225  -0.0000018   0.0000003  -0.0342338  -0.0000025
    3   0.0000000  -0.0000018   1.3548746  -0.0000005  -0.0000029  -1.3350950
    4  -0.0342338   0.0000003  -0.0000005   0.0771581  -0.0000000   0.0000008
    5  -0.0000008  -0.0342338  -0.0000029  -0.0000000   0.0771578   0.0000024
    6   0.0000008  -0.0000025  -1.3350950   0.0000008   0.0000024   1.7832035
    7   0.0176378  -0.0000028  -0.0000024  -0.0605609   0.0000024  -0.0000003
    8  -0.0000010   0.0176380  -0.0000061   0.0000015  -0.0605619   0.0000049
    9   0.0000000  -0.0000036  -0.0364671   0.0000000   0.0000027  -0.4116398
   10  -0.0014280   0.0000020  -0.0000039   0.0176382  -0.0000015   0.0000030
   11   0.0000019  -0.0014261  -0.0000011  -0.0000026   0.0176363  -0.0000016
   12   0.0000041   0.0000052   0.0166860   0.0000012   0.0000005  -0.0364672
            7           8           9          10          11          12
    1   0.0176378  -0.0000010   0.0000000  -0.0014280   0.0000019   0.0000041
    2  -0.0000028   0.0176380  -0.0000036   0.0000020  -0.0014261   0.0000052
    3  -0.0000024  -0.0000061  -0.0364671  -0.0000039  -0.0000011   0.0166860
    4  -0.0605609   0.0000015   0.0000000   0.0176382  -0.0000026   0.0000012
    5   0.0000024  -0.0605619   0.0000027  -0.0000015   0.0176363   0.0000005
    6  -0.0000003   0.0000049  -0.4116398   0.0000030  -0.0000016  -0.0364672
    7   0.0771611  -0.0000001   0.0000012  -0.0342371   0.0000003   0.0000015
    8  -0.0000001   0.0771574   0.0000013  -0.0000004  -0.0342326   0.0000026
    9   0.0000012   0.0000013   1.7832032  -0.0000031  -0.0000034  -1.3350948
   10  -0.0342371  -0.0000004  -0.0000031   0.0180264   0.0000004   0.0000039
   11   0.0000003  -0.0342326  -0.0000034   0.0000004   0.0180225   0.0000033
   12   0.0000015   0.0000026  -1.3350948   0.0000039   0.0000033   1.3548745
 Writing REM_CC_EA            4
 ----------------------------------------------------
       Standard Nuclear Orientation (Angstroms)
    I     Atom         X            Y            Z
 ----------------------------------------------------
    1      N       0.000000     0.000000     1.836180
    2      C       0.000000     0.000000     0.693910
    3      C       0.000000     0.000000    -0.693910
    4      N       0.000000     0.000000    -1.836180
 ----------------------------------------------------
 Nuclear Repulsion Energy =    77.2710182365 hartrees
 There are       13 alpha and       13 beta electrons
 old dipole drv.
            1           2           3           4           5           6
    1  -0.2809575   0.0000120  -0.0000002   0.2809472  -0.0000138   0.0000002
    2   0.0000000  -0.2809618   0.0000207   0.0000003   0.2809607  -0.0000116
    3   0.0000252  -0.0000430  -0.0150451   0.0000271   0.0000499   0.0150490
            7           8           9          10          11          12
    1   0.2809576  -0.0000152  -0.0000003  -0.2809566   0.0000127   0.0000003
    2   0.0000005   0.2809549  -0.0000118   0.0000001  -0.2809612   0.0000209
    3  -0.0000066  -0.0000326   0.0150523  -0.0000450   0.0000126  -0.0150402
 New transposed dipole drv.
            1           2           3
    1  -0.2809575   0.0000000   0.0000252
    2   0.0000120  -0.2809618  -0.0000430
    3  -0.0000002   0.0000207  -0.0150451
    4   0.2809472   0.0000003   0.0000271
    5  -0.0000138   0.2809607   0.0000499
    6   0.0000002  -0.0000116   0.0150490
    7   0.2809576   0.0000005  -0.0000066
    8  -0.0000152   0.2809549  -0.0000326
    9  -0.0000003  -0.0000118   0.0150523
   10  -0.2809566   0.0000001  -0.0000450
   11   0.0000127  -0.2809612   0.0000126
   12   0.0000003   0.0000209  -0.0150402
FINAL TENSOR RESULT:
Order 2, Length 12
Order 1, Length 12
   0.0180221   0.0000004   0.0000000  -0.0342338  -0.0000008   0.0000008   0.0176378  -0.0000010   0.0000000  -0.0014280   0.0000019   0.0000041
Order 1, Length 12
   0.0000004   0.0180225  -0.0000018   0.0000003  -0.0342338  -0.0000025  -0.0000028   0.0176380  -0.0000036   0.0000020  -0.0014261   0.0000052
Order 1, Length 12
   0.0000000  -0.0000018   1.3548746  -0.0000005  -0.0000029  -1.3350950  -0.0000024  -0.0000061  -0.0364671  -0.0000039  -0.0000011   0.0166860
Order 1, Length 12
  -0.0342338   0.0000003  -0.0000005   0.0771581  -0.0000000   0.0000008  -0.0605609   0.0000015   0.0000000   0.0176382  -0.0000026   0.0000012
Order 1, Length 12
  -0.0000008  -0.0342338  -0.0000029  -0.0000000   0.0771578   0.0000024   0.0000024  -0.0605619   0.0000027  -0.0000015   0.0176363   0.0000005
Order 1, Length 12
   0.0000008  -0.0000025  -1.3350950   0.0000008   0.0000024   1.7832035  -0.0000003   0.0000049  -0.4116398   0.0000030  -0.0000016  -0.0364672
Order 1, Length 12
   0.0176378  -0.0000028  -0.0000024  -0.0605609   0.0000024  -0.0000003   0.0771611  -0.0000001   0.0000012  -0.0342371   0.0000003   0.0000015
Order 1, Length 12
  -0.0000010   0.0176380  -0.0000061   0.0000015  -0.0605619   0.0000049  -0.0000001   0.0771574   0.0000013  -0.0000004  -0.0342326   0.0000026
Order 1, Length 12
   0.0000000  -0.0000036  -0.0364671   0.0000000   0.0000027  -0.4116398   0.0000012   0.0000013   1.7832032  -0.0000031  -0.0000034  -1.3350948
Order 1, Length 12
  -0.0014280   0.0000020  -0.0000039   0.0176382  -0.0000015   0.0000030  -0.0342371  -0.0000004  -0.0000031   0.0180264   0.0000004   0.0000039
Order 1, Length 12
   0.0000019  -0.0014261  -0.0000011  -0.0000026   0.0176363  -0.0000016   0.0000003  -0.0342326  -0.0000034   0.0000004   0.0180225   0.0000033
Order 1, Length 12
   0.0000041   0.0000052   0.0166860   0.0000012   0.0000005  -0.0364672   0.0000015   0.0000026  -1.3350948   0.0000039   0.0000033   1.3548745


 # Finishing finite difference calculation for IDERIV #
 ######################################################
 ######################################################
 Requested basis set is G3large
 There are 40 shells and 168 basis functions
 **********************************************************************
 **                                                                  **
 **                       VIBRATIONAL ANALYSIS                       **
 **                       --------------------                       **
 **                                                                  **
 **        VIBRATIONAL FREQUENCIES (CM**-1) AND NORMAL MODES         **
 **     FORCE CONSTANTS (mDYN/ANGSTROM) AND REDUCED MASSES (AMU)     **
 **                  INFRARED INTENSITIES (KM/MOL)                   **
 **                                                                  **
 **********************************************************************
 

 Mode:                 1                      2                      3
 Frequency:       260.49                 260.53                 583.19
 Force Cnst:      0.5137                 0.5138                 2.4428
 Red. Mass:      12.8481                12.8481                12.1901
 IR Active:          YES                    YES                    YES
 IR Intens:       23.824                 23.821                  0.000
 Raman Active:       YES                    YES                    YES
               X      Y      Z        X      Y      Z        X      Y      Z
 N          0.263 -0.378  0.000   -0.378 -0.263  0.000   -0.115 -0.185  0.000
 C         -0.307  0.441  0.000    0.441  0.307  0.000    0.354  0.572  0.000
 C         -0.307  0.441  0.000    0.441  0.307  0.000   -0.354 -0.572  0.000
 N          0.263 -0.378  0.000   -0.378 -0.263  0.000    0.115  0.185  0.000
 TransDip  -0.089  0.128  0.000    0.128  0.089  0.000    0.000  0.000  0.000

 Mode:                 4                      5                      6
 Frequency:       583.20                 889.60                2368.23
 Force Cnst:      2.4429                 6.2177                42.4558
 Red. Mass:      12.1901                13.3349                12.8481
 IR Active:          YES                    YES                    YES
 IR Intens:        0.000                  0.000                  0.068
 Raman Active:       YES                    YES                    YES
               X      Y      Z        X      Y      Z        X      Y      Z
 N          0.185 -0.115  0.000    0.000  0.000  0.577    0.000  0.000 -0.460
 C         -0.572  0.354  0.000    0.000  0.000  0.408    0.000  0.000  0.537
 C          0.572 -0.354  0.000    0.000  0.000 -0.408    0.000  0.000  0.537
 N         -0.185  0.115  0.000    0.000  0.000 -0.577    0.000  0.000 -0.460
 TransDip   0.000  0.000  0.000    0.000  0.000  0.000    0.000  0.000  0.008

 Mode:                 7
 Frequency:      2562.62
 Force Cnst:     48.5136
 Red. Mass:      12.5384
 IR Active:          YES
 IR Intens:        0.000
 Raman Active:       YES
               X      Y      Z
 N          0.000  0.000 -0.367
 C          0.000  0.000  0.605
 C          0.000  0.000 -0.605
 N          0.000  0.000  0.367
 TransDip   0.000  0.000  0.000

 STANDARD THERMODYNAMIC QUANTITIES AT   298.18 K  AND     1.00 ATM

   This Molecule has  0 Imaginary Frequencies
   Zero point vibrational energy:       10.733 kcal/mol

   Atom    1 Element N  Has Mass   14.00307
   Atom    2 Element C  Has Mass   12.00000
   Atom    3 Element C  Has Mass   12.00000
   Atom    4 Element N  Has Mass   14.00307
   Molecular Mass:    52.006140 amu
   Principal axes and moments of inertia in atomic units:
                             1           2           3
    Eigenvalues --        0.00000   378.46346   378.46346
          X               0.00000     0.00000     1.00000
          Y               0.00000     1.00000     0.00000
          Z               1.00000     0.00000     0.00000
   Rotational Symmetry Number is   1
   The Molecule is a Symmetric Top
   Translational Enthalpy:        0.889 kcal/mol
   Rotational Enthalpy:           0.889 kcal/mol
   Vibrational Enthalpy:         11.573 kcal/mol
   gas constant (RT):             0.593 kcal/mol
   Translational Entropy:        37.770  cal/mol.K
   Rotational Entropy:          -42.776  cal/mol.K
   Vibrational Entropy:           4.422  cal/mol.K

   Total Enthalpy:               13.944 kcal/mol
   Total Entropy:                -0.584  cal/mol.K
 Total job time:  2164.39s(wall), 2151.57s(cpu) 
 Sun Jul  7 11:55:10 2013

        *************************************************************
        *                                                           *
        *  Thank you very much for using Q-Chem.  Have a nice day.  *
        *                                                           *
        *************************************************************


0 sent ACK to 0 
now end server 0 ... 
