Process 0 of 1 is on cl011.stfx.acenet.ca - thread support 1
initial socket setup ...start
initial socket setup ...done 
now start server 0 ... 

cmd = /usr/bin/ssh clhead /usr/local/qchem/bin/get_hostid 309578642 > /scratch/tmp/6060353.1.short.q/qchem28554/lic.dat
                  Welcome to Q-Chem
     A Quantum Leap Into The Future Of Chemistry

 Y. Shao, L. Fusti-Molnar, Y. Jung, J. Kussmann, C. Ochsenfeld,
 S. T. Brown, A. T. B. Gilbert, L. V. Slipchenko,S. V. Levchenko,
 D. P. O'Neill, R. A. DiStasio Jr., R. C. Lochan, T. Wang,
 G. J. O. Beran, N. A. Besley, J. M. Herbert, C. Y. Lin,
 T. Van Voorhis, S. H. Chien, A. Sodt, R. P. Steele, 
 V. A. Rassolov, P. E. Maslen, P. P. Korambath, R. D. Adamson,
 B. Austin, J. Baker, E. F. C. Byrd, H. Dachsel, R. J. Doerksen,
 A. Dreuw, B. D. Dunietz, A. D. Dutoi, T. R. Furlani,
 S. R. Gwaltney, A. Heyden, S. Hirata, C.-P. Hsu, G. Kedziora,
 R. Z. Khaliullin, P. Klunzinger, A. M. Lee, M. S. Lee, W. Liang,
 I. Lotan, N. Nair, B. Peters, E. I. Proynov, P. A. Pieniazek, 
 Y. M. Rhee, J. Ritchie, E. Rosta, C. D. Sherrill, 
 A. C. Simmonett, J. E. Subotnik, H. L. Woodcock III,
 W. Zhang, A. T. Bell, A. K. Chakraborty, D. M. Chipman,
 F. J. Keil, A. Warshel, W. J. Hehre, H. F. Schaefer III,
 J. Kong, A. I. Krylov, P. M. W. Gill, M. Head-Gordon,
 Q-Chem, Version 3.1, Q-Chem, Inc., Pittsburgh, PA (2007).

 Additional authors for Version 3.1: 
 Z. Gan, Y. Zhao, N. E. Schultz, D. Truhlar, E. Epifanovsky and M. Oana.

 Additional authors for Version 3.2: 
 R. Baer, B. R. Brooks, D. Casanova, J.-D. Chai, C.-L. Cheng, 
 C. Cramer, D. Crittenden, A. Ghysels, G. Hawkins, E. G. Hohenstein, 
 C. Kelley, W. Kurlancheek, D. Liotard, E. Livshits, P. Manohar, 
 A. Marenich, D. Neuhauser, R. Olson, M. A. Rohrdanz, K. S. Thanthiriwatte, 
 A. J. W. Thom, V. Vanovschi, C. F. Williams, Q. Wu and Z.-Q. You. 


 Intel X86 Linux Version

 Q-chem begins on Wed Jul  3 20:14:19 2013  

 Parallel job on  1  processors
Processing $rem in /usr/local/qchem/config/preferences.

theFileMan(): MAXOPENFILES=974 MAX_SUB_FILE_NUM=16
Maximum size of a physical file is 2.0 GB, maximum size of a tmp-file is 32.0 GB


--------------------------------------------------------------
User input:
--------------------------------------------------------------

$molecule
0,1
O
C,1,RCO
H,2,RH,1,THETA
H,2,RH,1,THETA,3,180.,0

RCO=1.20648509
THETA=122.37640093
RH=1.11044484

$end

$comment
neutral
$end

$xc_functional
C PBE   1.00
X wPBE  1.00
$end


$rem
SYMMETRY_DECOMPOSITION	0
LRC_DFT                 true
exchange 		general
BASIS                   g3large
omega			450 
JOBTYPE                 opt
mem_static              760
max_scf_cycles          200
scf_final_print         1
sym_ignore              true
$end


--------------------------------------------------------------
 Writing REM_CC_EA            4
 ----------------------------------------------------
       Standard Nuclear Orientation (Angstroms)
    I     Atom         X            Y            Z
 ----------------------------------------------------
    1      O       0.000000     0.000000     0.000000
    2      C       0.000000     0.000000     1.206485
    3      H       0.937825     0.000000     1.801105
    4      H      -0.937825     0.000000     1.801105
 ----------------------------------------------------
 Nuclear Repulsion Energy =    31.2235271196 hartrees
 There are        8 alpha and        8 beta electrons
 Requested basis set is G3large
 There are 32 shells and 104 basis functions

Total QAlloc Memory Limit   2000 MB
Mega-Array Size       743 MB
MEM_STATIC part       760 MB
 A cutoff of  1.0D-11 yielded    524 shell pairs
 There are   5564 function pairs (  6951 Cartesian)
Evaluating contribution to one-electron hamiltonian from nuclear
 Smallest overlap matrix eigenvalue = 1.07E-03
 Multipole matrices computed through 2nd order

  Scale SEOQF with 1.000000e-01/1.000000e-01/1.000000e-01

 Standard Electronic Orientation quadrupole field applied
 Nucleus-field energy     =    -0.0000000016 hartrees
 Guess from superposition of atomic densities
 Warning:  Energy on first SCF cycle will be non-variational
 Long-range K will be added via erf
 Coulomb attenuation parameter = 0.45 bohr**(-1)
 A restricted Kohn-Sham SCF calculation will be
 performed using Pulay DIIS extrapolation
 Exchange:  wPBE + LR-HF      Correlation:  PBE
 Using SG-1 standard quadrature grid
 SCF converges when DIIS error is below 1.0E-08
 Requested basis set is G3large
 There are 32 shells and 104 basis functions
 A cutoff of  1.0D-11 yielded    524 shell pairs
 There are   5564 function pairs (  6951 Cartesian)
 ---------------------------------------
  Cycle       Energy         DIIS Error
 ---------------------------------------
    1    -114.6768591458      4.32E-02
    2    -114.3657283862      8.84E-03
    3    -114.3306187944      1.20E-02
    4    -114.4610949274      6.53E-04
    5    -114.4625748860      2.33E-04
    6    -114.4629112494      8.67E-05
    7    -114.4629844065      3.80E-05
    8    -114.4629996850      1.85E-05
    9    -114.4630034978      6.07E-06
   10    -114.4630038464      9.59E-07
   11    -114.4630038415      1.89E-07
   12    -114.4630038357      4.85E-08
   13    -114.4630038360      1.05E-08
   14    -114.4630038366      2.83E-09 Convergence criterion met
 ---------------------------------------
 One-Electron    Energy =  -217.4183239376
 Total Coulomb   Energy =    86.3598210166
 Alpha Exchange  Energy =    -1.7763255045
 Beta  Exchange  Energy =    -1.7763255045
 DFT   Exchange  Energy =   -10.5593577178
 DFT Correlation Energy =    -0.5160193068
 Nuclear Repu.   Energy =    31.2235271180
 Nuclear Attr.   Energy =  -331.4567204406
 Kinetic         Energy =   114.0383965031
 SCF time:  CPU 31.85 s  wall 33.38 s
 Final Alpha MO Eigenvalues
            1           2           3           4           5           6
    1 -19.0062356 -10.2364502  -1.2215952  -0.7951780  -0.6459214  -0.5955888
            7           8           9          10          11          12
    1  -0.5428046  -0.4035231   0.0396271   0.0398399   0.0641678   0.0949371
           13
    1   0.1220689
 Analysis of SCF Wavefunction
 
 --------------------------------------------------------------
                    Orbital Energies (a.u.)
 --------------------------------------------------------------
 
 Alpha MOs
 -- Occupied --
-19.006 -10.236  -1.222  -0.795  -0.646  -0.596  -0.543  -0.404
 -- Virtual --
  0.040   0.040   0.064   0.095   0.122   0.157   0.161   0.216
  0.266   0.273   0.302   0.355   0.369   0.457   0.554   0.571
  0.622   0.630   0.668   0.686   0.846   0.863   0.956   0.996
  1.078   1.094   1.111   1.192   1.196   1.206   1.329   1.455
  1.520   1.549   1.679   1.802   1.937   2.041   2.290   2.526
  2.564   2.646   2.742   2.985   3.014   3.098   3.115   3.148
  3.217   3.308   3.349   3.368   3.605   3.623   3.786   3.822
  4.131   4.171   4.181   4.214   4.599   4.992   5.068   5.143
  5.175   5.225   5.479   5.541   5.549   5.958   6.314   6.602
  6.909   6.929   6.963   7.263   7.438   7.671  24.457  27.194
 28.022  28.144  40.862  41.036  41.064  41.140  41.221  43.717
 43.770  43.863  43.935  43.963  45.706  45.782  46.497  50.025
 --------------------------------------------------------------
 
          Ground-State Mulliken Net Atomic Charges

     Atom                 Charge (a.u.)
  ----------------------------------------
      1 O                    -0.244067
      2 C                     0.100786
      3 H                     0.071641
      4 H                     0.071641
  ----------------------------------------
  Sum of atomic charges =     0.000000

 -----------------------------------------------------------------
                    Cartesian Multipole Moments
 -----------------------------------------------------------------
    Charge (ESU x 10^10)
                 0.0000
    Dipole Moment (Debye)
         X       0.0000      Y       0.0000      Z       2.5906
       Tot       2.5906
    Quadrupole Moments (Debye-Ang)
        XX     -11.5144     XY       0.0000     YY     -11.6801
        XZ       0.0000     YZ       0.0000     ZZ      -8.5962
    Octapole Moments (Debye-Ang^2)
       XXX       0.0000    XXY       0.0000    XYY       0.0000
       YYY       0.0000    XXZ      -6.9534    XYZ       0.0000
       YYZ      -8.4980    XZZ       0.0000    YZZ       0.0000
       ZZZ     -21.0400
    Hexadecapole Moments (Debye-Ang^3)
      XXXX     -18.1828   XXXY       0.0000   XXYY      -5.1334
      XYYY       0.0000   YYYY     -10.3283   XXXZ       0.0000
      XXYZ       0.0000   XYYZ       0.0000   YYYZ       0.0000
      XXZZ     -14.3323   XYZZ       0.0000   YYZZ     -15.5708
      XZZZ       0.0000   YZZZ       0.0000   ZZZZ     -76.2635
 -----------------------------------------------------------------
 Calculating analytic gradient of the SCF energy
 Gradient of AOints
            1           2           3           4
    1   0.0000001  -0.0000001  -2.4771074   2.4771074
    2  -0.0000001   0.0000000   0.0000001  -0.0000000
    3  11.9098271  -8.4264205  -1.7417033  -1.7417033
 Gradient of XC Energy
            1           2           3           4
    1  -0.0000000   0.0000000   0.1385331  -0.1385331
    2   0.0000000  -0.0000000  -0.0000000   0.0000000
    3  -0.4189418   0.2499500   0.0844959   0.0844959
 Gradient of SCF Energy
            1           2           3           4
    1  -0.0000000   0.0000000   0.0031888  -0.0031888
    2   0.0000000  -0.0000000  -0.0000000  -0.0000000
    3  -0.0254708   0.0154433   0.0050137   0.0050137
 Max gradient component =       2.547E-02
 RMS gradient           =       8.934E-03
 Gradient time:  CPU 8.43 s  wall 8.96 s
 Geometry Optimization Parameters
   NAtoms,    NIC,     NZ,  NCons,   NDum,   NFix, NCnnct, MaxDiis
        4      17       4       0       0       0       0       0


** GEOMETRY OPTIMIZATION IN DELOCALIZED INTERNAL COORDINATES **
   Searching for a Minimum

   Optimization Cycle:   1

                       Coordinates (Angstroms)
     ATOM              X           Y           Z
    1  O           0.000000    0.000000    0.000000
    2  C           0.000000    0.000000    1.206485
    3  H           0.937825    0.000000    1.801105
    4  H          -0.937825    0.000000    1.801105
   Point Group: c1    Number of degrees of freedom:   6


   Energy is   -114.463003837


 Attempting to Generate Delocalized Internal Coordinates

  ***ERROR*** Wrong Number of Internal Coordinates
              Should be:   6  Found:   5
**WARNING** Problems with Internal Coordinates
  Switching to Cartesian Coordinates

 Translations and Rotations Projected Out of Hessian

  6 Hessian modes will be used to form the next step
  Hessian Eigenvalues:
     1.000000    1.000000    1.000000    1.000000    1.000000    1.000000

 Minimum Search - Taking Simple RFO Step
 Searching for Lamda that Minimizes Along All modes
 Value Taken    Lamda =  -0.00095787
 Step Taken.  Stepsize is  0.030920

                             Maximum     Tolerance    Cnvgd?
         Gradient           0.025471      0.000300      NO
         Displacement       0.025446      0.001200      NO
         Energy change     *********      0.000001      NO

 Writing REM_CC_EA            4
 ----------------------------------------------------
       Standard Nuclear Orientation (Angstroms)
    I     Atom         X            Y            Z
 ----------------------------------------------------
    1      O       0.000000     0.000000     0.013466
    2      C       0.000000     0.000000     1.198321
    3      H       0.936139     0.000000     1.798454
    4      H      -0.936139     0.000000     1.798454
 ----------------------------------------------------
 Nuclear Repulsion Energy =    31.6316030543 hartrees
 There are        8 alpha and        8 beta electrons
 Applying Cartesian multipole field
    Component          Value
    ---------          -----
     (2,0,0)        1.00000E-11
     (0,2,0)        2.00000E-11
     (0,0,2)       -3.00000E-11
 Nucleus-field energy     =    -0.0000000016 hartrees
 Requested basis set is G3large
 There are 32 shells and 104 basis functions
 A cutoff of  1.0D-11 yielded    524 shell pairs
 There are   5564 function pairs (  6951 Cartesian)
Evaluating contribution to one-electron hamiltonian from nuclear
 Smallest overlap matrix eigenvalue = 9.86E-04
 Multipole matrices computed through 2nd order
 Guess MOs from SCF MO coefficient file
Reading MOs from coefficient file
Reading MOs from coefficient file
 Long-range K will be added via erf
 Coulomb attenuation parameter = 0.45 bohr**(-1)
 A restricted Kohn-Sham SCF calculation will be
 performed using Pulay DIIS extrapolation
 Exchange:  wPBE + LR-HF      Correlation:  PBE
 Using SG-1 standard quadrature grid
 SCF converges when DIIS error is below 1.0E-08
 Requested basis set is G3large
 There are 32 shells and 104 basis functions
 A cutoff of  1.0D-11 yielded    524 shell pairs
 There are   5564 function pairs (  6951 Cartesian)
 ---------------------------------------
  Cycle       Energy         DIIS Error
 ---------------------------------------
    1    -114.4686397766      1.63E-03
    2    -114.4631388436      2.55E-04
    3    -114.4631798320      1.97E-04
    4    -114.4632097292      5.46E-05
    5    -114.4632124443      1.36E-05
    6    -114.4632127463      2.78E-06
    7    -114.4632127725      5.14E-07
    8    -114.4632127478      1.06E-07
    9    -114.4632127463      1.71E-08
   10    -114.4632127448      4.16E-09 Convergence criterion met
 ---------------------------------------
 One-Electron    Energy =  -218.1922269751
 Total Coulomb   Energy =    86.7446257152
 Alpha Exchange  Energy =    -1.7776221319
 Beta  Exchange  Energy =    -1.7776221319
 DFT   Exchange  Energy =   -10.5749784603
 DFT Correlation Energy =    -0.5169918135
 Nuclear Repu.   Energy =    31.6316030528
 Nuclear Attr.   Energy =  -332.3151790846
 Kinetic         Energy =   114.1229521095
 SCF time:  CPU 22.84 s  wall 23.79 s
 Final Alpha MO Eigenvalues
            1           2           3           4           5           6
    1 -19.0052689 -10.2328151  -1.2330433  -0.7918312  -0.6488368  -0.5994101
            7           8           9          10          11          12
    1  -0.5507191  -0.4015956   0.0400289   0.0445302   0.0647610   0.0949195
           13
    1   0.1236411
 Analysis of SCF Wavefunction
 
 --------------------------------------------------------------
                    Orbital Energies (a.u.)
 --------------------------------------------------------------
 
 Alpha MOs
 -- Occupied --
-19.005 -10.233  -1.233  -0.792  -0.649  -0.599  -0.551  -0.402
 -- Virtual --
  0.040   0.045   0.065   0.095   0.124   0.156   0.161   0.217
  0.265   0.275   0.301   0.356   0.368   0.462   0.557   0.573
  0.622   0.631   0.669   0.692   0.860   0.868   0.954   0.999
  1.077   1.092   1.111   1.189   1.200   1.207   1.335   1.457
  1.523   1.553   1.685   1.809   1.948   2.053   2.304   2.538
  2.569   2.643   2.742   2.991   3.013   3.098   3.113   3.143
  3.216   3.299   3.361   3.364   3.607   3.652   3.783   3.831
  4.136   4.179   4.220   4.224   4.601   4.986   5.074   5.140
  5.176   5.239   5.498   5.553   5.572   6.009   6.389   6.683
  6.912   6.947   6.995   7.261   7.441   7.684  24.487  27.198
 28.023  28.206  40.865  41.046  41.068  41.158  41.234  43.719
 43.772  43.865  43.940  43.976  45.723  45.804  46.535  50.071
 --------------------------------------------------------------
 
          Ground-State Mulliken Net Atomic Charges

     Atom                 Charge (a.u.)
  ----------------------------------------
      1 O                    -0.235273
      2 C                     0.102538
      3 H                     0.066368
      4 H                     0.066368
  ----------------------------------------
  Sum of atomic charges =     0.000000

 -----------------------------------------------------------------
                    Cartesian Multipole Moments
 -----------------------------------------------------------------
    Charge (ESU x 10^10)
                 0.0000
    Dipole Moment (Debye)
         X       0.0000      Y       0.0000      Z       2.4854
       Tot       2.4854
    Quadrupole Moments (Debye-Ang)
        XX     -11.5391     XY       0.0000     YY     -11.6196
        XZ       0.0000     YZ       0.0000     ZZ      -8.7723
    Octapole Moments (Debye-Ang^2)
       XXX       0.0000    XXY       0.0000    XYY       0.0000
       YYY       0.0000    XXZ      -7.1610    XYZ       0.0000
       YYZ      -8.5253    XZZ       0.0000    YZZ       0.0000
       ZZZ     -21.5519
    Hexadecapole Moments (Debye-Ang^3)
      XXXX     -18.3421   XXXY       0.0000   XXYY      -5.1220
      XYYY       0.0000   YYYY     -10.1960   XXXZ       0.0000
      XXYZ       0.0000   XYYZ       0.0000   YYYZ       0.0000
      XXZZ     -14.5865   XYZZ       0.0000   YYZZ     -15.4855
      XZZZ       0.0000   YZZZ       0.0000   ZZZZ     -76.5782
 -----------------------------------------------------------------
 Calculating analytic gradient of the SCF energy
 Gradient of AOints
            1           2           3           4
    1   0.0000000  -0.0000000  -2.4531418   2.4531418
    2   0.0000001  -0.0000001   0.0000000   0.0000000
    3  12.0524153  -8.5923952  -1.7300100  -1.7300100
 Gradient of XC Energy
            1           2           3           4
    1  -0.0000000   0.0000000   0.1369553  -0.1369553
    2  -0.0000000   0.0000000  -0.0000000  -0.0000000
    3  -0.4263291   0.2589924   0.0836684   0.0836684
 Gradient of SCF Energy
            1           2           3           4
    1  -0.0000000  -0.0000000   0.0026944  -0.0026944
    2  -0.0000000   0.0000000  -0.0000000  -0.0000000
    3   0.0121853  -0.0211942   0.0045044   0.0045044
 Max gradient component =       2.119E-02
 RMS gradient           =       7.376E-03
 Gradient time:  CPU 8.55 s  wall 8.71 s
 Geometry Optimization Parameters
   NAtoms,    NIC,     NZ,  NCons,   NDum,   NFix, NCnnct, MaxDiis
        4      17       4       0       0       0       0       0

 Cartesian Hessian Update
 Hessian Updated using BFGS Update


** GEOMETRY OPTIMIZATION IN CARTESIAN COORDINATES **
   Searching for a Minimum

   Optimization Cycle:   2

                       Coordinates (Angstroms)
     ATOM              X           Y           Z
    1  O           0.000000    0.000000    0.013466
    2  C           0.000000    0.000000    1.198321
    3  H           0.936139    0.000000    1.798454
    4  H          -0.936139    0.000000    1.798454
   Point Group: c1    Number of degrees of freedom:   6


   Energy is   -114.463212745


 Translations and Rotations Projected Out of Hessian

  2 Hessian modes will be used to form the next step
  Hessian Eigenvalues:
     0.799982    2.002753

 Minimum Search - Taking Simple RFO Step
 Searching for Lamda that Minimizes Along All modes
 Value Taken    Lamda =  -0.00033559
 Step Taken.  Stepsize is  0.013400

                             Maximum     Tolerance    Cnvgd?
         Gradient           0.021194      0.000300      NO
         Displacement       0.011300      0.001200      NO
         Energy change     -0.000209      0.000001      NO

 Writing REM_CC_EA            4
 ----------------------------------------------------
       Standard Nuclear Orientation (Angstroms)
    I     Atom         X            Y            Z
 ----------------------------------------------------
    1      O       0.000000     0.000000     0.011129
    2      C       0.000000     0.000000     1.204300
    3      H       0.935036     0.000000     1.796633
    4      H      -0.935036     0.000000     1.796633
 ----------------------------------------------------
 Nuclear Repulsion Energy =    31.5090647250 hartrees
 There are        8 alpha and        8 beta electrons
 Applying Cartesian multipole field
    Component          Value
    ---------          -----
     (2,0,0)        1.00000E-11
     (0,2,0)        2.00000E-11
     (0,0,2)       -3.00000E-11
 Nucleus-field energy     =    -0.0000000016 hartrees
 Requested basis set is G3large
 There are 32 shells and 104 basis functions
 A cutoff of  1.0D-11 yielded    524 shell pairs
 There are   5564 function pairs (  6951 Cartesian)
Evaluating contribution to one-electron hamiltonian from nuclear
 Smallest overlap matrix eigenvalue = 1.02E-03
 Multipole matrices computed through 2nd order
 Guess MOs from SCF MO coefficient file
Reading MOs from coefficient file
Reading MOs from coefficient file
 Long-range K will be added via erf
 Coulomb attenuation parameter = 0.45 bohr**(-1)
 A restricted Kohn-Sham SCF calculation will be
 performed using Pulay DIIS extrapolation
 Exchange:  wPBE + LR-HF      Correlation:  PBE
 Using SG-1 standard quadrature grid
 SCF converges when DIIS error is below 1.0E-08
 Requested basis set is G3large
 There are 32 shells and 104 basis functions
 A cutoff of  1.0D-11 yielded    524 shell pairs
 There are   5564 function pairs (  6951 Cartesian)
 ---------------------------------------
  Cycle       Energy         DIIS Error
 ---------------------------------------
    1    -114.4642175627      7.04E-04
    2    -114.4633894281      1.26E-04
    3    -114.4633939568      1.30E-04
    4    -114.4634080955      1.78E-05
    5    -114.4634084636      5.43E-06
    6    -114.4634085324      1.31E-06
    7    -114.4634085376      2.66E-07
    8    -114.4634085516      6.36E-08
    9    -114.4634085527      9.26E-09 Convergence criterion met
 ---------------------------------------
 One-Electron    Energy =  -217.9628874275
 Total Coulomb   Energy =    86.6336422591
 Alpha Exchange  Energy =    -1.7774545125
 Beta  Exchange  Energy =    -1.7774545125
 DFT   Exchange  Energy =   -10.5715747732
 DFT Correlation Energy =    -0.5167443093
 Nuclear Repu.   Energy =    31.5090647234
 Nuclear Attr.   Energy =  -332.0651689539
 Kinetic         Energy =   114.1022815264
 SCF time:  CPU 20.55 s  wall 21.61 s
 Final Alpha MO Eigenvalues
            1           2           3           4           5           6
    1 -19.0051927 -10.2331773  -1.2283787  -0.7939266  -0.6488890  -0.5976087
            7           8           9          10          11          12
    1  -0.5474173  -0.4024087   0.0399270   0.0428346   0.0644105   0.0949980
           13
    1   0.1230071
 Analysis of SCF Wavefunction
 
 --------------------------------------------------------------
                    Orbital Energies (a.u.)
 --------------------------------------------------------------
 
 Alpha MOs
 -- Occupied --
-19.005 -10.233  -1.228  -0.794  -0.649  -0.598  -0.547  -0.402
 -- Virtual --
  0.040   0.043   0.064   0.095   0.123   0.156   0.161   0.218
  0.265   0.275   0.302   0.356   0.369   0.460   0.557   0.574
  0.622   0.631   0.669   0.690   0.854   0.868   0.956   0.998
  1.078   1.094   1.111   1.190   1.202   1.207   1.335   1.457
  1.523   1.554   1.682   1.808   1.945   2.048   2.301   2.533
  2.563   2.643   2.743   2.988   3.015   3.099   3.113   3.146
  3.215   3.303   3.363   3.365   3.605   3.641   3.794   3.835
  4.137   4.186   4.205   4.224   4.610   4.998   5.072   5.142
  5.177   5.236   5.492   5.560   5.565   5.992   6.360   6.654
  6.912   6.943   6.983   7.262   7.441   7.679  24.487  27.198
 28.031  28.183  40.867  41.044  41.068  41.152  41.233  43.719
 43.772  43.864  43.939  43.971  45.717  45.796  46.522  50.054
 --------------------------------------------------------------
 
          Ground-State Mulliken Net Atomic Charges

     Atom                 Charge (a.u.)
  ----------------------------------------
      1 O                    -0.239536
      2 C                     0.100566
      3 H                     0.069485
      4 H                     0.069485
  ----------------------------------------
  Sum of atomic charges =     0.000000

 -----------------------------------------------------------------
                    Cartesian Multipole Moments
 -----------------------------------------------------------------
    Charge (ESU x 10^10)
                 0.0000
    Dipole Moment (Debye)
         X       0.0000      Y       0.0000      Z       2.5308
       Tot       2.5308
    Quadrupole Moments (Debye-Ang)
        XX     -11.5143     XY       0.0000     YY     -11.6341
        XZ       0.0000     YZ       0.0000     ZZ      -8.6891
    Octapole Moments (Debye-Ang^2)
       XXX       0.0000    XXY       0.0000    XYY       0.0000
       YYY       0.0000    XXZ      -7.0835    XYZ       0.0000
       YYZ      -8.5201    XZZ       0.0000    YZZ       0.0000
       ZZZ     -21.3935
    Hexadecapole Moments (Debye-Ang^3)
      XXXX     -18.1806   XXXY       0.0000   XXYY      -5.1069
      XYYY       0.0000   YYYY     -10.2351   XXXZ       0.0000
      XXYZ       0.0000   XYYZ       0.0000   YYYZ       0.0000
      XXZZ     -14.4698   XYZZ       0.0000   YYZZ     -15.4976
      XZZZ       0.0000   YZZZ       0.0000   ZZZZ     -76.4679
 -----------------------------------------------------------------
 Calculating analytic gradient of the SCF energy
 Gradient of AOints
            1           2           3           4
    1   0.0000000   0.0000000  -2.4789798   2.4789798
    2   0.0000001  -0.0000001   0.0000000   0.0000000
    3  11.9892179  -8.5489188  -1.7201495  -1.7201495
 Gradient of XC Energy
            1           2           3           4
    1  -0.0000000   0.0000000   0.1385327  -0.1385327
    2  -0.0000000   0.0000000  -0.0000000  -0.0000000
    3  -0.4228696   0.2560983   0.0833857   0.0833857
 Gradient of SCF Energy
            1           2           3           4
    1   0.0000000  -0.0000000   0.0009617  -0.0009617
    2  -0.0000000   0.0000000  -0.0000000  -0.0000000
    3  -0.0019138  -0.0037736   0.0028437   0.0028437
 Max gradient component =       3.774E-03
 RMS gradient           =       1.730E-03
 Gradient time:  CPU 8.48 s  wall 8.62 s
 Geometry Optimization Parameters
   NAtoms,    NIC,     NZ,  NCons,   NDum,   NFix, NCnnct, MaxDiis
        4      17       4       0       0       0       0       0

 Cartesian Hessian Update
 Hessian Updated using BFGS Update


** GEOMETRY OPTIMIZATION IN CARTESIAN COORDINATES **
   Searching for a Minimum

   Optimization Cycle:   3

                       Coordinates (Angstroms)
     ATOM              X           Y           Z
    1  O           0.000000    0.000000    0.011129
    2  C           0.000000    0.000000    1.204300
    3  H           0.935036    0.000000    1.796633
    4  H          -0.935036    0.000000    1.796633
   Point Group: c1    Number of degrees of freedom:   6


   Energy is   -114.463408553


 Translations and Rotations Projected Out of Hessian

  3 Hessian modes will be used to form the next step
  Hessian Eigenvalues:
     0.643073    0.998600    2.065667

 Minimum Search - Taking Simple RFO Step
 Searching for Lamda that Minimizes Along All modes
 Value Taken    Lamda =  -0.00005458
 Step Taken.  Stepsize is  0.009169

                             Maximum     Tolerance    Cnvgd?
         Gradient           0.003774      0.000300      NO
         Displacement       0.005102      0.001200      NO
         Energy change     -0.000196      0.000001      NO

 Writing REM_CC_EA            4
 ----------------------------------------------------
       Standard Nuclear Orientation (Angstroms)
    I     Atom         X            Y            Z
 ----------------------------------------------------
    1      O       0.000000     0.000000     0.013071
    2      C       0.000000     0.000000     1.207000
    3      H       0.934111     0.000000     1.794312
    4      H      -0.934111     0.000000     1.794312
 ----------------------------------------------------
 Nuclear Repulsion Energy =    31.5226098102 hartrees
 There are        8 alpha and        8 beta electrons
 Applying Cartesian multipole field
    Component          Value
    ---------          -----
     (2,0,0)        1.00000E-11
     (0,2,0)        2.00000E-11
     (0,0,2)       -3.00000E-11
 Nucleus-field energy     =    -0.0000000016 hartrees
 Requested basis set is G3large
 There are 32 shells and 104 basis functions
 A cutoff of  1.0D-11 yielded    524 shell pairs
 There are   5564 function pairs (  6951 Cartesian)
Evaluating contribution to one-electron hamiltonian from nuclear
 Smallest overlap matrix eigenvalue = 1.02E-03
 Multipole matrices computed through 2nd order
 Guess MOs from SCF MO coefficient file
Reading MOs from coefficient file
Reading MOs from coefficient file
 Long-range K will be added via erf
 Coulomb attenuation parameter = 0.45 bohr**(-1)
 A restricted Kohn-Sham SCF calculation will be
 performed using Pulay DIIS extrapolation
 Exchange:  wPBE + LR-HF      Correlation:  PBE
 Using SG-1 standard quadrature grid
 SCF converges when DIIS error is below 1.0E-08
 Requested basis set is G3large
 There are 32 shells and 104 basis functions
 A cutoff of  1.0D-11 yielded    524 shell pairs
 There are   5564 function pairs (  6951 Cartesian)
 ---------------------------------------
  Cycle       Energy         DIIS Error
 ---------------------------------------
    1    -114.4649514735      1.52E-04
    2    -114.4634437899      4.27E-05
    3    -114.4634440197      4.95E-05
    4    -114.4634461393      3.49E-06
    5    -114.4634461653      1.09E-06
    6    -114.4634461689      3.80E-07
    7    -114.4634462019      9.19E-08
    8    -114.4634462006      2.10E-08
    9    -114.4634462015      3.14E-09 Convergence criterion met
 ---------------------------------------
 One-Electron    Energy =  -217.9907060751
 Total Coulomb   Energy =    86.6498578758
 Alpha Exchange  Energy =    -1.7776579553
 Beta  Exchange  Energy =    -1.7776579553
 DFT   Exchange  Energy =   -10.5730847562
 DFT Correlation Energy =    -0.5168071440
 Nuclear Repu.   Energy =    31.5226098087
 Nuclear Attr.   Energy =  -332.0997821458
 Kinetic         Energy =   114.1090760707
 SCF time:  CPU 20.30 s  wall 21.40 s
 Final Alpha MO Eigenvalues
            1           2           3           4           5           6
    1 -19.0048612 -10.2325029  -1.2278060  -0.7945906  -0.6497968  -0.5971818
            7           8           9          10          11          12
    1  -0.5469663  -0.4025018   0.0399602   0.0427541   0.0642852   0.0950536
           13
    1   0.1229547
 Analysis of SCF Wavefunction
 
 --------------------------------------------------------------
                    Orbital Energies (a.u.)
 --------------------------------------------------------------
 
 Alpha MOs
 -- Occupied --
-19.005 -10.233  -1.228  -0.795  -0.650  -0.597  -0.547  -0.403
 -- Virtual --
  0.040   0.043   0.064   0.095   0.123   0.156   0.161   0.218
  0.266   0.275   0.302   0.356   0.369   0.460   0.558   0.576
  0.622   0.631   0.670   0.689   0.853   0.868   0.956   0.998
  1.078   1.096   1.111   1.191   1.204   1.207   1.337   1.457
  1.525   1.556   1.681   1.809   1.945   2.048   2.302   2.533
  2.560   2.642   2.743   2.987   3.016   3.100   3.111   3.148
  3.213   3.303   3.365   3.369   3.603   3.641   3.800   3.840
  4.139   4.191   4.205   4.228   4.618   5.006   5.072   5.143
  5.177   5.238   5.493   5.559   5.575   5.992   6.357   6.652
  6.912   6.943   6.983   7.263   7.442   7.678  24.495  27.199
 28.037  28.182  40.870  41.044  41.069  41.152  41.235  43.719
 43.772  43.865  43.939  43.971  45.716  45.796  46.521  50.053
 --------------------------------------------------------------
 
          Ground-State Mulliken Net Atomic Charges

     Atom                 Charge (a.u.)
  ----------------------------------------
      1 O                    -0.240483
      2 C                     0.099425
      3 H                     0.070529
      4 H                     0.070529
  ----------------------------------------
  Sum of atomic charges =     0.000000

 -----------------------------------------------------------------
                    Cartesian Multipole Moments
 -----------------------------------------------------------------
    Charge (ESU x 10^10)
                 0.0000
    Dipole Moment (Debye)
         X       0.0000      Y       0.0000      Z       2.5375
       Tot       2.5375
    Quadrupole Moments (Debye-Ang)
        XX     -11.5000     XY       0.0000     YY     -11.6298
        XZ       0.0000     YZ       0.0000     ZZ      -8.6732
    Octapole Moments (Debye-Ang^2)
       XXX       0.0000    XXY       0.0000    XYY       0.0000
       YYY       0.0000    XXZ      -7.0782    XYZ       0.0000
       YYZ      -8.5258    XZZ       0.0000    YZZ       0.0000
       ZZZ     -21.4192
    Hexadecapole Moments (Debye-Ang^3)
      XXXX     -18.1005   XXXY       0.0000   XXYY      -5.0936
      XYYY       0.0000   YYYY     -10.2316   XXXZ       0.0000
      XXYZ       0.0000   XYYZ       0.0000   YYYZ       0.0000
      XXZZ     -14.4477   XYZZ       0.0000   YYZZ     -15.4880
      XZZZ       0.0000   YZZZ       0.0000   ZZZZ     -76.5010
 -----------------------------------------------------------------
 Calculating analytic gradient of the SCF energy
 Gradient of AOints
            1           2           3           4
    1  -0.0000000   0.0000000  -2.4944750   2.4944750
    2   0.0000001  -0.0000001   0.0000000   0.0000000
    3  11.9759033  -8.5624848  -1.7067093  -1.7067093
 Gradient of XC Energy
            1           2           3           4
    1   0.0000000   0.0000000   0.1394103  -0.1394103
    2  -0.0000000   0.0000000  -0.0000000  -0.0000000
    3  -0.4220441   0.2564412   0.0828015   0.0828015
 Gradient of SCF Energy
            1           2           3           4
    1  -0.0000000  -0.0000000  -0.0004504   0.0004504
    2  -0.0000000   0.0000000  -0.0000000  -0.0000000
    3  -0.0024281  -0.0002787   0.0013534   0.0013534
 Max gradient component =       2.428E-03
 RMS gradient           =       9.148E-04
 Gradient time:  CPU 8.43 s  wall 8.60 s
 Geometry Optimization Parameters
   NAtoms,    NIC,     NZ,  NCons,   NDum,   NFix, NCnnct, MaxDiis
        4      17       4       0       0       0       0       0

 Cartesian Hessian Update
 Hessian Updated using BFGS Update


** GEOMETRY OPTIMIZATION IN CARTESIAN COORDINATES **
   Searching for a Minimum

   Optimization Cycle:   4

                       Coordinates (Angstroms)
     ATOM              X           Y           Z
    1  O           0.000000    0.000000    0.013071
    2  C           0.000000    0.000000    1.207000
    3  H           0.934111    0.000000    1.794312
    4  H          -0.934111    0.000000    1.794312
   Point Group: c1    Number of degrees of freedom:   6


   Energy is   -114.463446202


 Translations and Rotations Projected Out of Hessian

  3 Hessian modes will be used to form the next step
  Hessian Eigenvalues:
     0.351265    1.027854    2.285840

 Minimum Search - Taking Simple RFO Step
 Searching for Lamda that Minimizes Along All modes
 Value Taken    Lamda =  -0.00002137
 Step Taken.  Stepsize is  0.007556

                             Maximum     Tolerance    Cnvgd?
         Gradient           0.002428      0.000300      NO
         Displacement       0.004272      0.001200      NO
         Energy change     -0.000038      0.000001      NO

 Writing REM_CC_EA            4
 ----------------------------------------------------
       Standard Nuclear Orientation (Angstroms)
    I     Atom         X            Y            Z
 ----------------------------------------------------
    1      O       0.000000     0.000000     0.015332
    2      C       0.000000     0.000000     1.208719
    3      H       0.934061     0.000000     1.792322
    4      H      -0.934061     0.000000     1.792322
 ----------------------------------------------------
 Nuclear Repulsion Energy =    31.5507405594 hartrees
 There are        8 alpha and        8 beta electrons
 Applying Cartesian multipole field
    Component          Value
    ---------          -----
     (2,0,0)        1.00000E-11
     (0,2,0)        2.00000E-11
     (0,0,2)       -3.00000E-11
 Nucleus-field energy     =    -0.0000000016 hartrees
 Requested basis set is G3large
 There are 32 shells and 104 basis functions
 A cutoff of  1.0D-11 yielded    524 shell pairs
 There are   5564 function pairs (  6951 Cartesian)
Evaluating contribution to one-electron hamiltonian from nuclear
 Smallest overlap matrix eigenvalue = 1.02E-03
 Multipole matrices computed through 2nd order
 Guess MOs from SCF MO coefficient file
Reading MOs from coefficient file
Reading MOs from coefficient file
 Long-range K will be added via erf
 Coulomb attenuation parameter = 0.45 bohr**(-1)
 A restricted Kohn-Sham SCF calculation will be
 performed using Pulay DIIS extrapolation
 Exchange:  wPBE + LR-HF      Correlation:  PBE
 Using SG-1 standard quadrature grid
 SCF converges when DIIS error is below 1.0E-08
 Requested basis set is G3large
 There are 32 shells and 104 basis functions
 A cutoff of  1.0D-11 yielded    524 shell pairs
 There are   5564 function pairs (  6951 Cartesian)
 ---------------------------------------
  Cycle       Energy         DIIS Error
 ---------------------------------------
    1    -114.4645034833      7.71E-05
    2    -114.4634584241      2.42E-05
    3    -114.4634585505      2.63E-05
    4    -114.4634591513      2.27E-06
    5    -114.4634591585      8.45E-07
    6    -114.4634591612      2.30E-07
    7    -114.4634591763      5.45E-08
    8    -114.4634591777      7.19E-09 Convergence criterion met
 ---------------------------------------
 One-Electron    Energy =  -218.0457860598
 Total Coulomb   Energy =    86.6789070320
 Alpha Exchange  Energy =    -1.7778422315
 Beta  Exchange  Energy =    -1.7778422315
 DFT   Exchange  Energy =   -10.5747429883
 DFT Correlation Energy =    -0.5168932565
 Nuclear Repu.   Energy =    31.5507405578
 Nuclear Attr.   Energy =  -332.1630794492
 Kinetic         Energy =   114.1172933894
 SCF time:  CPU 18.93 s  wall 19.65 s
 Final Alpha MO Eigenvalues
            1           2           3           4           5           6
    1 -19.0045595 -10.2319017  -1.2279751  -0.7947315  -0.6506065  -0.5970180
            7           8           9          10          11          12
    1  -0.5470405  -0.4024527   0.0400115   0.0429431   0.0642122   0.0950961
           13
    1   0.1230029
 Analysis of SCF Wavefunction
 
 --------------------------------------------------------------
                    Orbital Energies (a.u.)
 --------------------------------------------------------------
 
 Alpha MOs
 -- Occupied --
-19.005 -10.232  -1.228  -0.795  -0.651  -0.597  -0.547  -0.402
 -- Virtual --
  0.040   0.043   0.064   0.095   0.123   0.157   0.161   0.218
  0.266   0.276   0.302   0.356   0.369   0.460   0.558   0.577
  0.622   0.631   0.670   0.689   0.853   0.869   0.957   0.997
  1.079   1.097   1.110   1.191   1.206   1.207   1.338   1.457
  1.525   1.556   1.680   1.810   1.946   2.048   2.304   2.533
  2.559   2.642   2.744   2.987   3.017   3.100   3.110   3.149
  3.212   3.303   3.364   3.373   3.602   3.642   3.805   3.843
  4.139   4.194   4.208   4.230   4.623   5.011   5.072   5.144
  5.178   5.239   5.495   5.560   5.581   5.994   6.359   6.653
  6.913   6.944   6.985   7.263   7.443   7.679  24.501  27.200
 28.040  28.184  40.872  41.045  41.069  41.153  41.237  43.720
 43.772  43.865  43.940  43.972  45.717  45.797  46.523  50.055
 --------------------------------------------------------------
 
          Ground-State Mulliken Net Atomic Charges

     Atom                 Charge (a.u.)
  ----------------------------------------
      1 O                    -0.240674
      2 C                     0.098681
      3 H                     0.070997
      4 H                     0.070997
  ----------------------------------------
  Sum of atomic charges =     0.000000

 -----------------------------------------------------------------
                    Cartesian Multipole Moments
 -----------------------------------------------------------------
    Charge (ESU x 10^10)
                 0.0000
    Dipole Moment (Debye)
         X       0.0000      Y       0.0000      Z       2.5363
       Tot       2.5363
    Quadrupole Moments (Debye-Ang)
        XX     -11.4886     XY       0.0000     YY     -11.6247
        XZ       0.0000     YZ       0.0000     ZZ      -8.6736
    Octapole Moments (Debye-Ang^2)
       XXX       0.0000    XXY       0.0000    XYY       0.0000
       YYY       0.0000    XXZ      -7.0831    XYZ       0.0000
       YYZ      -8.5348    XZZ       0.0000    YZZ       0.0000
       ZZZ     -21.4802
    Hexadecapole Moments (Debye-Ang^3)
      XXXX     -18.0580   XXXY       0.0000   XXYY      -5.0862
      XYYY       0.0000   YYYY     -10.2242   XXXZ       0.0000
      XXYZ       0.0000   XYYZ       0.0000   YYYZ       0.0000
      XXZZ     -14.4435   XYZZ       0.0000   YYZZ     -15.4820
      XZZZ       0.0000   YZZZ       0.0000   ZZZZ     -76.5864
 -----------------------------------------------------------------
 Calculating analytic gradient of the SCF energy
 Gradient of AOints
            1           2           3           4
    1   0.0000000  -0.0000000  -2.5065942   2.5065942
    2   0.0000001  -0.0000001   0.0000000   0.0000000
    3  11.9725383  -8.5860645  -1.6932369  -1.6932369
 Gradient of XC Energy
            1           2           3           4
    1   0.0000000  -0.0000000   0.1400334  -0.1400334
    2  -0.0000000   0.0000000  -0.0000000  -0.0000000
    3  -0.4218047   0.2574843   0.0821602   0.0821602
 Gradient of SCF Energy
            1           2           3           4
    1  -0.0000000  -0.0000000  -0.0012187   0.0012187
    2  -0.0000000   0.0000000  -0.0000000  -0.0000000
    3  -0.0008556   0.0002922   0.0002817   0.0002817
 Max gradient component =       1.219E-03
 RMS gradient           =       5.735E-04
 Gradient time:  CPU 9.12 s  wall 9.24 s
 Geometry Optimization Parameters
   NAtoms,    NIC,     NZ,  NCons,   NDum,   NFix, NCnnct, MaxDiis
        4      17       4       0       0       0       0       0

 Cartesian Hessian Update
 Hessian Updated using BFGS Update


** GEOMETRY OPTIMIZATION IN CARTESIAN COORDINATES **
   Searching for a Minimum

   Optimization Cycle:   5

                       Coordinates (Angstroms)
     ATOM              X           Y           Z
    1  O           0.000000    0.000000    0.015332
    2  C           0.000000    0.000000    1.208719
    3  H           0.934061    0.000000    1.792322
    4  H          -0.934061    0.000000    1.792322
   Point Group: c1    Number of degrees of freedom:   6


   Energy is   -114.463459178


 Translations and Rotations Projected Out of Hessian

  3 Hessian modes will be used to form the next step
  Hessian Eigenvalues:
     0.266816    1.104733    2.197685

 Minimum Search - Taking Simple RFO Step
 Searching for Lamda that Minimizes Along All modes
 Value Taken    Lamda =  -0.00000532
 Step Taken.  Stepsize is  0.003549

                             Maximum     Tolerance    Cnvgd?
         Gradient           0.001219      0.000300      NO
         Displacement       0.001801      0.001200      NO
         Energy change     -0.000013      0.000001      NO

 Writing REM_CC_EA            4
 ----------------------------------------------------
       Standard Nuclear Orientation (Angstroms)
    I     Atom         X            Y            Z
 ----------------------------------------------------
    1      O       0.000000     0.000000     0.016285
    2      C       0.000000     0.000000     1.209332
    3      H       0.934774     0.000000     1.791539
    4      H      -0.934774     0.000000     1.791539
 ----------------------------------------------------
 Nuclear Repulsion Energy =    31.5598280111 hartrees
 There are        8 alpha and        8 beta electrons
 Applying Cartesian multipole field
    Component          Value
    ---------          -----
     (2,0,0)        1.00000E-11
     (0,2,0)        2.00000E-11
     (0,0,2)       -3.00000E-11
 Nucleus-field energy     =    -0.0000000016 hartrees
 Requested basis set is G3large
 There are 32 shells and 104 basis functions
 A cutoff of  1.0D-11 yielded    524 shell pairs
 There are   5564 function pairs (  6951 Cartesian)
Evaluating contribution to one-electron hamiltonian from nuclear
 Smallest overlap matrix eigenvalue = 1.01E-03
 Multipole matrices computed through 2nd order
 Guess MOs from SCF MO coefficient file
Reading MOs from coefficient file
Reading MOs from coefficient file
 Long-range K will be added via erf
 Coulomb attenuation parameter = 0.45 bohr**(-1)
 A restricted Kohn-Sham SCF calculation will be
 performed using Pulay DIIS extrapolation
 Exchange:  wPBE + LR-HF      Correlation:  PBE
 Using SG-1 standard quadrature grid
 SCF converges when DIIS error is below 1.0E-08
 Requested basis set is G3large
 There are 32 shells and 104 basis functions
 A cutoff of  1.0D-11 yielded    524 shell pairs
 There are   5564 function pairs (  6951 Cartesian)
 ---------------------------------------
  Cycle       Energy         DIIS Error
 ---------------------------------------
    1    -114.4635384601      2.68E-05
    2    -114.4634633611      5.66E-06
    3    -114.4634633634      6.08E-06
    4    -114.4634634043      5.91E-07
    5    -114.4634634159      1.87E-07
    6    -114.4634634051      5.51E-08
    7    -114.4634634068      1.24E-08
    8    -114.4634634070      3.24E-09 Convergence criterion met
 ---------------------------------------
 One-Electron    Energy =  -218.0637621980
 Total Coulomb   Energy =    86.6882558731
 Alpha Exchange  Energy =    -1.7778770963
 Beta  Exchange  Energy =    -1.7778770963
 DFT   Exchange  Energy =   -10.5751133422
 DFT Correlation Energy =    -0.5169175570
 Nuclear Repu.   Energy =    31.5598280095
 Nuclear Attr.   Energy =  -332.1830628932
 Kinetic         Energy =   114.1193006952
 SCF time:  CPU 18.00 s  wall 18.52 s
 Final Alpha MO Eigenvalues
            1           2           3           4           5           6
    1 -19.0044510 -10.2317717  -1.2281251  -0.7945669  -0.6508663  -0.5969544
            7           8           9          10          11          12
    1  -0.5471288  -0.4024040   0.0400378   0.0430490   0.0641839   0.0951119
           13
    1   0.1230363
 Analysis of SCF Wavefunction
 
 --------------------------------------------------------------
                    Orbital Energies (a.u.)
 --------------------------------------------------------------
 
 Alpha MOs
 -- Occupied --
-19.004 -10.232  -1.228  -0.795  -0.651  -0.597  -0.547  -0.402
 -- Virtual --
  0.040   0.043   0.064   0.095   0.123   0.157   0.161   0.218
  0.266   0.276   0.302   0.356   0.369   0.460   0.558   0.578
  0.622   0.631   0.670   0.689   0.854   0.870   0.957   0.997
  1.079   1.098   1.110   1.191   1.206   1.208   1.339   1.457
  1.525   1.556   1.680   1.810   1.947   2.048   2.305   2.533
  2.559   2.642   2.744   2.987   3.017   3.100   3.109   3.149
  3.212   3.303   3.364   3.375   3.603   3.642   3.805   3.843
  4.138   4.194   4.209   4.230   4.625   5.012   5.072   5.144
  5.178   5.240   5.495   5.560   5.580   5.994   6.360   6.653
  6.913   6.944   6.985   7.262   7.443   7.679  24.502  27.200
 28.041  28.184  40.872  41.045  41.070  41.153  41.237  43.720
 43.773  43.865  43.940  43.972  45.717  45.798  46.523  50.056
 --------------------------------------------------------------
 
          Ground-State Mulliken Net Atomic Charges

     Atom                 Charge (a.u.)
  ----------------------------------------
      1 O                    -0.240607
      2 C                     0.098498
      3 H                     0.071054
      4 H                     0.071054
  ----------------------------------------
  Sum of atomic charges =     0.000000

 -----------------------------------------------------------------
                    Cartesian Multipole Moments
 -----------------------------------------------------------------
    Charge (ESU x 10^10)
                 0.0000
    Dipole Moment (Debye)
         X       0.0000      Y       0.0000      Z       2.5342
       Tot       2.5342
    Quadrupole Moments (Debye-Ang)
        XX     -11.4832     XY       0.0000     YY     -11.6240
        XZ       0.0000     YZ       0.0000     ZZ      -8.6785
    Octapole Moments (Debye-Ang^2)
       XXX       0.0000    XXY       0.0000    XYY       0.0000
       YYY       0.0000    XXZ      -7.0845    XYZ       0.0000
       YYZ      -8.5412    XZZ       0.0000    YZZ       0.0000
       ZZZ     -21.5196
    Hexadecapole Moments (Debye-Ang^3)
      XXXX     -18.0546   XXXY       0.0000   XXYY      -5.0870
      XYYY       0.0000   YYYY     -10.2229   XXXZ       0.0000
      XXYZ       0.0000   XYYZ       0.0000   YYYZ       0.0000
      XXZZ     -14.4434   XYZZ       0.0000   YYZZ     -15.4850
      XZZZ       0.0000   YZZZ       0.0000   ZZZZ     -76.6616
 -----------------------------------------------------------------
 Calculating analytic gradient of the SCF energy
 Gradient of AOints
            1           2           3           4
    1  -0.0000000   0.0000000  -2.5121127   2.5121127
    2   0.0000001  -0.0000001   0.0000000   0.0000000
    3  11.9719712  -8.5997763  -1.6860974  -1.6860974
 Gradient of XC Energy
            1           2           3           4
    1   0.0000000  -0.0000000   0.1402712  -0.1402712
    2  -0.0000000   0.0000000  -0.0000000  -0.0000000
    3  -0.4217904   0.2582083   0.0817910   0.0817910
 Gradient of SCF Energy
            1           2           3           4
    1   0.0000000  -0.0000000  -0.0011337   0.0011337
    2  -0.0000000   0.0000000  -0.0000000  -0.0000000
    3  -0.0000602   0.0000382   0.0000110   0.0000110
 Max gradient component =       1.134E-03
 RMS gradient           =       4.633E-04
 Gradient time:  CPU 8.56 s  wall 8.74 s
 Geometry Optimization Parameters
   NAtoms,    NIC,     NZ,  NCons,   NDum,   NFix, NCnnct, MaxDiis
        4      17       4       0       0       0       0       0

 Cartesian Hessian Update
 Hessian Updated using BFGS Update


** GEOMETRY OPTIMIZATION IN CARTESIAN COORDINATES **
   Searching for a Minimum

   Optimization Cycle:   6

                       Coordinates (Angstroms)
     ATOM              X           Y           Z
    1  O           0.000000    0.000000    0.016285
    2  C           0.000000    0.000000    1.209332
    3  H           0.934774    0.000000    1.791539
    4  H          -0.934774    0.000000    1.791539
   Point Group: c1    Number of degrees of freedom:   6


   Energy is   -114.463463407


 Translations and Rotations Projected Out of Hessian

  3 Hessian modes will be used to form the next step
  Hessian Eigenvalues:
     0.152184    0.746885    2.323854

 Minimum Search - Taking Simple RFO Step
 Searching for Lamda that Minimizes Along All modes
 Value Taken    Lamda =  -0.00000854
 Step Taken.  Stepsize is  0.006700

                             Maximum     Tolerance    Cnvgd?
         Gradient           0.001134      0.000300      NO
         Displacement       0.003714      0.001200      NO
         Energy change     -0.000004      0.000001      NO

 Writing REM_CC_EA            4
 ----------------------------------------------------
       Standard Nuclear Orientation (Angstroms)
    I     Atom         X            Y            Z
 ----------------------------------------------------
    1      O       0.000000     0.000000     0.017520
    2      C       0.000000     0.000000     1.210289
    3      H       0.936739     0.000000     1.790443
    4      H      -0.936739     0.000000     1.790443
 ----------------------------------------------------
 Nuclear Repulsion Energy =    31.5635400742 hartrees
 There are        8 alpha and        8 beta electrons
 Applying Cartesian multipole field
    Component          Value
    ---------          -----
     (2,0,0)        1.00000E-11
     (0,2,0)        2.00000E-11
     (0,0,2)       -3.00000E-11
 Nucleus-field energy     =    -0.0000000016 hartrees
 Requested basis set is G3large
 There are 32 shells and 104 basis functions
 A cutoff of  1.0D-11 yielded    524 shell pairs
 There are   5564 function pairs (  6951 Cartesian)
Evaluating contribution to one-electron hamiltonian from nuclear
 Smallest overlap matrix eigenvalue = 1.01E-03
 Multipole matrices computed through 2nd order
 Guess MOs from SCF MO coefficient file
Reading MOs from coefficient file
Reading MOs from coefficient file
 Long-range K will be added via erf
 Coulomb attenuation parameter = 0.45 bohr**(-1)
 A restricted Kohn-Sham SCF calculation will be
 performed using Pulay DIIS extrapolation
 Exchange:  wPBE + LR-HF      Correlation:  PBE
 Using SG-1 standard quadrature grid
 SCF converges when DIIS error is below 1.0E-08
 Requested basis set is G3large
 There are 32 shells and 104 basis functions
 A cutoff of  1.0D-11 yielded    524 shell pairs
 There are   5564 function pairs (  6951 Cartesian)
 ---------------------------------------
  Cycle       Energy         DIIS Error
 ---------------------------------------
    1    -114.4630917746      3.56E-05
    2    -114.4634686478      7.13E-06
    3    -114.4634686814      5.88E-06
    4    -114.4634687077      1.33E-06
    5    -114.4634687116      4.13E-07
    6    -114.4634687226      7.05E-08
    7    -114.4634687197      1.81E-08
    8    -114.4634687209      3.85E-09 Convergence criterion met
 ---------------------------------------
 One-Electron    Energy =  -218.0719581979
 Total Coulomb   Energy =    86.6926249587
 Alpha Exchange  Energy =    -1.7778590593
 Beta  Exchange  Energy =    -1.7778590593
 DFT   Exchange  Energy =   -10.5750330997
 DFT Correlation Energy =    -0.5169243362
 Nuclear Repu.   Energy =    31.5635400727
 Nuclear Attr.   Energy =  -332.1911920072
 Kinetic         Energy =   114.1192338094
 SCF time:  CPU 18.07 s  wall 18.61 s
 Final Alpha MO Eigenvalues
            1           2           3           4           5           6
    1 -19.0043235 -10.2317771  -1.2282489  -0.7941159  -0.6511209  -0.5967974
            7           8           9          10          11          12
    1  -0.5471938  -0.4023296   0.0400768   0.0431609   0.0641330   0.0951342
           13
    1   0.1230749
 Analysis of SCF Wavefunction
 
 --------------------------------------------------------------
                    Orbital Energies (a.u.)
 --------------------------------------------------------------
 
 Alpha MOs
 -- Occupied --
-19.004 -10.232  -1.228  -0.794  -0.651  -0.597  -0.547  -0.402
 -- Virtual --
  0.040   0.043   0.064   0.095   0.123   0.157   0.161   0.218
  0.266   0.276   0.302   0.356   0.369   0.460   0.558   0.579
  0.622   0.630   0.670   0.689   0.854   0.870   0.957   0.995
  1.079   1.098   1.109   1.191   1.206   1.209   1.340   1.457
  1.525   1.555   1.679   1.811   1.947   2.048   2.306   2.534
  2.560   2.642   2.744   2.987   3.017   3.100   3.107   3.148
  3.211   3.303   3.364   3.377   3.603   3.643   3.804   3.842
  4.135   4.194   4.209   4.228   4.625   5.013   5.072   5.144
  5.178   5.240   5.496   5.559   5.576   5.992   6.361   6.651
  6.913   6.944   6.985   7.262   7.443   7.679  24.502  27.200
 28.041  28.184  40.872  41.045  41.070  41.153  41.237  43.720
 43.773  43.865  43.940  43.972  45.718  45.798  46.523  50.057
 --------------------------------------------------------------
 
          Ground-State Mulliken Net Atomic Charges

     Atom                 Charge (a.u.)
  ----------------------------------------
      1 O                    -0.240483
      2 C                     0.098336
      3 H                     0.071073
      4 H                     0.071073
  ----------------------------------------
  Sum of atomic charges =     0.000000

 -----------------------------------------------------------------
                    Cartesian Multipole Moments
 -----------------------------------------------------------------
    Charge (ESU x 10^10)
                 0.0000
    Dipole Moment (Debye)
         X       0.0000      Y       0.0000      Z       2.5311
       Tot       2.5311
    Quadrupole Moments (Debye-Ang)
        XX     -11.4736     XY       0.0000     YY     -11.6253
        XZ       0.0000     YZ       0.0000     ZZ      -8.6885
    Octapole Moments (Debye-Ang^2)
       XXX       0.0000    XXY       0.0000    XYY       0.0000
       YYY       0.0000    XXZ      -7.0823    XYZ       0.0000
       YYZ      -8.5538    XZZ       0.0000    YZZ       0.0000
       ZZZ     -21.5874
    Hexadecapole Moments (Debye-Ang^3)
      XXXX     -18.0634   XXXY       0.0000   XXYY      -5.0929
      XYYY       0.0000   YYYY     -10.2253   XXXZ       0.0000
      XXYZ       0.0000   XYYZ       0.0000   YYYZ       0.0000
      XXZZ     -14.4408   XYZZ       0.0000   YYZZ     -15.4973
      XZZZ       0.0000   YZZZ       0.0000   ZZZZ     -76.8170
 -----------------------------------------------------------------
 Calculating analytic gradient of the SCF energy
 Gradient of AOints
            1           2           3           4
    1  -0.0000000  -0.0000000  -2.5214308   2.5214308
    2   0.0000001  -0.0000001   0.0000000   0.0000000
    3  11.9696701  -8.6222778  -1.6736962  -1.6736962
 Gradient of XC Energy
            1           2           3           4
    1   0.0000000  -0.0000000   0.1406329  -0.1406329
    2  -0.0000000   0.0000000  -0.0000000  -0.0000000
    3  -0.4217436   0.2594898   0.0811269   0.0811269
 Gradient of SCF Energy
            1           2           3           4
    1  -0.0000000  -0.0000000  -0.0005242   0.0005242
    2  -0.0000000   0.0000000  -0.0000000  -0.0000000
    3   0.0006529  -0.0002770  -0.0001880  -0.0001880
 Max gradient component =       6.529E-04
 RMS gradient           =       3.059E-04
 Gradient time:  CPU 8.47 s  wall 8.61 s
 Geometry Optimization Parameters
   NAtoms,    NIC,     NZ,  NCons,   NDum,   NFix, NCnnct, MaxDiis
        4      17       4       0       0       0       0       0

 Cartesian Hessian Update
 Hessian Updated using BFGS Update


** GEOMETRY OPTIMIZATION IN CARTESIAN COORDINATES **
   Searching for a Minimum

   Optimization Cycle:   7

                       Coordinates (Angstroms)
     ATOM              X           Y           Z
    1  O           0.000000    0.000000    0.017520
    2  C           0.000000    0.000000    1.210289
    3  H           0.936739    0.000000    1.790443
    4  H          -0.936739    0.000000    1.790443
   Point Group: c1    Number of degrees of freedom:   6


   Energy is   -114.463468721


 Translations and Rotations Projected Out of Hessian

  3 Hessian modes will be used to form the next step
  Hessian Eigenvalues:
     0.136406    0.610028    2.396636

 Minimum Search - Taking Simple RFO Step
 Searching for Lamda that Minimizes Along All modes
 Value Taken    Lamda =  -0.00000173
 Step Taken.  Stepsize is  0.002450

                             Maximum     Tolerance    Cnvgd?
         Gradient           0.000653      0.000300      NO
         Displacement       0.001689      0.001200      NO
         Energy change     -0.000005      0.000001      NO

 Writing REM_CC_EA            4
 ----------------------------------------------------
       Standard Nuclear Orientation (Angstroms)
    I     Atom         X            Y            Z
 ----------------------------------------------------
    1      O       0.000000     0.000000     0.017567
    2      C       0.000000     0.000000     1.210506
    3      H       0.937633     0.000000     1.790311
    4      H      -0.937633     0.000000     1.790311
 ----------------------------------------------------
 Nuclear Repulsion Energy =    31.5566827687 hartrees
 There are        8 alpha and        8 beta electrons
 Applying Cartesian multipole field
    Component          Value
    ---------          -----
     (2,0,0)        1.00000E-11
     (0,2,0)        2.00000E-11
     (0,0,2)       -3.00000E-11
 Nucleus-field energy     =    -0.0000000016 hartrees
 Requested basis set is G3large
 There are 32 shells and 104 basis functions
 A cutoff of  1.0D-11 yielded    524 shell pairs
 There are   5564 function pairs (  6951 Cartesian)
Evaluating contribution to one-electron hamiltonian from nuclear
 Smallest overlap matrix eigenvalue = 1.01E-03
 Multipole matrices computed through 2nd order
 Guess MOs from SCF MO coefficient file
Reading MOs from coefficient file
Reading MOs from coefficient file
 Long-range K will be added via erf
 Coulomb attenuation parameter = 0.45 bohr**(-1)
 A restricted Kohn-Sham SCF calculation will be
 performed using Pulay DIIS extrapolation
 Exchange:  wPBE + LR-HF      Correlation:  PBE
 Using SG-1 standard quadrature grid
 SCF converges when DIIS error is below 1.0E-08
 Requested basis set is G3large
 There are 32 shells and 104 basis functions
 A cutoff of  1.0D-11 yielded    524 shell pairs
 There are   5564 function pairs (  6951 Cartesian)
 ---------------------------------------
  Cycle       Energy         DIIS Error
 ---------------------------------------
    1    -114.4630923543      2.04E-05
    2    -114.4634697465      4.70E-06
    3    -114.4634697728      2.40E-06
    4    -114.4634697774      5.69E-07
    5    -114.4634697677      3.55E-07
    6    -114.4634697662      3.47E-08
    7    -114.4634697639      4.41E-09 Convergence criterion met
 ---------------------------------------
 One-Electron    Energy =  -218.0591811453
 Total Coulomb   Energy =    86.6861259250
 Alpha Exchange  Energy =    -1.7778085237
 Beta  Exchange  Energy =    -1.7778085237
 DFT   Exchange  Energy =   -10.5745763309
 DFT Correlation Energy =    -0.5169039325
 Nuclear Repu.   Energy =    31.5566827672
 Nuclear Attr.   Energy =  -332.1762254724
 Kinetic         Energy =   114.1170443271
 SCF time:  CPU 15.88 s  wall 16.38 s
 Final Alpha MO Eigenvalues
            1           2           3           4           5           6
    1 -19.0043266 -10.2319128  -1.2281679  -0.7939259  -0.6510722  -0.5967193
            7           8           9          10          11          12
    1  -0.5471357  -0.4023232   0.0400818   0.0431352   0.0641171   0.0951373
           13
    1   0.1230688
 Analysis of SCF Wavefunction
 
 --------------------------------------------------------------
                    Orbital Energies (a.u.)
 --------------------------------------------------------------
 
 Alpha MOs
 -- Occupied --
-19.004 -10.232  -1.228  -0.794  -0.651  -0.597  -0.547  -0.402
 -- Virtual --
  0.040   0.043   0.064   0.095   0.123   0.157   0.161   0.218
  0.266   0.276   0.302   0.356   0.369   0.460   0.557   0.579
  0.622   0.630   0.670   0.689   0.854   0.870   0.956   0.994
  1.079   1.098   1.108   1.191   1.206   1.209   1.340   1.457
  1.524   1.554   1.678   1.810   1.947   2.048   2.306   2.534
  2.560   2.642   2.744   2.987   3.017   3.100   3.106   3.148
  3.211   3.303   3.364   3.378   3.603   3.643   3.803   3.841
  4.134   4.194   4.209   4.226   4.624   5.013   5.072   5.144
  5.178   5.239   5.495   5.559   5.573   5.990   6.361   6.649
  6.913   6.944   6.985   7.262   7.443   7.679  24.501  27.200
 28.040  28.183  40.872  41.045  41.070  41.153  41.236  43.720
 43.773  43.865  43.940  43.972  45.718  45.798  46.523  50.056
 --------------------------------------------------------------
 
          Ground-State Mulliken Net Atomic Charges

     Atom                 Charge (a.u.)
  ----------------------------------------
      1 O                    -0.240478
      2 C                     0.098371
      3 H                     0.071054
      4 H                     0.071054
  ----------------------------------------
  Sum of atomic charges =     0.000000

 -----------------------------------------------------------------
                    Cartesian Multipole Moments
 -----------------------------------------------------------------
    Charge (ESU x 10^10)
                 0.0000
    Dipole Moment (Debye)
         X       0.0000      Y       0.0000      Z       2.5310
       Tot       2.5310
    Quadrupole Moments (Debye-Ang)
        XX     -11.4711     XY       0.0000     YY     -11.6273
        XZ       0.0000     YZ       0.0000     ZZ      -8.6912
    Octapole Moments (Debye-Ang^2)
       XXX       0.0000    XXY       0.0000    XYY       0.0000
       YYY       0.0000    XXZ      -7.0787    XYZ       0.0000
       YYZ      -8.5576    XZZ       0.0000    YZZ       0.0000
       ZZZ     -21.6027
    Hexadecapole Moments (Debye-Ang^3)
      XXXX     -18.0728   XXXY       0.0000   XXYY      -5.0968
      XYYY       0.0000   YYYY     -10.2288   XXXZ       0.0000
      XXYZ       0.0000   XYYZ       0.0000   YYYZ       0.0000
      XXZZ     -14.4379   XYZZ       0.0000   YYZZ     -15.5045
      XZZZ       0.0000   YZZZ       0.0000   ZZZZ     -76.8687
 -----------------------------------------------------------------
 Calculating analytic gradient of the SCF energy
 Gradient of AOints
            1           2           3           4
    1  -0.0000000  -0.0000000  -2.5237662   2.5237662
    2   0.0000001  -0.0000001   0.0000000   0.0000000
    3  11.9679140  -8.6267319  -1.6705910  -1.6705910
 Gradient of XC Energy
            1           2           3           4
    1   0.0000000  -0.0000000   0.1407045  -0.1407045
    2  -0.0000000   0.0000000  -0.0000000  -0.0000000
    3  -0.4216952   0.2597970   0.0809491   0.0809491
 Gradient of SCF Energy
            1           2           3           4
    1   0.0000000   0.0000000  -0.0001237   0.0001237
    2  -0.0000000   0.0000000  -0.0000000  -0.0000000
    3   0.0003456  -0.0001560  -0.0000948  -0.0000948
 Max gradient component =       3.456E-04
 RMS gradient           =       1.266E-04
 Gradient time:  CPU 8.59 s  wall 8.68 s
 Geometry Optimization Parameters
   NAtoms,    NIC,     NZ,  NCons,   NDum,   NFix, NCnnct, MaxDiis
        4      17       4       0       0       0       0       0

 Cartesian Hessian Update
 Hessian Updated using BFGS Update


** GEOMETRY OPTIMIZATION IN CARTESIAN COORDINATES **
   Searching for a Minimum

   Optimization Cycle:   8

                       Coordinates (Angstroms)
     ATOM              X           Y           Z
    1  O           0.000000    0.000000    0.017567
    2  C           0.000000    0.000000    1.210506
    3  H           0.937633    0.000000    1.790311
    4  H          -0.937633    0.000000    1.790311
   Point Group: c1    Number of degrees of freedom:   6


   Energy is   -114.463469764


 Translations and Rotations Projected Out of Hessian

  3 Hessian modes will be used to form the next step
  Hessian Eigenvalues:
     0.149940    0.459006    2.222292

 Minimum Search - Taking Simple RFO Step
 Searching for Lamda that Minimizes Along All modes
 Value Taken    Lamda =   0.00000000
 Step Taken.  Stepsize is  0.000645

                             Maximum     Tolerance    Cnvgd?
         Gradient           0.000346      0.000300      NO
         Displacement       0.000343      0.001200     YES
         Energy change     -0.000001      0.000001      NO

 Writing REM_CC_EA            4
 ----------------------------------------------------
       Standard Nuclear Orientation (Angstroms)
    I     Atom         X            Y            Z
 ----------------------------------------------------
    1      O       0.000000     0.000000     0.017395
    2      C       0.000000     0.000000     1.210478
    3      H       0.937814     0.000000     1.790411
    4      H      -0.937814     0.000000     1.790411
 ----------------------------------------------------
 Nuclear Repulsion Energy =    31.5521967199 hartrees
 There are        8 alpha and        8 beta electrons
 Applying Cartesian multipole field
    Component          Value
    ---------          -----
     (2,0,0)        1.00000E-11
     (0,2,0)        2.00000E-11
     (0,0,2)       -3.00000E-11
 Nucleus-field energy     =    -0.0000000016 hartrees
 Requested basis set is G3large
 There are 32 shells and 104 basis functions
 A cutoff of  1.0D-11 yielded    524 shell pairs
 There are   5564 function pairs (  6951 Cartesian)
Evaluating contribution to one-electron hamiltonian from nuclear
 Smallest overlap matrix eigenvalue = 1.01E-03
 Multipole matrices computed through 2nd order
 Guess MOs from SCF MO coefficient file
Reading MOs from coefficient file
Reading MOs from coefficient file
 Long-range K will be added via erf
 Coulomb attenuation parameter = 0.45 bohr**(-1)
 A restricted Kohn-Sham SCF calculation will be
 performed using Pulay DIIS extrapolation
 Exchange:  wPBE + LR-HF      Correlation:  PBE
 Using SG-1 standard quadrature grid
 SCF converges when DIIS error is below 1.0E-08
 Requested basis set is G3large
 There are 32 shells and 104 basis functions
 A cutoff of  1.0D-11 yielded    524 shell pairs
 There are   5564 function pairs (  6951 Cartesian)
 ---------------------------------------
  Cycle       Energy         DIIS Error
 ---------------------------------------
    1    -114.4633220373      1.13E-05
    2    -114.4634698947      2.28E-06
    3    -114.4634698985      1.53E-06
    4    -114.4634698965      4.97E-07
    5    -114.4634698847      1.09E-07
    6    -114.4634698868      1.59E-08
    7    -114.4634698853      4.06E-09 Convergence criterion met
 ---------------------------------------
 One-Electron    Energy =  -218.0506170967
 Total Coulomb   Energy =    86.6817420244
 Alpha Exchange  Energy =    -1.7777832912
 Beta  Exchange  Energy =    -1.7777832912
 DFT   Exchange  Energy =   -10.5743336059
 DFT Correlation Energy =    -0.5168913430
 Nuclear Repu.   Energy =    31.5521967183
 Nuclear Attr.   Energy =  -332.1664437810
 Kinetic         Energy =   114.1158266843
 SCF time:  CPU 15.82 s  wall 16.40 s
 Final Alpha MO Eigenvalues
            1           2           3           4           5           6
    1 -19.0043485 -10.2319873  -1.2280996  -0.7938941  -0.6510051  -0.5966995
            7           8           9          10          11          12
    1  -0.5470905  -0.4023322   0.0400783   0.0431018   0.0641161   0.0951355
           13
    1   0.1230587
 Analysis of SCF Wavefunction
 
 --------------------------------------------------------------
                    Orbital Energies (a.u.)
 --------------------------------------------------------------
 
 Alpha MOs
 -- Occupied --
-19.004 -10.232  -1.228  -0.794  -0.651  -0.597  -0.547  -0.402
 -- Virtual --
  0.040   0.043   0.064   0.095   0.123   0.157   0.161   0.218
  0.266   0.276   0.302   0.356   0.369   0.459   0.557   0.579
  0.622   0.630   0.670   0.689   0.854   0.870   0.956   0.994
  1.079   1.098   1.108   1.191   1.206   1.209   1.339   1.457
  1.524   1.554   1.678   1.810   1.947   2.048   2.306   2.534
  2.560   2.642   2.744   2.987   3.017   3.100   3.106   3.148
  3.212   3.303   3.365   3.377   3.603   3.643   3.802   3.840
  4.134   4.194   4.208   4.226   4.624   5.013   5.072   5.143
  5.178   5.239   5.495   5.558   5.573   5.990   6.360   6.648
  6.913   6.944   6.985   7.262   7.443   7.679  24.500  27.200
 28.040  28.182  40.872  41.045  41.069  41.153  41.236  43.720
 43.773  43.865  43.940  43.972  45.717  45.797  46.523  50.056
 --------------------------------------------------------------
 
          Ground-State Mulliken Net Atomic Charges

     Atom                 Charge (a.u.)
  ----------------------------------------
      1 O                    -0.240500
      2 C                     0.098414
      3 H                     0.071043
      4 H                     0.071043
  ----------------------------------------
  Sum of atomic charges =     0.000000

 -----------------------------------------------------------------
                    Cartesian Multipole Moments
 -----------------------------------------------------------------
    Charge (ESU x 10^10)
                 0.0000
    Dipole Moment (Debye)
         X       0.0000      Y       0.0000      Z       2.5314
       Tot       2.5314
    Quadrupole Moments (Debye-Ang)
        XX     -11.4711     XY       0.0000     YY     -11.6282
        XZ       0.0000     YZ       0.0000     ZZ      -8.6911
    Octapole Moments (Debye-Ang^2)
       XXX       0.0000    XXY       0.0000    XYY       0.0000
       YYY       0.0000    XXZ      -7.0769    XYZ       0.0000
       YYZ      -8.5577    XZZ       0.0000    YZZ       0.0000
       ZZZ     -21.6002
    Hexadecapole Moments (Debye-Ang^3)
      XXXX     -18.0765   XXXY       0.0000   XXYY      -5.0980
      XYYY       0.0000   YYYY     -10.2304   XXXZ       0.0000
      XXYZ       0.0000   XYYZ       0.0000   YYYZ       0.0000
      XXZZ     -14.4367   XYZZ       0.0000   YYZZ     -15.5066
      XZZZ       0.0000   YZZZ       0.0000   ZZZZ     -76.8725
 -----------------------------------------------------------------
 Calculating analytic gradient of the SCF energy
 Gradient of AOints
            1           2           3           4
    1  -0.0000000   0.0000000  -2.5236056   2.5236056
    2   0.0000001  -0.0000001   0.0000000   0.0000000
    3  11.9672597  -8.6255799  -1.6708399  -1.6708399
 Gradient of XC Energy
            1           2           3           4
    1   0.0000000  -0.0000000   0.1406883  -0.1406883
    2  -0.0000000   0.0000000  -0.0000000  -0.0000000
    3  -0.4216731   0.2597608   0.0809561   0.0809561
 Gradient of SCF Energy
            1           2           3           4
    1  -0.0000000   0.0000000  -0.0000004   0.0000004
    2  -0.0000000   0.0000000  -0.0000000  -0.0000000
    3   0.0000507  -0.0000250  -0.0000129  -0.0000129
 Max gradient component =       5.073E-05
 RMS gradient           =       1.715E-05
 Gradient time:  CPU 8.53 s  wall 8.65 s
 Geometry Optimization Parameters
   NAtoms,    NIC,     NZ,  NCons,   NDum,   NFix, NCnnct, MaxDiis
        4      17       4       0       0       0       0       0

 Cartesian Hessian Update
 Hessian Updated using BFGS Update


** GEOMETRY OPTIMIZATION IN CARTESIAN COORDINATES **
   Searching for a Minimum

   Optimization Cycle:   9

                       Coordinates (Angstroms)
     ATOM              X           Y           Z
    1  O           0.000000    0.000000    0.017395
    2  C           0.000000    0.000000    1.210478
    3  H           0.937814    0.000000    1.790411
    4  H          -0.937814    0.000000    1.790411
   Point Group: c1    Number of degrees of freedom:   6


   Energy is   -114.463469885


 Translations and Rotations Projected Out of Hessian

  3 Hessian modes will be used to form the next step
  Hessian Eigenvalues:
     0.152710    0.430387    2.116344

 Minimum Search - Taking Simple RFO Step
 Searching for Lamda that Minimizes Along All modes
 Value Taken    Lamda =   0.00000000
 Step Taken.  Stepsize is  0.000129

                             Maximum     Tolerance    Cnvgd?
         Gradient           0.000051      0.000300     YES
         Displacement       0.000080      0.001200     YES
         Energy change      0.000000      0.000001     YES


                       Distance Matrix (Angstroms)
             O (  1)   C (  2)   H (  3)
   C (  2)  1.193084
   H (  3)  2.005762  1.102641
   H (  4)  2.005762  1.102641  1.875628
 


 ******************************
 **  OPTIMIZATION CONVERGED  **
 ******************************
 Analysis of SCF Wavefunction
 
 --------------------------------------------------------------
                    Orbital Energies (a.u.)
 --------------------------------------------------------------
 
 Alpha MOs
 -- Occupied --
-19.004 -10.232  -1.228  -0.794  -0.651  -0.597  -0.547  -0.402
 -- Virtual --
  0.040   0.043   0.064   0.095   0.123   0.157   0.161   0.218
  0.266   0.276   0.302   0.356   0.369   0.459   0.557   0.579
  0.622   0.630   0.670   0.689   0.854   0.870   0.956   0.994
  1.079   1.098   1.108   1.191   1.206   1.209   1.339   1.457
  1.524   1.554   1.678   1.810   1.947   2.048   2.306   2.534
  2.560   2.642   2.744   2.987   3.017   3.100   3.106   3.148
  3.212   3.303   3.365   3.377   3.603   3.643   3.802   3.840
  4.134   4.194   4.208   4.226   4.624   5.013   5.072   5.143
  5.178   5.239   5.495   5.558   5.573   5.990   6.360   6.648
  6.913   6.944   6.985   7.262   7.443   7.679  24.500  27.200
 28.040  28.182  40.872  41.045  41.069  41.153  41.236  43.720
 43.773  43.865  43.940  43.972  45.717  45.797  46.523  50.056
 --------------------------------------------------------------
 
          Ground-State Mulliken Net Atomic Charges

     Atom                 Charge (a.u.)
  ----------------------------------------
      1 O                    -0.240500
      2 C                     0.098414
      3 H                     0.071043
      4 H                     0.071043
  ----------------------------------------
  Sum of atomic charges =     0.000000

 -----------------------------------------------------------------
                    Cartesian Multipole Moments
 -----------------------------------------------------------------
    Charge (ESU x 10^10)
                 0.0000
    Dipole Moment (Debye)
         X       0.0000      Y       0.0000      Z       2.5314
       Tot       2.5314
    Quadrupole Moments (Debye-Ang)
        XX     -11.4711     XY       0.0000     YY     -11.6282
        XZ       0.0000     YZ       0.0000     ZZ      -8.6911
    Octapole Moments (Debye-Ang^2)
       XXX       0.0000    XXY       0.0000    XYY       0.0000
       YYY       0.0000    XXZ      -7.0769    XYZ       0.0000
       YYZ      -8.5577    XZZ       0.0000    YZZ       0.0000
       ZZZ     -21.6002
    Hexadecapole Moments (Debye-Ang^3)
      XXXX     -18.0765   XXXY       0.0000   XXYY      -5.0980
      XYYY       0.0000   YYYY     -10.2304   XXXZ       0.0000
      XXYZ       0.0000   XYYZ       0.0000   YYYZ       0.0000
      XXZZ     -14.4367   XYZZ       0.0000   YYZZ     -15.5066
      XZZZ       0.0000   YZZZ       0.0000   ZZZZ     -76.8725
 -----------------------------------------------------------------
 Total job time:  269.39s(wall), 260.13s(cpu) 
 Wed Jul  3 20:18:49 2013

        *************************************************************
        *                                                           *
        *  Thank you very much for using Q-Chem.  Have a nice day.  *
        *                                                           *
        *************************************************************


0 sent ACK to 0 
now end server 0 ... 
 
**********************************************************************
Job 2 of 2 
**********************************************************************
 
Process 0 of 1 is on cl011.stfx.acenet.ca - thread support 1
initial socket setup ...start
initial socket setup ...done 
now start server 0 ... 

cmd = /usr/bin/ssh clhead /usr/local/qchem/bin/get_hostid 272071649 > /scratch/tmp/6060353.1.short.q/qchem28554/lic.dat
                  Welcome to Q-Chem
     A Quantum Leap Into The Future Of Chemistry

 Y. Shao, L. Fusti-Molnar, Y. Jung, J. Kussmann, C. Ochsenfeld,
 S. T. Brown, A. T. B. Gilbert, L. V. Slipchenko,S. V. Levchenko,
 D. P. O'Neill, R. A. DiStasio Jr., R. C. Lochan, T. Wang,
 G. J. O. Beran, N. A. Besley, J. M. Herbert, C. Y. Lin,
 T. Van Voorhis, S. H. Chien, A. Sodt, R. P. Steele, 
 V. A. Rassolov, P. E. Maslen, P. P. Korambath, R. D. Adamson,
 B. Austin, J. Baker, E. F. C. Byrd, H. Dachsel, R. J. Doerksen,
 A. Dreuw, B. D. Dunietz, A. D. Dutoi, T. R. Furlani,
 S. R. Gwaltney, A. Heyden, S. Hirata, C.-P. Hsu, G. Kedziora,
 R. Z. Khaliullin, P. Klunzinger, A. M. Lee, M. S. Lee, W. Liang,
 I. Lotan, N. Nair, B. Peters, E. I. Proynov, P. A. Pieniazek, 
 Y. M. Rhee, J. Ritchie, E. Rosta, C. D. Sherrill, 
 A. C. Simmonett, J. E. Subotnik, H. L. Woodcock III,
 W. Zhang, A. T. Bell, A. K. Chakraborty, D. M. Chipman,
 F. J. Keil, A. Warshel, W. J. Hehre, H. F. Schaefer III,
[...]
  1.524   1.554   1.678   1.810   1.947   2.048   2.306   2.534
  2.561   2.642   2.744   2.987   3.017   3.100   3.107   3.148
  3.212   3.303   3.365   3.377   3.603   3.643   3.802   3.840
  4.134   4.193   4.208   4.226   4.623   5.012   5.072   5.143
  5.178   5.239   5.495   5.558   5.572   5.990   6.360   6.648
  6.913   6.944   6.984   7.262   7.443   7.679  24.499  27.199
 28.039  28.182  40.872  41.045  41.069  41.153  41.236  43.720
 43.773  43.865  43.940  43.972  45.717  45.797  46.523  50.056
 --------------------------------------------------------------
 
          Ground-State Mulliken Net Atomic Charges

     Atom                 Charge (a.u.)
  ----------------------------------------
      1 O                    -0.240448
      2 C                     0.098519
      3 H                     0.071037
      4 H                     0.070892
  ----------------------------------------
  Sum of atomic charges =     0.000000

 -----------------------------------------------------------------
                    Cartesian Multipole Moments
 -----------------------------------------------------------------
    Charge (ESU x 10^10)
                 0.0000
    Dipole Moment (Debye)
         X       0.0003      Y       0.0000      Z       2.5312
       Tot       2.5312
    Quadrupole Moments (Debye-Ang)
        XX     -11.4727     XY       0.0000     YY     -11.6287
        XZ      -0.0003     YZ       0.0000     ZZ      -8.6903
    Octapole Moments (Debye-Ang^2)
       XXX       0.0020    XXY       0.0000    XYY       0.0006
       YYY       0.0000    XXZ      -7.0797    XYZ       0.0000
       YYZ      -8.5595    XZZ      -0.0013    YZZ       0.0000
       ZZZ     -21.6004
    Hexadecapole Moments (Debye-Ang^3)
      XXXX     -18.0825   XXXY       0.0000   XXYY      -5.0989
      XYYY       0.0000   YYYY     -10.2309   XXXZ       0.0041
      XXYZ       0.0000   XYYZ       0.0017   YYYZ       0.0000
      XXZZ     -14.4414   XYZZ       0.0000   YYZZ     -15.5113
      XZZZ      -0.0016   YZZZ       0.0000   ZZZZ     -76.8838
 -----------------------------------------------------------------
 Calculating analytic gradient of the SCF energy
 Gradient of AOints
            1           2           3           4
    1  -0.0008860   0.0029036  -2.5229719   2.5209543
    2   0.0000000  -0.0000000  -0.0000000   0.0000000
    3  11.9681732  -8.6230194  -1.6709146  -1.6742393
 Gradient of XC Energy
            1           2           3           4
    1   0.0000470  -0.0001790   0.1406689  -0.1405369
    2   0.0000000   0.0000000   0.0000000  -0.0000000
    3  -0.4217284   0.2596520   0.0809584   0.0811180
 Gradient of SCF Energy
            1           2           3           4
    1   0.0000716   0.0001669  -0.0000224  -0.0002161
    2   0.0000000  -0.0000000  -0.0000000  -0.0000000
    3  -0.0000297  -0.0002175   0.0000042   0.0002430
 Max gradient component =       2.430E-04
 RMS gradient           =       1.250E-04
 Gradient time:  CPU 8.49 s  wall 8.62 s
 Writing REM_CC_EA            4
 ----------------------------------------------------
       Standard Nuclear Orientation (Angstroms)
    I     Atom         X            Y            Z
 ----------------------------------------------------
    1      O       0.000000     0.000000     0.017395
    2      C       0.000000     0.000000     1.210478
    3      H       0.937814     0.000000     1.790411
    4      H      -0.937814     0.000000     1.789411
 ----------------------------------------------------
 Nuclear Repulsion Energy =    31.5545005027 hartrees
 There are        8 alpha and        8 beta electrons

                       Distance Matrix (Angstroms)
             O (  1)   C (  2)   H (  3)
   C (  2)  1.193084
   H (  3)  2.005762  1.102641
   H (  4)  2.004878  1.102115  1.875629
 
 Requested basis set is G3large
 There are 32 shells and 104 basis functions
 A cutoff of  1.0D-11 yielded    524 shell pairs
 There are   5564 function pairs (  6951 Cartesian)
Evaluating contribution to one-electron hamiltonian from nuclear
 Smallest overlap matrix eigenvalue = 1.01E-03
 Multipole matrices computed through 2nd order
 Guess MOs from SCF MO coefficient file
Reading MOs from coefficient file
Reading MOs from coefficient file
 Long-range K will be added via erf
 Coulomb attenuation parameter = 0.45 bohr**(-1)
 A restricted Kohn-Sham SCF calculation will be
 performed using Pulay DIIS extrapolation
 Exchange:  wPBE + LR-HF      Correlation:  PBE
 Using SG-1 standard quadrature grid
 SCF converges when DIIS error is below 1.0E-08
 ---------------------------------------
  Cycle       Energy         DIIS Error
 ---------------------------------------
    1    -114.4637043626      3.31E-05
    2    -114.4634695640      7.33E-06
    3    -114.4634695697      8.49E-06
    4    -114.4634696337      6.22E-07
    5    -114.4634696337      2.08E-07
    6    -114.4634696214      7.81E-08
    7    -114.4634696294      1.66E-08
    8    -114.4634696295      3.16E-09 Convergence criterion met
 ---------------------------------------
 One-Electron    Energy =  -218.0552076415
 Total Coulomb   Energy =    86.6842379553
 Alpha Exchange  Energy =    -1.7778026881
 Beta  Exchange  Energy =    -1.7778026881
 DFT   Exchange  Energy =   -10.5744957558
 DFT Correlation Energy =    -0.5168993140
 Nuclear Repu.   Energy =    31.5545005027
 Nuclear Attr.   Energy =  -332.1718157305
 Kinetic         Energy =   114.1166080891
 SCF time:  CPU 18.18 s  wall 19.08 s
 Final Alpha MO Eigenvalues
            1           2           3           4           5           6
    1 -19.0043128 -10.2319220  -1.2280847  -0.7939221  -0.6511008  -0.5966657
            7           8           9          10          11          12
    1  -0.5470746  -0.4023314   0.0400837   0.0431110   0.0641047   0.0951409
           13
    1   0.1230597
 Analysis of SCF Wavefunction
 
 --------------------------------------------------------------
                    Orbital Energies (a.u.)
 --------------------------------------------------------------
 
 Alpha MOs
 -- Occupied --
-19.004 -10.232  -1.228  -0.794  -0.651  -0.597  -0.547  -0.402
 -- Virtual --
  0.040   0.043   0.064   0.095   0.123   0.157   0.161   0.218
  0.266   0.276   0.302   0.356   0.369   0.459   0.557   0.579
  0.622   0.630   0.670   0.689   0.854   0.870   0.956   0.994
  1.079   1.099   1.108   1.191   1.206   1.209   1.340   1.457
  1.524   1.554   1.678   1.810   1.947   2.048   2.306   2.534
  2.560   2.642   2.744   2.987   3.017   3.100   3.106   3.148
  3.211   3.303   3.364   3.378   3.603   3.643   3.803   3.841
  4.134   4.194   4.208   4.226   4.625   5.013   5.072   5.144
  5.178   5.239   5.495   5.558   5.573   5.990   6.360   6.648
  6.913   6.944   6.985   7.262   7.443   7.679  24.501  27.200
 28.040  28.182  40.872  41.045  41.070  41.153  41.236  43.720
 43.773  43.865  43.940  43.972  45.717  45.797  46.523  50.056
 --------------------------------------------------------------
 
          Ground-State Mulliken Net Atomic Charges

     Atom                 Charge (a.u.)
  ----------------------------------------
      1 O                    -0.240551
      2 C                     0.098309
      3 H                     0.071048
      4 H                     0.071194
  ----------------------------------------
  Sum of atomic charges =     0.000000

 -----------------------------------------------------------------
                    Cartesian Multipole Moments
 -----------------------------------------------------------------
    Charge (ESU x 10^10)
                 0.0000
    Dipole Moment (Debye)
         X      -0.0003      Y       0.0000      Z       2.5316
       Tot       2.5316
    Quadrupole Moments (Debye-Ang)
        XX     -11.4696     XY       0.0000     YY     -11.6278
        XZ       0.0003     YZ       0.0000     ZZ      -8.6918
    Octapole Moments (Debye-Ang^2)
       XXX      -0.0020    XXY       0.0000    XYY      -0.0006
       YYY       0.0000    XXZ      -7.0740    XYZ       0.0000
       YYZ      -8.5559    XZZ       0.0014    YZZ       0.0000
       ZZZ     -21.5999
    Hexadecapole Moments (Debye-Ang^3)
      XXXX     -18.0705   XXXY       0.0000   XXYY      -5.0971
      XYYY       0.0000   YYYY     -10.2299   XXXZ      -0.0041
      XXYZ       0.0000   XYYZ      -0.0017   YYYZ       0.0000
      XXZZ     -14.4319   XYZZ       0.0000   YYZZ     -15.5018
      XZZZ       0.0017   YZZZ       0.0000   ZZZZ     -76.8613
 -----------------------------------------------------------------
 Calculating analytic gradient of the SCF energy
 Gradient of AOints
            1           2           3           4
    1   0.0008860  -0.0029019  -2.5242393   2.5262552
    2   0.0000001  -0.0000001   0.0000000   0.0000000
    3  11.9663437  -8.6281488  -1.6707653  -1.6674296
 Gradient of XC Energy
            1           2           3           4
    1  -0.0000470   0.0001788   0.1407077  -0.1408395
    2  -0.0000000   0.0000000  -0.0000000  -0.0000000
    3  -0.4216176   0.2598701   0.0809538   0.0807937
 Gradient of SCF Energy
            1           2           3           4
    1  -0.0000717  -0.0001676   0.0000216   0.0002177
    2  -0.0000000   0.0000000  -0.0000000  -0.0000000
    3   0.0001312   0.0001676  -0.0000300  -0.0002689
 Max gradient component =       2.689E-04
 RMS gradient           =       1.290E-04
 Gradient time:  CPU 8.50 s  wall 8.61 s
Dipole drv :
gprntSymmMtrx error report: 
 Final Hessian.
            1           2           3           4           5           6
    1   0.0752911  -0.0000002  -0.0000010  -0.1077533   0.0000002   0.0000006
    2  -0.0000002   0.0194476   0.0000019   0.0000002  -0.0596741  -0.0000003
    3  -0.0000010   0.0000019   0.9591967  -0.0000008  -0.0000031  -0.8740488
    4  -0.1077533   0.0000002  -0.0000008   0.6154289  -0.0000020   0.0000000
    5   0.0000002  -0.0596741  -0.0000031  -0.0000020   0.1823400   0.0000015
    6   0.0000006  -0.0000003  -0.8740488   0.0000000   0.0000015   1.0778367
    7   0.0162317   0.0000000  -0.0163979  -0.2538363   0.0000012  -0.0867395
    8   0.0000003   0.0201178  -0.0000005   0.0000002  -0.0613383   0.0000003
    9  -0.0379141   0.0000013  -0.0425747  -0.0885200  -0.0000007  -0.1018936
   10   0.0162307  -0.0000003   0.0163988  -0.2538363   0.0000006   0.0867393
   11   0.0000003   0.0201177  -0.0000015   0.0000001  -0.0613383   0.0000012
   12   0.0379145   0.0000013  -0.0425747   0.0885211  -0.0000013  -0.1018936
            7           8           9          10          11          12
    1   0.0162317   0.0000003  -0.0379141   0.0162307   0.0000003   0.0379145
    2   0.0000000   0.0201178   0.0000013  -0.0000003   0.0201177   0.0000013
    3  -0.0163979  -0.0000005  -0.0425747   0.0163988  -0.0000015  -0.0425747
    4  -0.2538363   0.0000002  -0.0885200  -0.2538363   0.0000001   0.0885211
    5   0.0000012  -0.0613383  -0.0000007   0.0000006  -0.0613383  -0.0000013
    6  -0.0867395   0.0000003  -0.1018936   0.0867393   0.0000012  -0.1018936
    7   0.2557141  -0.0000000   0.1147858  -0.0181106  -0.0000002  -0.0116486
    8  -0.0000000   0.0205518  -0.0000002   0.0000000   0.0206697   0.0000001
    9   0.1147858  -0.0000002   0.1354233   0.0116480  -0.0000001   0.0090454
   10  -0.0181106   0.0000000   0.0116480   0.2557138  -0.0000002  -0.1147860
   11  -0.0000002   0.0206697  -0.0000001  -0.0000002   0.0205518   0.0000001
   12  -0.0116486   0.0000001   0.0090454  -0.1147860   0.0000001   0.1354233
 Writing REM_CC_EA            4
 ----------------------------------------------------
       Standard Nuclear Orientation (Angstroms)
    I     Atom         X            Y            Z
 ----------------------------------------------------
    1      O       0.000000     0.000000     0.017395
    2      C       0.000000     0.000000     1.210478
    3      H       0.937814     0.000000     1.790411
    4      H      -0.937814     0.000000     1.790411
 ----------------------------------------------------
 Nuclear Repulsion Energy =    31.5521967199 hartrees
 There are        8 alpha and        8 beta electrons
 old dipole drv.
            1           2           3           4           5           6
    1  -0.4685837   0.0000036   0.0000001   0.7580188   0.0000205  -0.0000002
    2  -0.0000003  -0.3479757  -0.0000088   0.0000006   0.1551461  -0.0000057
    3   0.0000050   0.0000025  -1.0050479   0.0000129   0.0000001   1.0778485
            7           8           9          10          11          12
    1  -0.1447291  -0.0000005  -0.0723968  -0.1447393  -0.0000001   0.0723966
    2  -0.0000008   0.0964181   0.0000029   0.0000009   0.0964181   0.0000031
    3  -0.1317536   0.0000027  -0.0364029   0.1317576  -0.0000087  -0.0364029
 New transposed dipole drv.
            1           2           3
    1  -0.4685837  -0.0000003   0.0000050
    2   0.0000036  -0.3479757   0.0000025
    3   0.0000001  -0.0000088  -1.0050479
    4   0.7580188   0.0000006   0.0000129
    5   0.0000205   0.1551461   0.0000001
    6  -0.0000002  -0.0000057   1.0778485
    7  -0.1447291  -0.0000008  -0.1317536
    8  -0.0000005   0.0964181   0.0000027
    9  -0.0723968   0.0000029  -0.0364029
   10  -0.1447393   0.0000009   0.1317576
   11  -0.0000001   0.0964181  -0.0000087
   12   0.0723966   0.0000031  -0.0364029
FINAL TENSOR RESULT:
Order 2, Length 12
Order 1, Length 12
   0.0752911  -0.0000002  -0.0000010  -0.1077533   0.0000002   0.0000006   0.0162317   0.0000003  -0.0379141   0.0162307   0.0000003   0.0379145
Order 1, Length 12
  -0.0000002   0.0194476   0.0000019   0.0000002  -0.0596741  -0.0000003   0.0000000   0.0201178   0.0000013  -0.0000003   0.0201177   0.0000013
Order 1, Length 12
  -0.0000010   0.0000019   0.9591967  -0.0000008  -0.0000031  -0.8740488  -0.0163979  -0.0000005  -0.0425747   0.0163988  -0.0000015  -0.0425747
Order 1, Length 12
  -0.1077533   0.0000002  -0.0000008   0.6154289  -0.0000020   0.0000000  -0.2538363   0.0000002  -0.0885200  -0.2538363   0.0000001   0.0885211
Order 1, Length 12
   0.0000002  -0.0596741  -0.0000031  -0.0000020   0.1823400   0.0000015   0.0000012  -0.0613383  -0.0000007   0.0000006  -0.0613383  -0.0000013
Order 1, Length 12
   0.0000006  -0.0000003  -0.8740488   0.0000000   0.0000015   1.0778367  -0.0867395   0.0000003  -0.1018936   0.0867393   0.0000012  -0.1018936
Order 1, Length 12
   0.0162317   0.0000000  -0.0163979  -0.2538363   0.0000012  -0.0867395   0.2557141  -0.0000000   0.1147858  -0.0181106  -0.0000002  -0.0116486
Order 1, Length 12
   0.0000003   0.0201178  -0.0000005   0.0000002  -0.0613383   0.0000003  -0.0000000   0.0205518  -0.0000002   0.0000000   0.0206697   0.0000001
Order 1, Length 12
  -0.0379141   0.0000013  -0.0425747  -0.0885200  -0.0000007  -0.1018936   0.1147858  -0.0000002   0.1354233   0.0116480  -0.0000001   0.0090454
Order 1, Length 12
   0.0162307  -0.0000003   0.0163988  -0.2538363   0.0000006   0.0867393  -0.0181106   0.0000000   0.0116480   0.2557138  -0.0000002  -0.1147860
Order 1, Length 12
   0.0000003   0.0201177  -0.0000015   0.0000001  -0.0613383   0.0000012  -0.0000002   0.0206697  -0.0000001  -0.0000002   0.0205518   0.0000001
Order 1, Length 12
   0.0379145   0.0000013  -0.0425747   0.0885211  -0.0000013  -0.1018936  -0.0116486   0.0000001   0.0090454  -0.1147860   0.0000001   0.1354233


 # Finishing finite difference calculation for IDERIV #
 ######################################################
 ######################################################
 Requested basis set is G3large
 There are 32 shells and 104 basis functions
 **********************************************************************
 **                                                                  **
 **                       VIBRATIONAL ANALYSIS                       **
 **                       --------------------                       **
 **                                                                  **
 **        VIBRATIONAL FREQUENCIES (CM**-1) AND NORMAL MODES         **
 **     FORCE CONSTANTS (mDYN/ANGSTROM) AND REDUCED MASSES (AMU)     **
 **                  INFRARED INTENSITIES (KM/MOL)                   **
 **                                                                  **
 **********************************************************************
 

 Mode:                 1                      2                      3
 Frequency:      1230.87                1281.93                1543.24
 Force Cnst:      1.2198                 1.3012                 1.5242
 Red. Mass:       1.3666                 1.3439                 1.0862
 IR Active:          YES                    YES                    YES
 IR Intens:        6.090                 11.737                 11.726
 Raman Active:       YES                    YES                    YES
               X      Y      Z        X      Y      Z        X      Y      Z
 O          0.000  0.043  0.000    0.080  0.000  0.000    0.000  0.000 -0.072
 C          0.000 -0.174  0.000   -0.148  0.000  0.000    0.000  0.000 -0.006
 H          0.000  0.696  0.000    0.248  0.000 -0.651   -0.353  0.000  0.610
 H          0.000  0.696  0.000    0.248  0.000  0.651    0.353  0.000  0.610
 TransDip   0.000  0.079  0.000   -0.110  0.000  0.000    0.000  0.000  0.110

 Mode:                 4                      5                      6
 Frequency:      1895.11                2992.08                3062.73
 Force Cnst:     17.4537                 5.5223                 6.1950
 Red. Mass:       8.2484                 1.0469                 1.1209
 IR Active:          YES                    YES                    YES
 IR Intens:      121.419                 58.997                 80.377
 Raman Active:       YES                    YES                    YES
               X      Y      Z        X      Y      Z        X      Y      Z
 O          0.000  0.000 -0.449    0.000  0.000  0.000    0.000  0.000  0.000
 C          0.000  0.000  0.620    0.000  0.000  0.060   -0.101  0.000  0.000
 H          0.437  0.000 -0.129   -0.612  0.000 -0.351    0.600  0.000  0.367
 H         -0.437  0.000 -0.129    0.612  0.000 -0.351    0.600  0.000 -0.367
 TransDip   0.000  0.000  0.353    0.000  0.000  0.246   -0.287  0.000  0.000

 STANDARD THERMODYNAMIC QUANTITIES AT   298.18 K  AND     1.00 ATM

   This Molecule has  0 Imaginary Frequencies
   Zero point vibrational energy:       17.163 kcal/mol

   Atom    1 Element O  Has Mass   15.99491
   Atom    2 Element C  Has Mass   12.00000
   Atom    3 Element H  Has Mass    1.00783
   Atom    4 Element H  Has Mass    1.00783
   Molecular Mass:    30.010570 amu
   Principal axes and moments of inertia in atomic units:
                             1           2           3
    Eigenvalues --        6.33066    45.53888    51.86954
          X               0.00000     1.00000     0.00000
          Y               0.00000     0.00000     1.00000
          Z               1.00000     0.00000     0.00000
   Rotational Symmetry Number is   1
   The Molecule is an Asymmetric Top
   Translational Enthalpy:        0.889 kcal/mol
   Rotational Enthalpy:           0.889 kcal/mol
   Vibrational Enthalpy:         17.183 kcal/mol
   gas constant (RT):             0.593 kcal/mol
   Translational Entropy:        36.131  cal/mol.K
   Rotational Entropy:           17.354  cal/mol.K
   Vibrational Entropy:           0.078  cal/mol.K

   Total Enthalpy:               19.554 kcal/mol
   Total Entropy:                53.563  cal/mol.K
 Total job time:  688.96s(wall), 669.74s(cpu) 
 Wed Jul  3 20:30:20 2013

        *************************************************************
        *                                                           *
        *  Thank you very much for using Q-Chem.  Have a nice day.  *
        *                                                           *
        *************************************************************


0 sent ACK to 0 
now end server 0 ... 
