Process 0 of 1 is on cl181.stfx.acenet.ca - thread support 1
initial socket setup ...start
initial socket setup ...done 
now start server 0 ... 

cmd = /usr/bin/ssh clhead /usr/local/qchem/bin/get_hostid 1390871326 > /scratch/tmp/6065207.1.medium.q/qchem403/lic.dat
                  Welcome to Q-Chem
     A Quantum Leap Into The Future Of Chemistry

 Y. Shao, L. Fusti-Molnar, Y. Jung, J. Kussmann, C. Ochsenfeld,
 S. T. Brown, A. T. B. Gilbert, L. V. Slipchenko,S. V. Levchenko,
 D. P. O'Neill, R. A. DiStasio Jr., R. C. Lochan, T. Wang,
 G. J. O. Beran, N. A. Besley, J. M. Herbert, C. Y. Lin,
 T. Van Voorhis, S. H. Chien, A. Sodt, R. P. Steele, 
 V. A. Rassolov, P. E. Maslen, P. P. Korambath, R. D. Adamson,
 B. Austin, J. Baker, E. F. C. Byrd, H. Dachsel, R. J. Doerksen,
 A. Dreuw, B. D. Dunietz, A. D. Dutoi, T. R. Furlani,
 S. R. Gwaltney, A. Heyden, S. Hirata, C.-P. Hsu, G. Kedziora,
 R. Z. Khaliullin, P. Klunzinger, A. M. Lee, M. S. Lee, W. Liang,
 I. Lotan, N. Nair, B. Peters, E. I. Proynov, P. A. Pieniazek, 
 Y. M. Rhee, J. Ritchie, E. Rosta, C. D. Sherrill, 
 A. C. Simmonett, J. E. Subotnik, H. L. Woodcock III,
 W. Zhang, A. T. Bell, A. K. Chakraborty, D. M. Chipman,
 F. J. Keil, A. Warshel, W. J. Hehre, H. F. Schaefer III,
 J. Kong, A. I. Krylov, P. M. W. Gill, M. Head-Gordon,
 Q-Chem, Version 3.1, Q-Chem, Inc., Pittsburgh, PA (2007).

 Additional authors for Version 3.1: 
 Z. Gan, Y. Zhao, N. E. Schultz, D. Truhlar, E. Epifanovsky and M. Oana.

 Additional authors for Version 3.2: 
 R. Baer, B. R. Brooks, D. Casanova, J.-D. Chai, C.-L. Cheng, 
 C. Cramer, D. Crittenden, A. Ghysels, G. Hawkins, E. G. Hohenstein, 
 C. Kelley, W. Kurlancheek, D. Liotard, E. Livshits, P. Manohar, 
 A. Marenich, D. Neuhauser, R. Olson, M. A. Rohrdanz, K. S. Thanthiriwatte, 
 A. J. W. Thom, V. Vanovschi, C. F. Williams, Q. Wu and Z.-Q. You. 


 Intel X86 Linux Version

 Q-chem begins on Mon Jul  8 16:56:33 2013  

 Parallel job on  1  processors
Processing $rem in /usr/local/qchem/config/preferences.

theFileMan(): MAXOPENFILES=974 MAX_SUB_FILE_NUM=16
Maximum size of a physical file is 2.0 GB, maximum size of a tmp-file is 32.0 GB


--------------------------------------------------------------
User input:
--------------------------------------------------------------

$molecule
-1,2
C          0.00000        0.00000       -1.45157
C          0.00000        0.00000       -0.12288
H          0.92767        0.00000       -2.01861
H         -0.92767        0.00000       -2.01861
C          1.27060        0.00000        0.67623
H          2.15351        0.00000        0.03302
H          1.31823        0.87946        1.32882
H          1.31823       -0.87946        1.32882
C         -1.27060        0.00000        0.67623
H         -2.15351        0.00000        0.03302
H         -1.31823       -0.87946        1.32882
H         -1.31823        0.87946        1.32882
$end

$comment
negative
$end

$xc_functional
C PBE   1.00
X wPBE  1.00
$end

$rem
SYMMETRY_DECOMPOSITION	0
exchange 		general
LRC_DFT                 true
BASIS                   g3large
omega			290
mem_static              760
max_scf_cycles          200
scf_final_print         1
sym_ignore              true
$end

--------------------------------------------------------------
 Writing REM_CC_EA           12
 ----------------------------------------------------
       Standard Nuclear Orientation (Angstroms)
    I     Atom         X            Y            Z
 ----------------------------------------------------
    1      C       0.000000     0.000000    -1.451570
    2      C       0.000000     0.000000    -0.122880
    3      H       0.927670     0.000000    -2.018610
    4      H      -0.927670     0.000000    -2.018610
    5      C       1.270600     0.000000     0.676230
    6      H       2.153510     0.000000     0.033020
    7      H       1.318230     0.879460     1.328820
    8      H       1.318230    -0.879460     1.328820
    9      C      -1.270600     0.000000     0.676230
   10      H      -2.153510     0.000000     0.033020
   11      H      -1.318230    -0.879460     1.328820
   12      H      -1.318230     0.879460     1.328820
 ----------------------------------------------------
 Nuclear Repulsion Energy =   119.9343987111 hartrees
 There are       17 alpha and       16 beta electrons
 Requested basis set is G3large
 There are 88 shells and 248 basis functions

Total QAlloc Memory Limit   2000 MB
Mega-Array Size       743 MB
MEM_STATIC part       760 MB

                       Distance Matrix (Angstroms)
             C (  1)   C (  2)   H (  3)   H (  4)   C (  5)   H (  6)
   C (  2)  1.328690
   H (  3)  1.087247  2.110536
   H (  4)  1.087247  2.110536  1.855340
   C (  5)  2.478297  1.501000  2.716572  3.477722
   H (  6)  2.615648  2.159146  2.389952  3.701737  1.092359
   H (  7)  3.200273  2.149096  3.482998  4.125870  1.096172  1.774892
   H (  8)  3.200273  2.149096  3.482998  4.125870  1.096172  1.774892
   C (  9)  2.478297  1.501000  3.477722  2.716572  2.541200  3.483999
   H ( 10)  2.615648  2.159146  3.701737  2.389952  3.483999  4.307020
   H ( 11)  3.200273  2.149096  4.125870  3.482998  2.810937  3.808612
   H ( 12)  3.200273  2.149096  4.125870  3.482998  2.810937  3.808612
             H (  7)   H (  8)   C (  9)   H ( 10)   H ( 11)
   H (  8)  1.758920
   C (  9)  2.810937  2.810937
   H ( 10)  3.808612  3.808612  1.092359
   H ( 11)  3.169341  2.636460  1.096172  1.774892
   H ( 12)  2.636460  3.169341  1.096172  1.774892  1.758920
 
 A cutoff of  1.0D-08 yielded   3627 shell pairs
 There are  29001 function pairs ( 35049 Cartesian)
Evaluating contribution to one-electron hamiltonian from nuclear
 Smallest overlap matrix eigenvalue = 1.72E-05

 Q-Chem warning in module mkSTV.C, line 194:

 Overlap eigenvalue is smaller than square root of threshold

 Multipole matrices computed through 2nd order

  Scale SEOQF with 1.000000e-01/1.000000e-01/1.000000e-01

 Standard Electronic Orientation quadrupole field applied
 Nucleus-field energy     =    -0.0000000020 hartrees
 Guess from superposition of atomic densities
 Warning:  Energy on first SCF cycle will be non-variational
 Long-range K will be added via erf
 Coulomb attenuation parameter = 0.29 bohr**(-1)
 An unrestricted Kohn-Sham SCF calculation will be
 performed using Pulay DIIS extrapolation
 Exchange:  wPBE + LR-HF      Correlation:  PBE
 Using SG-1 standard quadrature grid
 SCF converges when DIIS error is below 1.0E-05
 Requested basis set is G3large
 There are 88 shells and 248 basis functions
 A cutoff of  1.0D-08 yielded   3627 shell pairs
 There are  29001 function pairs ( 35049 Cartesian)
 Warning!  Inaccurate integrated density:
   Number of electrons =    33
   Numerical integral  =    31.999956078234
   Relative error      =    -3.0304361266 %
 ---------------------------------------
  Cycle       Energy         DIIS Error
 ---------------------------------------
    1    -158.0770376516      2.78E-02
    2    -156.8443856577      4.53E-03
    3    -156.7707841552      5.95E-03
    4    -157.0795215111      1.17E-03
    5    -157.0955899650      3.58E-04
    6    -157.0969205780      9.89E-05
    7    -157.0971791744      3.52E-05
    8    -157.0972511839      1.49E-05
    9    -157.0972862711      7.49E-06 Convergence criterion met
 ---------------------------------------
 One-Electron    Energy =  -451.2222773486
 Total Coulomb   Energy =   198.8066138935
 Alpha Exchange  Energy =    -2.4657578329
 Beta  Exchange  Energy =    -2.4089685711
 DFT   Exchange  Energy =   -18.7139468193
 DFT Correlation Energy =    -1.0273483017
 Nuclear Repu.   Energy =   119.9343987090
 Nuclear Attr.   Energy =  -607.6420327944
 Kinetic         Energy =   156.4197554458
 <S^2> = 0.7501
 SCF time:  CPU 253.51 s  wall 254.26 s
 Final Alpha MO Eigenvalues
            1           2           3           4           5           6
    1  -9.9300223  -9.9038250  -9.9031036  -9.9001210  -0.7778588  -0.6610405
            7           8           9          10          11          12
    1  -0.6506205  -0.4938759  -0.4252877  -0.4132537  -0.4013250  -0.3467676
           13          14          15          16          17          18
    1  -0.3327645  -0.3272461  -0.3024850  -0.2170426   0.0288546   0.1211474
           19          20          21          22
    1   0.1337789   0.1426173   0.1548976   0.1639280
 Final Beta MO Eigenvalues
            1           2           3           4           5           6
    1  -9.9299451  -9.9034624  -9.9027290  -9.9000929  -0.7775537  -0.6602531
            7           8           9          10          11          12
    1  -0.6501933  -0.4930096  -0.4247677  -0.4128912  -0.4004536  -0.3461898
           13          14          15          16          17          18
    1  -0.3323441  -0.3265751  -0.3020539  -0.2168434   0.1257840   0.1339151
           19          20          21
    1   0.1450554   0.1559122   0.1585346
 Analysis of SCF Wavefunction
 
 --------------------------------------------------------------
                    Orbital Energies (a.u.)
 --------------------------------------------------------------
 
 Alpha MOs
 -- Occupied --
 -9.930  -9.904  -9.903  -9.900  -0.778  -0.661  -0.651  -0.494
 -0.425  -0.413  -0.401  -0.347  -0.333  -0.327  -0.302  -0.217
  0.029
 -- Virtual --
  0.121   0.134   0.143   0.155   0.164   0.185   0.195   0.199
  0.215   0.248   0.251   0.252   0.272   0.276   0.281   0.285
  0.286   0.309   0.309   0.314   0.322   0.328   0.370   0.375
  0.380   0.381   0.393   0.394   0.413   0.438   0.465   0.479
  0.497   0.568   0.595   0.611   0.621   0.667   0.670   0.680
  0.703   0.710   0.711   0.737   0.755   0.761   0.768   0.777
  0.789   0.796   0.818   0.847   0.871   0.874   0.878   0.887
  0.893   0.908   0.952   0.990   1.027   1.033   1.057   1.076
  1.095   1.129   1.155   1.187   1.201   1.228   1.257   1.297
  1.318   1.319   1.343   1.350   1.361   1.400   1.424   1.450
  1.463   1.468   1.501   1.521   1.530   1.539   1.559   1.590
  1.646   1.651   1.655   1.676   1.706   1.723   1.740   1.770
  1.792   1.794   1.811   1.839   1.903   2.013   2.120   2.511
  2.602   2.651   2.704   2.760   2.779   2.875   2.883   2.923
  2.947   2.950   2.998   3.001   3.011   3.073   3.087   3.127
  3.141   3.164   3.210   3.222   3.271   3.273   3.275   3.299
  3.329   3.342   3.349   3.379   3.393   3.406   3.430   3.462
  3.493   3.527   3.554   3.557   3.573   3.633   3.638   3.699
  3.716   3.738   3.765   3.830   3.842   3.871   3.877   3.960
  3.965   4.011   4.047   4.110   4.111   4.113   4.175   4.208
  4.213   4.247   4.310   4.336   4.339   4.391   4.413   4.428
  4.430   4.443   4.524   4.564   4.585   4.597   4.598   4.643
  4.772   4.773   4.780   4.812   4.820   4.924   4.932   4.984
  5.177   5.264   5.474   5.601   5.710   5.811   5.840   5.845
  5.881   5.907   6.122  24.005  24.369  24.400  24.820  27.382
 27.597  27.786  28.002  28.174  28.192  28.228  28.242  28.326
 28.381  28.667  28.677  40.928  41.010  41.015  41.017  41.056
 41.096  41.112  41.219  41.226  41.259  41.275  41.280  41.330
 41.331  41.354  41.355  41.357  41.391  41.398  41.461
 
 Beta MOs
 -- Occupied --
 -9.930  -9.903  -9.903  -9.900  -0.778  -0.660  -0.650  -0.493
 -0.425  -0.413  -0.400  -0.346  -0.332  -0.327  -0.302  -0.217
 -- Virtual --
  0.126   0.134   0.145   0.156   0.159   0.166   0.185   0.194
  0.199   0.214   0.242   0.245   0.252   0.271   0.275   0.277
  0.281   0.284   0.303   0.308   0.313   0.320   0.322   0.366
  0.373   0.377   0.380   0.391   0.394   0.412   0.436   0.463
  0.475   0.491   0.566   0.595   0.608   0.618   0.665   0.669
  0.678   0.703   0.708   0.710   0.736   0.754   0.760   0.766
  0.776   0.789   0.796   0.817   0.847   0.869   0.874   0.879
  0.884   0.892   0.907   0.951   0.990   1.027   1.034   1.057
  1.076   1.096   1.129   1.156   1.187   1.202   1.228   1.257
  1.297   1.318   1.319   1.344   1.350   1.362   1.401   1.425
  1.450   1.463   1.468   1.501   1.521   1.530   1.540   1.558
  1.590   1.647   1.652   1.655   1.676   1.707   1.723   1.741
  1.771   1.792   1.794   1.811   1.840   1.903   2.013   2.120
  2.511   2.602   2.651   2.704   2.760   2.778   2.875   2.883
  2.923   2.947   2.950   2.998   3.001   3.011   3.073   3.087
  3.128   3.141   3.164   3.210   3.222   3.271   3.273   3.275
  3.300   3.330   3.342   3.350   3.379   3.394   3.406   3.431
  3.462   3.493   3.528   3.554   3.557   3.574   3.634   3.638
  3.699   3.717   3.739   3.766   3.830   3.843   3.871   3.877
  3.960   3.965   4.011   4.048   4.111   4.111   4.113   4.176
  4.208   4.214   4.248   4.310   4.336   4.339   4.391   4.413
  4.428   4.430   4.443   4.525   4.565   4.585   4.597   4.598
  4.643   4.773   4.773   4.781   4.813   4.821   4.925   4.932
  4.984   5.178   5.264   5.474   5.601   5.711   5.811   5.841
  5.846   5.881   5.907   6.122  24.005  24.369  24.400  24.820
 27.382  27.597  27.786  28.002  28.174  28.192  28.228  28.243
 28.326  28.381  28.667  28.677  40.928  41.010  41.015  41.018
 41.056  41.096  41.112  41.219  41.226  41.259  41.275  41.280
 41.330  41.331  41.354  41.355  41.358  41.391  41.398  41.461
 --------------------------------------------------------------
 
          Ground-State Mulliken Net Atomic Charges

     Atom                 Charge (a.u.)    Spin (a.u.)
  --------------------------------------------------------
      1 C                     1.699999      -2.447186
      2 C                    -3.193322       4.006071
      3 H                    -0.090964       0.188886
      4 H                    -0.119374       0.218584
      5 C                     2.127393      -2.545792
      6 H                    -0.713888       0.803464
      7 H                    -0.556805       0.654949
      8 H                    -0.564483       0.663215
      9 C                     2.331779      -2.750549
     10 H                    -0.747871       0.838573
     11 H                    -0.593241       0.692228
     12 H                    -0.579222       0.677557
  --------------------------------------------------------
  Sum of atomic charges =    -1.000000
  Sum of spin   charges =     1.000000

 -----------------------------------------------------------------
                    Cartesian Multipole Moments
 -----------------------------------------------------------------
    Charge (ESU x 10^10)
                -4.8032
    Dipole Moment (Debye)
         X       0.2615      Y       0.0755      Z      -4.9862
       Tot       4.9936
    Quadrupole Moments (Debye-Ang)
        XX     -62.8971     XY      -0.0314     YY     -55.5381
        XZ       0.1598     YZ       0.1248     ZZ     -61.5525
    Octapole Moments (Debye-Ang^2)
       XXX       4.4703    XXY       0.3465    XYY       1.1510
       YYY       0.8635    XXZ     -28.8827    XYZ      -0.0512
       YYZ     -28.4914    XZZ       1.5610    YZZ       0.4943
       ZZZ     -81.6321
    Hexadecapole Moments (Debye-Ang^3)
      XXXX    -872.0936   XXXY      -0.3521   XXYY    -193.8516
      XYYY      -0.3135   YYYY    -379.0623   XXXZ       1.7935
      XXYZ       0.5178   XYYZ       0.7818   YYYZ       1.2372
      XXZZ    -268.0854   XYZZ      -0.1730   YYZZ    -191.0356
      XZZZ       2.1653   YZZZ       1.4050   ZZZZ    -737.9710
 -----------------------------------------------------------------
 Total job time:  254.62s(wall), 253.86s(cpu) 
 Mon Jul  8 17:00:48 2013

        *************************************************************
        *                                                           *
        *  Thank you very much for using Q-Chem.  Have a nice day.  *
        *                                                           *
        *************************************************************


0 sent ACK to 0 
now end server 0 ... 
 
**********************************************************************
Job 2 of 3 
**********************************************************************
 
Process 0 of 1 is on cl181.stfx.acenet.ca - thread support 1
initial socket setup ...start
initial socket setup ...done 
now start server 0 ... 

cmd = /usr/bin/ssh clhead /usr/local/qchem/bin/get_hostid 1607268494 > /scratch/tmp/6065207.1.medium.q/qchem403/lic.dat
                  Welcome to Q-Chem
     A Quantum Leap Into The Future Of Chemistry

 Y. Shao, L. Fusti-Molnar, Y. Jung, J. Kussmann, C. Ochsenfeld,
 S. T. Brown, A. T. B. Gilbert, L. V. Slipchenko,S. V. Levchenko,
 D. P. O'Neill, R. A. DiStasio Jr., R. C. Lochan, T. Wang,
 G. J. O. Beran, N. A. Besley, J. M. Herbert, C. Y. Lin,
 T. Van Voorhis, S. H. Chien, A. Sodt, R. P. Steele, 
 V. A. Rassolov, P. E. Maslen, P. P. Korambath, R. D. Adamson,
 B. Austin, J. Baker, E. F. C. Byrd, H. Dachsel, R. J. Doerksen,
 A. Dreuw, B. D. Dunietz, A. D. Dutoi, T. R. Furlani,
 S. R. Gwaltney, A. Heyden, S. Hirata, C.-P. Hsu, G. Kedziora,
 R. Z. Khaliullin, P. Klunzinger, A. M. Lee, M. S. Lee, W. Liang,
 I. Lotan, N. Nair, B. Peters, E. I. Proynov, P. A. Pieniazek, 
 Y. M. Rhee, J. Ritchie, E. Rosta, C. D. Sherrill, 
 A. C. Simmonett, J. E. Subotnik, H. L. Woodcock III,
 W. Zhang, A. T. Bell, A. K. Chakraborty, D. M. Chipman,
 F. J. Keil, A. Warshel, W. J. Hehre, H. F. Schaefer III,
 J. Kong, A. I. Krylov, P. M. W. Gill, M. Head-Gordon,
 Q-Chem, Version 3.1, Q-Chem, Inc., Pittsburgh, PA (2007).

 Additional authors for Version 3.1: 
 Z. Gan, Y. Zhao, N. E. Schultz, D. Truhlar, E. Epifanovsky and M. Oana.

 Additional authors for Version 3.2: 
 R. Baer, B. R. Brooks, D. Casanova, J.-D. Chai, C.-L. Cheng, 
 C. Cramer, D. Crittenden, A. Ghysels, G. Hawkins, E. G. Hohenstein, 
 C. Kelley, W. Kurlancheek, D. Liotard, E. Livshits, P. Manohar, 
 A. Marenich, D. Neuhauser, R. Olson, M. A. Rohrdanz, K. S. Thanthiriwatte, 
 A. J. W. Thom, V. Vanovschi, C. F. Williams, Q. Wu and Z.-Q. You. 


 Intel X86 Linux Version

 Q-chem begins on Mon Jul  8 17:00:51 2013  

 Parallel job on  1  processors
Processing $rem in /usr/local/qchem/config/preferences.

theFileMan(): MAXOPENFILES=974 MAX_SUB_FILE_NUM=16
Maximum size of a physical file is 2.0 GB, maximum size of a tmp-file is 32.0 GB


--------------------------------------------------------------
User input:
--------------------------------------------------------------

$molecule
0,1
C          0.00000        0.00000       -1.45157
C          0.00000        0.00000       -0.12288
H          0.92767        0.00000       -2.01861
H         -0.92767        0.00000       -2.01861
C          1.27060        0.00000        0.67623
H          2.15351        0.00000        0.03302
H          1.31823        0.87946        1.32882
H          1.31823       -0.87946        1.32882
C         -1.27060        0.00000        0.67623
H         -2.15351        0.00000        0.03302
H         -1.31823       -0.87946        1.32882
H         -1.31823        0.87946        1.32882
$end

$comment
neutral
$end

$xc_functional
C PBE   1.00
X wPBE  1.00
$end


$rem
SYMMETRY_DECOMPOSITION	0
LRC_DFT                 true
exchange 		general
BASIS                   g3large
omega			290
mem_static              760
max_scf_cycles          200
scf_final_print         1
sym_ignore              true
$end

--------------------------------------------------------------
 Writing REM_CC_EA           12
 ----------------------------------------------------
       Standard Nuclear Orientation (Angstroms)
    I     Atom         X            Y            Z
 ----------------------------------------------------
    1      C       0.000000     0.000000    -1.451570
    2      C       0.000000     0.000000    -0.122880
    3      H       0.927670     0.000000    -2.018610
    4      H      -0.927670     0.000000    -2.018610
    5      C       1.270600     0.000000     0.676230
    6      H       2.153510     0.000000     0.033020
    7      H       1.318230     0.879460     1.328820
    8      H       1.318230    -0.879460     1.328820
    9      C      -1.270600     0.000000     0.676230
   10      H      -2.153510     0.000000     0.033020
   11      H      -1.318230    -0.879460     1.328820
   12      H      -1.318230     0.879460     1.328820
 ----------------------------------------------------
 Nuclear Repulsion Energy =   119.9343987111 hartrees
 There are       16 alpha and       16 beta electrons
 Requested basis set is G3large
 There are 88 shells and 248 basis functions

Total QAlloc Memory Limit   2000 MB
Mega-Array Size       743 MB
MEM_STATIC part       760 MB

                       Distance Matrix (Angstroms)
             C (  1)   C (  2)   H (  3)   H (  4)   C (  5)   H (  6)
   C (  2)  1.328690
   H (  3)  1.087247  2.110536
   H (  4)  1.087247  2.110536  1.855340
   C (  5)  2.478297  1.501000  2.716572  3.477722
   H (  6)  2.615648  2.159146  2.389952  3.701737  1.092359
   H (  7)  3.200273  2.149096  3.482998  4.125870  1.096172  1.774892
   H (  8)  3.200273  2.149096  3.482998  4.125870  1.096172  1.774892
   C (  9)  2.478297  1.501000  3.477722  2.716572  2.541200  3.483999
   H ( 10)  2.615648  2.159146  3.701737  2.389952  3.483999  4.307020
   H ( 11)  3.200273  2.149096  4.125870  3.482998  2.810937  3.808612
   H ( 12)  3.200273  2.149096  4.125870  3.482998  2.810937  3.808612
             H (  7)   H (  8)   C (  9)   H ( 10)   H ( 11)
   H (  8)  1.758920
   C (  9)  2.810937  2.810937
   H ( 10)  3.808612  3.808612  1.092359
   H ( 11)  3.169341  2.636460  1.096172  1.774892
   H ( 12)  2.636460  3.169341  1.096172  1.774892  1.758920
 
 A cutoff of  1.0D-08 yielded   3627 shell pairs
 There are  29001 function pairs ( 35049 Cartesian)
Evaluating contribution to one-electron hamiltonian from nuclear
 Smallest overlap matrix eigenvalue = 1.72E-05

 Q-Chem warning in module mkSTV.C, line 194:

 Overlap eigenvalue is smaller than square root of threshold

 Multipole matrices computed through 2nd order

  Scale SEOQF with 1.000000e-01/1.000000e-01/1.000000e-01

 Standard Electronic Orientation quadrupole field applied
 Nucleus-field energy     =    -0.0000000020 hartrees
 Guess from superposition of atomic densities
 Warning:  Energy on first SCF cycle will be non-variational
 Long-range K will be added via erf
 Coulomb attenuation parameter = 0.29 bohr**(-1)
 A restricted Kohn-Sham SCF calculation will be
 performed using Pulay DIIS extrapolation
 Exchange:  wPBE + LR-HF      Correlation:  PBE
 Using SG-1 standard quadrature grid
 SCF converges when DIIS error is below 1.0E-05
 Requested basis set is G3large
 There are 88 shells and 248 basis functions
 A cutoff of  1.0D-08 yielded   3627 shell pairs
 There are  29001 function pairs ( 35049 Cartesian)
 ---------------------------------------
  Cycle       Energy         DIIS Error
 ---------------------------------------
    1    -158.0770376516      2.78E-02
    2    -157.0647877094      2.77E-03
    3    -157.1041929988      1.83E-03
    4    -157.1291392330      1.73E-04
    5    -157.1296790648      5.71E-05
    6    -157.1297049248      2.91E-05
    7    -157.1297167500      8.37E-06 Convergence criterion met
 ---------------------------------------
 One-Electron    Energy =  -447.2374029040
 Total Coulomb   Energy =   194.7203385894
 Alpha Exchange  Energy =    -2.4099103932
 Beta  Exchange  Energy =    -2.4099103932
 DFT   Exchange  Energy =   -18.7066206144
 DFT Correlation Energy =    -1.0206097437
 Nuclear Repu.   Energy =   119.9343987090
 Nuclear Attr.   Energy =  -603.5903039154
 Kinetic         Energy =   156.3529010115
 SCF time:  CPU 147.17 s  wall 147.66 s
 Final Alpha MO Eigenvalues
            1           2           3           4           5           6
    1 -10.0519472 -10.0340809 -10.0340566 -10.0213030  -0.9029469  -0.7894384
            7           8           9          10          11          12
    1  -0.7745372  -0.6171924  -0.5489226  -0.5384520  -0.5301960  -0.4772718
           13          14          15          16          17          18
    1  -0.4591156  -0.4533497  -0.4264900  -0.3398142   0.0367054   0.0513581
           19          20          21
    1   0.0591434   0.0592949   0.0737592
 Analysis of SCF Wavefunction
 
 --------------------------------------------------------------
                    Orbital Energies (a.u.)
 --------------------------------------------------------------
 
 Alpha MOs
 -- Occupied --
-10.052 -10.034 -10.034 -10.021  -0.903  -0.789  -0.775  -0.617
 -0.549  -0.538  -0.530  -0.477  -0.459  -0.453  -0.426  -0.340
 -- Virtual --
  0.037   0.051   0.059   0.059   0.074   0.081   0.093   0.096
  0.112   0.117   0.141   0.145   0.154   0.170   0.171   0.183
  0.186   0.188   0.201   0.204   0.211   0.212   0.221   0.257
  0.257   0.265   0.270   0.276   0.284   0.298   0.326   0.347
  0.363   0.383   0.456   0.480   0.489   0.502   0.546   0.549
  0.564   0.578   0.586   0.595   0.615   0.634   0.639   0.647
  0.653   0.670   0.673   0.697   0.734   0.748   0.753   0.753
  0.763   0.771   0.793   0.830   0.870   0.903   0.905   0.935
  0.952   0.967   1.010   1.029   1.066   1.077   1.102   1.133
  1.172   1.194   1.195   1.218   1.227   1.234   1.274   1.303
  1.324   1.339   1.344   1.377   1.395   1.403   1.412   1.434
  1.469   1.520   1.528   1.531   1.551   1.586   1.602   1.615
  1.643   1.668   1.670   1.685   1.713   1.783   1.887   1.997
  2.382   2.481   2.525   2.578   2.631   2.657   2.752   2.762
  2.796   2.823   2.825   2.873   2.876   2.887   2.946   2.961
  3.001   3.011   3.037   3.087   3.100   3.146   3.149   3.151
  3.173   3.201   3.220   3.222   3.250   3.266   3.279   3.306
  3.336   3.371   3.402   3.428   3.433   3.449   3.510   3.512
  3.570   3.591   3.612   3.638   3.706   3.715   3.746   3.752
  3.836   3.838   3.885   3.919   3.983   3.985   3.986   4.049
  4.081   4.090   4.119   4.188   4.210   4.212   4.271   4.284
  4.298   4.304   4.317   4.397   4.436   4.455   4.468   4.471
  4.516   4.645   4.649   4.653   4.686   4.692   4.802   4.806
  4.859   5.051   5.140   5.350   5.474   5.586   5.692   5.709
  5.715   5.752   5.780   6.000  23.882  24.240  24.269  24.698
 27.261  27.475  27.659  27.875  28.043  28.061  28.100  28.112
 28.203  28.259  28.543  28.551  40.806  40.881  40.885  40.893
 40.935  40.967  40.982  41.097  41.104  41.137  41.145  41.150
 41.204  41.209  41.224  41.227  41.229  41.265  41.274  41.338
 --------------------------------------------------------------
 
          Ground-State Mulliken Net Atomic Charges

     Atom                 Charge (a.u.)
  ----------------------------------------
      1 C                    -0.671660
      2 C                     0.718072
      3 H                     0.105302
      4 H                     0.105365
      5 C                    -0.400285
      6 H                     0.098488
      7 H                     0.086654
      8 H                     0.086664
      9 C                    -0.400402
     10 H                     0.098493
     11 H                     0.086643
     12 H                     0.086665
  ----------------------------------------
  Sum of atomic charges =     0.000000

 -----------------------------------------------------------------
                    Cartesian Multipole Moments
 -----------------------------------------------------------------
    Charge (ESU x 10^10)
                 0.0000
    Dipole Moment (Debye)
         X       0.0000      Y       0.0000      Z       0.5783
       Tot       0.5783
    Quadrupole Moments (Debye-Ang)
        XX     -25.7126     XY      -0.0008     YY     -28.2041
        XZ       0.0001     YZ       0.0000     ZZ     -26.2831
    Octapole Moments (Debye-Ang^2)
       XXX       0.0005    XXY       0.0000    XYY       0.0001
       YYY       0.0000    XXZ      -2.2410    XYZ       0.0006
       YYZ       3.9513    XZZ       0.0002    YZZ      -0.0001
       ZZZ      -0.5849
    Hexadecapole Moments (Debye-Ang^3)
      XXXX    -212.0943   XXXY      -0.0030   XXYY     -44.4169
      XYYY      -0.0004   YYYY     -46.5132   XXXZ       0.0004
      XXYZ       0.0001   XYYZ       0.0001   YYYZ      -0.0001
      XXZZ     -66.0981   XYZZ      -0.0040   YYZZ     -41.0354
      XZZZ       0.0004   YZZZ       0.0003   ZZZZ    -196.5526
 -----------------------------------------------------------------
 Total job time:  147.98s(wall), 147.47s(cpu) 
 Mon Jul  8 17:03:19 2013

        *************************************************************
        *                                                           *
        *  Thank you very much for using Q-Chem.  Have a nice day.  *
        *                                                           *
        *************************************************************


0 sent ACK to 0 
now end server 0 ... 
 
**********************************************************************
Job 3 of 3 
**********************************************************************
 
Process 0 of 1 is on cl181.stfx.acenet.ca - thread support 1
initial socket setup ...start
initial socket setup ...done 
now start server 0 ... 

cmd = /usr/bin/ssh clhead /usr/local/qchem/bin/get_hostid 1864581259 > /scratch/tmp/6065207.1.medium.q/qchem403/lic.dat
                  Welcome to Q-Chem
     A Quantum Leap Into The Future Of Chemistry

 Y. Shao, L. Fusti-Molnar, Y. Jung, J. Kussmann, C. Ochsenfeld,
 S. T. Brown, A. T. B. Gilbert, L. V. Slipchenko,S. V. Levchenko,
 D. P. O'Neill, R. A. DiStasio Jr., R. C. Lochan, T. Wang,
 G. J. O. Beran, N. A. Besley, J. M. Herbert, C. Y. Lin,
 T. Van Voorhis, S. H. Chien, A. Sodt, R. P. Steele, 
 V. A. Rassolov, P. E. Maslen, P. P. Korambath, R. D. Adamson,
 B. Austin, J. Baker, E. F. C. Byrd, H. Dachsel, R. J. Doerksen,
 A. Dreuw, B. D. Dunietz, A. D. Dutoi, T. R. Furlani,
 S. R. Gwaltney, A. Heyden, S. Hirata, C.-P. Hsu, G. Kedziora,
 R. Z. Khaliullin, P. Klunzinger, A. M. Lee, M. S. Lee, W. Liang,
 I. Lotan, N. Nair, B. Peters, E. I. Proynov, P. A. Pieniazek, 
 Y. M. Rhee, J. Ritchie, E. Rosta, C. D. Sherrill, 
 A. C. Simmonett, J. E. Subotnik, H. L. Woodcock III,
 W. Zhang, A. T. Bell, A. K. Chakraborty, D. M. Chipman,
 F. J. Keil, A. Warshel, W. J. Hehre, H. F. Schaefer III,
 J. Kong, A. I. Krylov, P. M. W. Gill, M. Head-Gordon,
 Q-Chem, Version 3.1, Q-Chem, Inc., Pittsburgh, PA (2007).

 Additional authors for Version 3.1: 
 Z. Gan, Y. Zhao, N. E. Schultz, D. Truhlar, E. Epifanovsky and M. Oana.

 Additional authors for Version 3.2: 
 R. Baer, B. R. Brooks, D. Casanova, J.-D. Chai, C.-L. Cheng, 
 C. Cramer, D. Crittenden, A. Ghysels, G. Hawkins, E. G. Hohenstein, 
 C. Kelley, W. Kurlancheek, D. Liotard, E. Livshits, P. Manohar, 
 A. Marenich, D. Neuhauser, R. Olson, M. A. Rohrdanz, K. S. Thanthiriwatte, 
 A. J. W. Thom, V. Vanovschi, C. F. Williams, Q. Wu and Z.-Q. You. 


 Intel X86 Linux Version

 Q-chem begins on Mon Jul  8 17:03:21 2013  

 Parallel job on  1  processors
Processing $rem in /usr/local/qchem/config/preferences.

theFileMan(): MAXOPENFILES=974 MAX_SUB_FILE_NUM=16
Maximum size of a physical file is 2.0 GB, maximum size of a tmp-file is 32.0 GB


--------------------------------------------------------------
User input:
--------------------------------------------------------------

$molecule
1,2
C          0.00000        0.00000       -1.45157
C          0.00000        0.00000       -0.12288
H          0.92767        0.00000       -2.01861
H         -0.92767        0.00000       -2.01861
C          1.27060        0.00000        0.67623
H          2.15351        0.00000        0.03302
H          1.31823        0.87946        1.32882
H          1.31823       -0.87946        1.32882
C         -1.27060        0.00000        0.67623
H         -2.15351        0.00000        0.03302
H         -1.31823       -0.87946        1.32882
H         -1.31823        0.87946        1.32882
$end

$comment
positive
$end

$xc_functional
C PBE   1.00
X wPBE  1.00
$end

$rem
SYMMETRY_DECOMPOSITION	0
LRC_DFT                 true
exchange 		general
BASIS                   g3large
omega			290
mem_static              760
max_scf_cycles          200
scf_final_print         1
sym_ignore              true
$end

--------------------------------------------------------------
 Writing REM_CC_EA           12
 ----------------------------------------------------
       Standard Nuclear Orientation (Angstroms)
    I     Atom         X            Y            Z
 ----------------------------------------------------
    1      C       0.000000     0.000000    -1.451570
    2      C       0.000000     0.000000    -0.122880
    3      H       0.927670     0.000000    -2.018610
    4      H      -0.927670     0.000000    -2.018610
    5      C       1.270600     0.000000     0.676230
    6      H       2.153510     0.000000     0.033020
    7      H       1.318230     0.879460     1.328820
    8      H       1.318230    -0.879460     1.328820
    9      C      -1.270600     0.000000     0.676230
   10      H      -2.153510     0.000000     0.033020
   11      H      -1.318230    -0.879460     1.328820
   12      H      -1.318230     0.879460     1.328820
 ----------------------------------------------------
 Nuclear Repulsion Energy =   119.9343987111 hartrees
 There are       16 alpha and       15 beta electrons
 Requested basis set is G3large
 There are 88 shells and 248 basis functions

Total QAlloc Memory Limit   2000 MB
Mega-Array Size       743 MB
MEM_STATIC part       760 MB

                       Distance Matrix (Angstroms)
             C (  1)   C (  2)   H (  3)   H (  4)   C (  5)   H (  6)
   C (  2)  1.328690
   H (  3)  1.087247  2.110536
   H (  4)  1.087247  2.110536  1.855340
   C (  5)  2.478297  1.501000  2.716572  3.477722
   H (  6)  2.615648  2.159146  2.389952  3.701737  1.092359
   H (  7)  3.200273  2.149096  3.482998  4.125870  1.096172  1.774892
   H (  8)  3.200273  2.149096  3.482998  4.125870  1.096172  1.774892
   C (  9)  2.478297  1.501000  3.477722  2.716572  2.541200  3.483999
   H ( 10)  2.615648  2.159146  3.701737  2.389952  3.483999  4.307020
   H ( 11)  3.200273  2.149096  4.125870  3.482998  2.810937  3.808612
   H ( 12)  3.200273  2.149096  4.125870  3.482998  2.810937  3.808612
             H (  7)   H (  8)   C (  9)   H ( 10)   H ( 11)
   H (  8)  1.758920
   C (  9)  2.810937  2.810937
   H ( 10)  3.808612  3.808612  1.092359
   H ( 11)  3.169341  2.636460  1.096172  1.774892
   H ( 12)  2.636460  3.169341  1.096172  1.774892  1.758920
 
 A cutoff of  1.0D-08 yielded   3627 shell pairs
 There are  29001 function pairs ( 35049 Cartesian)
Evaluating contribution to one-electron hamiltonian from nuclear
 Smallest overlap matrix eigenvalue = 1.72E-05

 Q-Chem warning in module mkSTV.C, line 194:

 Overlap eigenvalue is smaller than square root of threshold

 Multipole matrices computed through 2nd order

  Scale SEOQF with 1.000000e-01/1.000000e-01/1.000000e-01

 Standard Electronic Orientation quadrupole field applied
 Nucleus-field energy     =    -0.0000000020 hartrees
 Guess from superposition of atomic densities
 Warning:  Energy on first SCF cycle will be non-variational
 Long-range K will be added via erf
 Coulomb attenuation parameter = 0.29 bohr**(-1)
 An unrestricted Kohn-Sham SCF calculation will be
 performed using Pulay DIIS extrapolation
 Exchange:  wPBE + LR-HF      Correlation:  PBE
 Using SG-1 standard quadrature grid
 SCF converges when DIIS error is below 1.0E-05
 Requested basis set is G3large
 There are 88 shells and 248 basis functions
 A cutoff of  1.0D-08 yielded   3627 shell pairs
 There are  29001 function pairs ( 35049 Cartesian)
 Warning!  Inaccurate integrated density:
   Number of electrons =    31
   Numerical integral  =    31.999956078234
   Relative error      =     3.2256647685 %
 ---------------------------------------
  Cycle       Energy         DIIS Error
 ---------------------------------------
    1    -158.0770376516      2.78E-02
    2    -156.7341473762      2.08E-03
    3    -156.7698796959      1.26E-03
    4    -156.7830333969      3.48E-04
    5    -156.7854070707      9.14E-05
    6    -156.7860533112      5.19E-05
    7    -156.7862964519      2.37E-05
    8    -156.7863726631      9.62E-06 Convergence criterion met
 ---------------------------------------
 One-Electron    Energy =  -439.3875522292
 Total Coulomb   Energy =   186.9234669688
 Alpha Exchange  Energy =    -2.4182741679
 Beta  Exchange  Energy =    -2.2692544238
 DFT   Exchange  Energy =   -18.5863149061
 DFT Correlation Energy =    -0.9828426141
 Nuclear Repu.   Energy =   119.9343987090
 Nuclear Attr.   Energy =  -595.5719594643
 Kinetic         Energy =   156.1844072351
 <S^2> = 0.7530
 SCF time:  CPU 218.81 s  wall 219.63 s
 Final Alpha MO Eigenvalues
            1           2           3           4           5           6
    1 -10.3528637 -10.3316761 -10.2504521 -10.2504351  -1.1807588  -1.0363929
            7           8           9          10          11          12
    1  -1.0125221  -0.8700992  -0.8047641  -0.7766428  -0.7687412  -0.6920978
           13          14          15          16          17          18
    1  -0.6888823  -0.6874797  -0.6597589  -0.6356745  -0.1863487  -0.1028025
           19          20          21
    1  -0.0725383  -0.0716318  -0.0587467
 Final Beta MO Eigenvalues
            1           2           3           4           5           6
    1 -10.3488100 -10.3226791 -10.2503368 -10.2503176  -1.1585022  -1.0199566
            7           8           9          10          11          12
    1  -1.0100591  -0.8589094  -0.7976842  -0.7733878  -0.7421050  -0.6843937
           13          14          15          16          17          18
    1  -0.6842485  -0.6811851  -0.6589690  -0.3446917  -0.1316799  -0.1012347
           19          20
    1  -0.0715631  -0.0712504
 Analysis of SCF Wavefunction
 
 --------------------------------------------------------------
                    Orbital Energies (a.u.)
 --------------------------------------------------------------
 
 Alpha MOs
 -- Occupied --
-10.353 -10.332 -10.250 -10.250  -1.181  -1.036  -1.013  -0.870
 -0.805  -0.777  -0.769  -0.692  -0.689  -0.687  -0.660  -0.636
 -- Virtual --
 -0.186  -0.103  -0.073  -0.072  -0.059  -0.052  -0.044  -0.033
 -0.028  -0.022  -0.018  -0.002   0.009   0.015   0.031   0.035
  0.038   0.040   0.045   0.048   0.055   0.062   0.066   0.087
  0.088   0.102   0.107   0.111   0.119   0.133   0.140   0.146
  0.200   0.224   0.263   0.266   0.305   0.326   0.342   0.343
  0.366   0.368   0.375   0.394   0.406   0.411   0.421   0.457
  0.462   0.466   0.481   0.492   0.510   0.519   0.538   0.550
  0.563   0.581   0.591   0.621   0.638   0.693   0.697   0.720
  0.733   0.758   0.796   0.823   0.846   0.854   0.899   0.926
  0.952   0.968   0.991   1.009   1.019   1.035   1.067   1.074
  1.106   1.128   1.130   1.153   1.189   1.201   1.202   1.240
  1.254   1.318   1.321   1.333   1.346   1.361   1.371   1.398
  1.440   1.442   1.473   1.483   1.496   1.541   1.654   1.760
  2.165   2.247   2.271   2.357   2.407   2.425   2.455   2.499
  2.543   2.565   2.571   2.603   2.609   2.634   2.687   2.722
  2.752   2.795   2.798   2.819   2.827   2.884   2.888   2.907
  2.932   2.960   2.970   2.998   3.025   3.027   3.039   3.064
  3.080   3.106   3.150   3.169   3.181   3.224   3.240   3.273
  3.350   3.357   3.367   3.400   3.450   3.471   3.490   3.512
  3.596   3.610   3.650   3.698   3.745   3.761   3.761   3.807
  3.839   3.843   3.893   3.948   3.962   3.983   4.014   4.063
  4.065   4.081   4.085   4.178   4.215   4.227   4.232   4.249
  4.275   4.396   4.405   4.410   4.461   4.463   4.556   4.557
  4.576   4.809   4.875   5.106   5.229   5.337   5.433   5.493
  5.499   5.542   5.561   5.736  23.585  24.013  24.052  24.397
 26.945  27.164  27.401  27.627  27.826  27.843  27.849  27.894
 27.930  27.960  28.269  28.298  40.499  40.595  40.617  40.668
 40.669  40.742  40.763  40.788  40.794  40.829  40.896  40.927
 40.931  40.937  40.941  40.998  41.007  41.010  41.032  41.066
 
 Beta MOs
 -- Occupied --
-10.349 -10.323 -10.250 -10.250  -1.159  -1.020  -1.010  -0.859
 -0.798  -0.773  -0.742  -0.684  -0.684  -0.681  -0.659
 -- Virtual --
 -0.345  -0.132  -0.101  -0.072  -0.071  -0.055  -0.051  -0.044
 -0.031  -0.021  -0.020  -0.015  -0.001   0.012   0.016   0.034
  0.037   0.041   0.043   0.049   0.050   0.056   0.064   0.069
  0.089   0.091   0.104   0.110   0.112   0.121   0.133   0.141
  0.152   0.202   0.227   0.266   0.274   0.309   0.327   0.350
  0.355   0.377   0.377   0.383   0.407   0.415   0.418   0.447
  0.458   0.467   0.468   0.482   0.494   0.528   0.532   0.543
  0.559   0.566   0.586   0.595   0.626   0.650   0.698   0.705
  0.722   0.741   0.765   0.799   0.829   0.854   0.863   0.901
  0.929   0.959   0.978   0.993   1.017   1.022   1.038   1.077
  1.084   1.114   1.131   1.135   1.163   1.190   1.205   1.206
  1.242   1.264   1.323   1.323   1.336   1.351   1.367   1.379
  1.408   1.442   1.446   1.476   1.495   1.498   1.555   1.662
  1.763   2.171   2.252   2.293   2.360   2.417   2.432   2.498
  2.516   2.567   2.574   2.580   2.626   2.640   2.643   2.712
  2.727   2.768   2.801   2.810   2.840   2.853   2.904   2.907
  2.908   2.943   2.965   2.978   3.003   3.033   3.041   3.049
  3.069   3.093   3.135   3.167   3.189   3.193   3.226   3.266
  3.283   3.355   3.359   3.379   3.416   3.467   3.493   3.495
  3.515   3.601   3.617   3.653   3.702   3.754   3.766   3.767
  3.811   3.851   3.853   3.898   3.950   3.973   3.990   4.025
  4.070   4.078   4.087   4.089   4.179   4.222   4.236   4.239
  4.253   4.286   4.401   4.418   4.421   4.465   4.468   4.557
  4.563   4.603   4.813   4.884   5.115   5.233   5.340   5.435
  5.499   5.505   5.544   5.564   5.741  23.593  24.015  24.052
 24.405  26.968  27.182  27.402  27.628  27.827  27.845  27.853
 27.895  27.932  27.965  28.271  28.300  40.511  40.602  40.635
 40.668  40.670  40.743  40.763  40.801  40.808  40.842  40.909
 40.928  40.932  40.938  40.946  41.000  41.008  41.010  41.032
 41.066
 --------------------------------------------------------------
 
          Ground-State Mulliken Net Atomic Charges

     Atom                 Charge (a.u.)    Spin (a.u.)
  --------------------------------------------------------
      1 C                    -0.353080       0.654288
      2 C                     0.733463       0.261770
      3 H                     0.180662      -0.020540
      4 H                     0.180727      -0.020541
      5 C                    -0.310132      -0.003211
      6 H                     0.129642      -0.002313
      7 H                     0.154856       0.034239
      8 H                     0.154742       0.033792
      9 C                    -0.310125      -0.003196
     10 H                     0.129644      -0.002312
     11 H                     0.154852       0.034234
     12 H                     0.154748       0.033790
  --------------------------------------------------------
  Sum of atomic charges =     1.000000
  Sum of spin   charges =     1.000000

 -----------------------------------------------------------------
                    Cartesian Multipole Moments
 -----------------------------------------------------------------
    Charge (ESU x 10^10)
                 4.8032
    Dipole Moment (Debye)
         X       0.0000      Y       0.0001      Z      -1.0485
       Tot       1.0485
    Quadrupole Moments (Debye-Ang)
        XX     -17.0639     XY       0.0001     YY     -22.8351
        XZ       0.0000     YZ      -0.0001     ZZ     -14.4003
    Octapole Moments (Debye-Ang^2)
       XXX      -0.0003    XXY       0.0000    XYY      -0.0001
       YYY       0.0001    XXZ       0.8414    XYZ      -0.0008
       YYZ       3.3819    XZZ       0.0000    YZZ       0.0002
       ZZZ      -9.1110
    Hexadecapole Moments (Debye-Ang^3)
      XXXX    -167.2183   XXXY      -0.0089   XXYY     -35.9516
      XYYY       0.0015   YYYY     -33.5793   XXXZ      -0.0002
      XXYZ      -0.0001   XYYZ      -0.0001   YYYZ       0.0000
      XXZZ     -46.4876   XYZZ       0.0088   YYZZ     -28.6550
      XZZZ      -0.0002   YZZZ      -0.0005   ZZZZ    -138.7509
 -----------------------------------------------------------------
 Total job time:  219.95s(wall), 219.12s(cpu) 
 Mon Jul  8 17:07:01 2013

        *************************************************************
        *                                                           *
        *  Thank you very much for using Q-Chem.  Have a nice day.  *
        *                                                           *
        *************************************************************


0 sent ACK to 0 
now end server 0 ... 
