Process 0 of 1 is on cl079.stfx.acenet.ca - thread support 1
initial socket setup ...start
initial socket setup ...done 
now start server 0 ... 

cmd = /usr/bin/ssh clhead /usr/local/qchem/bin/get_hostid 538618862 > /scratch/tmp/5955956.1.short.q/qchem32072/lic.dat
                  Welcome to Q-Chem
     A Quantum Leap Into The Future Of Chemistry

 Y. Shao, L. Fusti-Molnar, Y. Jung, J. Kussmann, C. Ochsenfeld,
 S. T. Brown, A. T. B. Gilbert, L. V. Slipchenko,S. V. Levchenko,
 D. P. O'Neill, R. A. DiStasio Jr., R. C. Lochan, T. Wang,
 G. J. O. Beran, N. A. Besley, J. M. Herbert, C. Y. Lin,
 T. Van Voorhis, S. H. Chien, A. Sodt, R. P. Steele, 
 V. A. Rassolov, P. E. Maslen, P. P. Korambath, R. D. Adamson,
 B. Austin, J. Baker, E. F. C. Byrd, H. Dachsel, R. J. Doerksen,
 A. Dreuw, B. D. Dunietz, A. D. Dutoi, T. R. Furlani,
 S. R. Gwaltney, A. Heyden, S. Hirata, C.-P. Hsu, G. Kedziora,
 R. Z. Khaliullin, P. Klunzinger, A. M. Lee, M. S. Lee, W. Liang,
 I. Lotan, N. Nair, B. Peters, E. I. Proynov, P. A. Pieniazek, 
 Y. M. Rhee, J. Ritchie, E. Rosta, C. D. Sherrill, 
 A. C. Simmonett, J. E. Subotnik, H. L. Woodcock III,
 W. Zhang, A. T. Bell, A. K. Chakraborty, D. M. Chipman,
 F. J. Keil, A. Warshel, W. J. Hehre, H. F. Schaefer III,
 J. Kong, A. I. Krylov, P. M. W. Gill, M. Head-Gordon,
 Q-Chem, Version 3.1, Q-Chem, Inc., Pittsburgh, PA (2007).

 Additional authors for Version 3.1: 
 Z. Gan, Y. Zhao, N. E. Schultz, D. Truhlar, E. Epifanovsky and M. Oana.

 Additional authors for Version 3.2: 
 R. Baer, B. R. Brooks, D. Casanova, J.-D. Chai, C.-L. Cheng, 
 C. Cramer, D. Crittenden, A. Ghysels, G. Hawkins, E. G. Hohenstein, 
 C. Kelley, W. Kurlancheek, D. Liotard, E. Livshits, P. Manohar, 
 A. Marenich, D. Neuhauser, R. Olson, M. A. Rohrdanz, K. S. Thanthiriwatte, 
 A. J. W. Thom, V. Vanovschi, C. F. Williams, Q. Wu and Z.-Q. You. 


 Intel X86 Linux Version

 Q-chem begins on Tue Apr 30 21:59:04 2013  

 Parallel job on  1  processors
Processing $rem in /usr/local/qchem/config/preferences.

theFileMan(): MAXOPENFILES=974 MAX_SUB_FILE_NUM=16
Maximum size of a physical file is 2.0 GB, maximum size of a tmp-file is 32.0 GB


--------------------------------------------------------------
User input:
--------------------------------------------------------------

$molecule
-1,2
Si
F,1,sif
F,1,sif,2,109.47122063
F,1,sif,2,109.47122063,3,120.,0
F,1,sif,2,109.47122063,3,-120.,0

 sif=1.57895122

$end

$comment
negative
$end

$xc_functional
C PBE   1.00
X wPBE  1.00
$end

$rem
SYMMETRY_DECOMPOSITION	0
exchange 		general
LRC_DFT                 true
BASIS                   g3large
omega			520
mem_static              760
max_scf_cycles          200
scf_final_print         1
sym_ignore              true
$end

--------------------------------------------------------------
 Writing REM_CC_EA            5
 ----------------------------------------------------
       Standard Nuclear Orientation (Angstroms)
    I     Atom         X            Y            Z
 ----------------------------------------------------
    1      Si      0.000000     0.000000     0.000000
    2      F       0.000000     0.000000     1.578951
    3      F       1.488649     0.000000    -0.526317
    4      F      -0.744325    -1.289208    -0.526317
    5      F      -0.744325     1.289208    -0.526317
 ----------------------------------------------------
 Nuclear Repulsion Energy =   268.6563891850 hartrees
 There are       26 alpha and       25 beta electrons
 Requested basis set is G3large
 There are 59 shells and 234 basis functions

Total QAlloc Memory Limit   2000 MB
Mega-Array Size       743 MB
MEM_STATIC part       760 MB

                       Distance Matrix (Angstroms)
             Si(  1)   F (  2)   F (  3)   F (  4)
   F (  2)  1.578951
   F (  3)  1.578951  2.578417
   F (  4)  1.578951  2.578417  2.578417
   F (  5)  1.578951  2.578417  2.578417  2.578417
 
 A cutoff of  1.0D-08 yielded   1420 shell pairs
 There are  23083 function pairs ( 31060 Cartesian)
Evaluating contribution to one-electron hamiltonian from nuclear
 Smallest overlap matrix eigenvalue = 1.53E-04
 Multipole matrices computed through 2nd order

  Scale SEOQF with 1.000000e-01/1.000000e-01/1.000000e-01

 Standard Electronic Orientation quadrupole field applied
 Guess from superposition of atomic densities
 Warning:  Energy on first SCF cycle will be non-variational
 Long-range K will be added via erf
 Coulomb attenuation parameter = 0.52 bohr**(-1)
 An unrestricted Kohn-Sham SCF calculation will be
 performed using Pulay DIIS extrapolation
 Exchange:  wPBE + LR-HF      Correlation:  PBE
 Using SG-1 standard quadrature grid
 SCF converges when DIIS error is below 1.0E-05
 Requested basis set is G3large
 There are 59 shells and 234 basis functions
 A cutoff of  1.0D-08 yielded   1420 shell pairs
 There are  23083 function pairs ( 31060 Cartesian)
 Warning!  Inaccurate integrated density:
   Number of electrons =    51
   Numerical integral  =    50.000108853607
   Relative error      =    -1.9605708753 %
 ---------------------------------------
  Cycle       Energy         DIIS Error
 ---------------------------------------
    1    -689.4262414252      2.73E-02
    2    -688.8048261572      5.53E-03
    3    -688.8599769542      5.42E-03
    4    -688.9608159392      3.58E-04
    5    -688.9653542776      1.84E-04
    6    -688.9668887873      1.16E-04
    7    -688.9676011851      5.17E-05
    8    -688.9678411160      1.24E-05
    9    -688.9678562704      2.31E-06 Convergence criterion met
 ---------------------------------------
 One-Electron    Energy = -1502.3290299093
 Total Coulomb   Energy =   607.5372679337
 Alpha Exchange  Energy =    -6.6954399556
 Beta  Exchange  Energy =    -6.6128810444
 DFT   Exchange  Energy =   -47.7312049919
 DFT Correlation Energy =    -1.7929574879
 Nuclear Repu.   Energy =   268.6563891850
 Nuclear Attr.   Energy = -2189.9276312266
 Kinetic         Energy =   687.5986013173
 <S^2> = 0.7507
 SCF time:  CPU 165.03 s  wall 167.80 s
 Final Alpha MO Eigenvalues
            1           2           3           4           5           6
    1 -65.6577114 -24.3929133 -24.3928151 -24.3927703 -24.3926814  -5.3055858
            7           8           9          10          11          12
    1  -3.7006466  -3.7006177  -3.7006150  -1.2724541  -1.2326060  -1.2325181
           13          14          15          16          17          18
    1  -1.2324376  -0.6174294  -0.5419799  -0.5419283  -0.5418859  -0.4862528
           19          20          21          22          23          24
    1  -0.4862497  -0.4749994  -0.4749955  -0.4749888  -0.4360430  -0.4360099
           25          26          27          28          29          30
    1  -0.4359567   0.0365235   0.1647032   0.1647175   0.1647245   0.3243727
           31
    1   0.3383629
 Final Beta MO Eigenvalues
            1           2           3           4           5           6
    1 -65.6574355 -24.3924404 -24.3923429 -24.3922993 -24.3922078  -5.3052041
            7           8           9          10          11          12
    1  -3.7002531  -3.7002237  -3.7002213  -1.2707226  -1.2308388  -1.2307497
           13          14          15          16          17          18
    1  -1.2306663  -0.6156033  -0.5407366  -0.5406894  -0.5406498  -0.4858022
           19          20          21          22          23          24
    1  -0.4857994  -0.4731416  -0.4731368  -0.4731292  -0.4364569  -0.4364236
           25          26          27          28          29          30
    1  -0.4363730   0.1772488   0.1812701   0.1812965   0.1813177   0.3472803
 Analysis of SCF Wavefunction
 
 --------------------------------------------------------------
                    Orbital Energies (a.u.)
 --------------------------------------------------------------
 
 Alpha MOs
 -- Occupied --
-65.658 -24.393 -24.393 -24.393 -24.393  -5.306  -3.701  -3.701
 -3.701  -1.272  -1.233  -1.233  -1.232  -0.617  -0.542  -0.542
 -0.542  -0.486  -0.486  -0.475  -0.475  -0.475  -0.436  -0.436
 -0.436   0.037
 -- Virtual --
  0.165   0.165   0.165   0.324   0.338   0.338   0.338   0.420
  0.420   0.420   0.420   0.420   0.461   0.461   0.461   0.465
  0.524   0.524   0.524   0.575   0.608   0.608   0.608   0.616
  0.616   0.616   0.632   0.632   0.818   0.818   0.818   0.902
  0.937   0.937   0.937   0.986   0.986   0.986   1.085   1.085
  1.125   1.246   1.246   1.246   1.612   1.612   1.645   1.646
  1.646   1.658   1.658   1.658   1.700   1.707   1.707   1.707
  1.836   1.837   1.837   1.994   1.994   1.994   2.212   2.212
  2.213   2.293   2.293   2.351   2.351   2.351   2.371   2.371
  2.371   2.400   2.511   2.511   2.511   2.736   2.736   2.738
  2.924   2.924   2.924   3.155   3.155   3.155   3.400   3.401
  3.401   3.572   4.013   4.014   4.467   4.468   4.470   6.208
  6.422   6.422   6.517   6.517   6.517   6.549   6.549   6.549
  6.677   6.677   6.677   6.822   6.864   6.864   6.865   6.866
  6.866   6.892   6.900   6.900   6.900   6.907   6.908   6.908
  6.932   6.944   6.944   6.944   6.985   6.985   6.985   7.084
  7.084   7.186   7.187   7.187   7.366   7.366   7.367   7.757
  9.305   9.305   9.327   9.327   9.328   9.428   9.428   9.428
  9.587   9.587   9.587   9.652   9.652   9.653   9.689   9.689
  9.954   9.954   9.954  10.335  12.455  12.456  12.456  17.787
 17.848  17.992  18.053  18.127  22.347  22.352  22.356  22.361
 22.367  22.367  22.431  50.292  50.300  50.301  50.323  50.331
 50.347  50.365  50.376  50.419  50.423  50.430  50.435  50.438
 50.451  50.458  50.464  50.621  50.637  50.656  50.657  55.796
 55.796  55.848  55.848  55.848  55.895  55.895  55.895  56.030
 56.030  56.030  56.069  66.853  66.853  66.853  66.950 141.909
 
 Beta MOs
 -- Occupied --
-65.657 -24.392 -24.392 -24.392 -24.392  -5.305  -3.700  -3.700
 -3.700  -1.271  -1.231  -1.231  -1.231  -0.616  -0.541  -0.541
 -0.541  -0.486  -0.486  -0.473  -0.473  -0.473  -0.436  -0.436
 -0.436
 -- Virtual --
  0.177   0.181   0.181   0.181   0.347   0.347   0.347   0.350
  0.423   0.423   0.424   0.424   0.424   0.465   0.465   0.465
  0.467   0.524   0.524   0.524   0.579   0.609   0.609   0.609
  0.615   0.615   0.615   0.636   0.636   0.818   0.818   0.818
  0.903   0.939   0.939   0.939   0.987   0.987   0.987   1.087
  1.087   1.125   1.248   1.248   1.248   1.612   1.612   1.646
  1.647   1.647   1.658   1.658   1.658   1.700   1.709   1.709
  1.709   1.837   1.837   1.837   1.995   1.995   1.995   2.213
  2.213   2.214   2.293   2.293   2.352   2.352   2.353   2.370
  2.370   2.371   2.402   2.511   2.511   2.511   2.736   2.736
  2.742   2.925   2.926   2.926   3.157   3.157   3.157   3.401
  3.401   3.401   3.573   4.014   4.015   4.468   4.469   4.471
  6.208   6.422   6.422   6.517   6.517   6.517   6.549   6.549
  6.549   6.678   6.678   6.678   6.823   6.864   6.864   6.866
  6.866   6.866   6.892   6.899   6.900   6.900   6.907   6.907
  6.908   6.932   6.944   6.944   6.944   6.985   6.986   6.986
  7.084   7.084   7.187   7.188   7.188   7.367   7.367   7.368
  7.759   9.305   9.305   9.328   9.328   9.328   9.428   9.428
  9.428   9.588   9.588   9.588   9.653   9.653   9.654   9.690
  9.690   9.955   9.955   9.955  10.336  12.456  12.457  12.457
 17.787  17.848  17.992  18.054  18.128  22.347  22.352  22.356
 22.361  22.367  22.368  22.431  50.292  50.299  50.300  50.322
 50.330  50.347  50.364  50.376  50.419  50.423  50.430  50.435
 50.438  50.451  50.458  50.464  50.621  50.637  50.656  50.657
 55.796  55.796  55.849  55.849  55.849  55.895  55.895  55.895
 56.030  56.031  56.031  56.069  66.853  66.854  66.854  66.951
141.910
 --------------------------------------------------------------
 
          Ground-State Mulliken Net Atomic Charges

     Atom                 Charge (a.u.)    Spin (a.u.)
  --------------------------------------------------------
      1 Si                   -0.976444       3.000017
      2 F                    -0.006263      -0.499725
      3 F                    -0.005894      -0.499802
      4 F                    -0.004941      -0.501122
      5 F                    -0.006458      -0.499368
  --------------------------------------------------------
  Sum of atomic charges =    -1.000000
  Sum of spin   charges =     1.000000

 -----------------------------------------------------------------
                    Cartesian Multipole Moments
 -----------------------------------------------------------------
    Charge (ESU x 10^10)
                -4.8032
    Dipole Moment (Debye)
         X      -0.0411      Y      -0.0325      Z       0.0064
       Tot       0.0528
    Quadrupole Moments (Debye-Ang)
        XX     -50.0544     XY      -0.0051     YY     -50.0662
        XZ      -0.0041     YZ      -0.0039     ZZ     -50.0626
    Octapole Moments (Debye-Ang^2)
       XXX      -2.2056    XXY      -0.1092    XYY       1.6644
       YYY      -0.3276    XXZ       1.2909    XYZ       0.0013
       YYZ       1.2944    XZZ      -0.1347    YZZ      -0.1101
       ZZZ      -2.4870
    Hexadecapole Moments (Debye-Ang^3)
      XXXX    -277.8571   XXXY      -0.0158   XXYY     -92.6651
      XYYY      -0.0375   YYYY    -277.9765   XXXZ       1.6084
      XXYZ      -0.0093   XYYZ      -1.6553   YYYZ      -0.0278
      XXZZ     -91.4720   XYZZ      -0.0072   YYZZ     -91.4862
      XZZZ       0.0006   YZZZ      -0.0090   ZZZZ    -279.1318
 -----------------------------------------------------------------
 Total job time:  168.17s(wall), 165.36s(cpu) 
 Tue Apr 30 22:01:52 2013

        *************************************************************
        *                                                           *
        *  Thank you very much for using Q-Chem.  Have a nice day.  *
        *                                                           *
        *************************************************************


0 sent ACK to 0 
now end server 0 ... 
 
**********************************************************************
Job 2 of 3 
**********************************************************************
 
Process 0 of 1 is on cl079.stfx.acenet.ca - thread support 1
initial socket setup ...start
initial socket setup ...done 
now start server 0 ... 

cmd = /usr/bin/ssh clhead /usr/local/qchem/bin/get_hostid 74172993 > /scratch/tmp/5955956.1.short.q/qchem32072/lic.dat
                  Welcome to Q-Chem
     A Quantum Leap Into The Future Of Chemistry

 Y. Shao, L. Fusti-Molnar, Y. Jung, J. Kussmann, C. Ochsenfeld,
 S. T. Brown, A. T. B. Gilbert, L. V. Slipchenko,S. V. Levchenko,
 D. P. O'Neill, R. A. DiStasio Jr., R. C. Lochan, T. Wang,
 G. J. O. Beran, N. A. Besley, J. M. Herbert, C. Y. Lin,
 T. Van Voorhis, S. H. Chien, A. Sodt, R. P. Steele, 
 V. A. Rassolov, P. E. Maslen, P. P. Korambath, R. D. Adamson,
 B. Austin, J. Baker, E. F. C. Byrd, H. Dachsel, R. J. Doerksen,
 A. Dreuw, B. D. Dunietz, A. D. Dutoi, T. R. Furlani,
 S. R. Gwaltney, A. Heyden, S. Hirata, C.-P. Hsu, G. Kedziora,
 R. Z. Khaliullin, P. Klunzinger, A. M. Lee, M. S. Lee, W. Liang,
 I. Lotan, N. Nair, B. Peters, E. I. Proynov, P. A. Pieniazek, 
 Y. M. Rhee, J. Ritchie, E. Rosta, C. D. Sherrill, 
 A. C. Simmonett, J. E. Subotnik, H. L. Woodcock III,
 W. Zhang, A. T. Bell, A. K. Chakraborty, D. M. Chipman,
 F. J. Keil, A. Warshel, W. J. Hehre, H. F. Schaefer III,
 J. Kong, A. I. Krylov, P. M. W. Gill, M. Head-Gordon,
 Q-Chem, Version 3.1, Q-Chem, Inc., Pittsburgh, PA (2007).

 Additional authors for Version 3.1: 
 Z. Gan, Y. Zhao, N. E. Schultz, D. Truhlar, E. Epifanovsky and M. Oana.

 Additional authors for Version 3.2: 
 R. Baer, B. R. Brooks, D. Casanova, J.-D. Chai, C.-L. Cheng, 
 C. Cramer, D. Crittenden, A. Ghysels, G. Hawkins, E. G. Hohenstein, 
 C. Kelley, W. Kurlancheek, D. Liotard, E. Livshits, P. Manohar, 
 A. Marenich, D. Neuhauser, R. Olson, M. A. Rohrdanz, K. S. Thanthiriwatte, 
 A. J. W. Thom, V. Vanovschi, C. F. Williams, Q. Wu and Z.-Q. You. 


 Intel X86 Linux Version

 Q-chem begins on Tue Apr 30 22:01:55 2013  

 Parallel job on  1  processors
Processing $rem in /usr/local/qchem/config/preferences.

theFileMan(): MAXOPENFILES=974 MAX_SUB_FILE_NUM=16
Maximum size of a physical file is 2.0 GB, maximum size of a tmp-file is 32.0 GB


--------------------------------------------------------------
User input:
--------------------------------------------------------------

$molecule
0,1
Si
F,1,sif
F,1,sif,2,109.47122063
F,1,sif,2,109.47122063,3,120.,0
F,1,sif,2,109.47122063,3,-120.,0

 sif=1.57895122

$end

$comment
neutral
$end

$xc_functional
C PBE   1.00
X wPBE  1.00
$end


$rem
SYMMETRY_DECOMPOSITION	0
LRC_DFT                 true
exchange 		general
BASIS                   g3large
omega			520
mem_static              760
max_scf_cycles          200
scf_final_print         1
sym_ignore              true
$end

--------------------------------------------------------------
 Writing REM_CC_EA            5
 ----------------------------------------------------
       Standard Nuclear Orientation (Angstroms)
    I     Atom         X            Y            Z
 ----------------------------------------------------
    1      Si      0.000000     0.000000     0.000000
    2      F       0.000000     0.000000     1.578951
    3      F       1.488649     0.000000    -0.526317
    4      F      -0.744325    -1.289208    -0.526317
    5      F      -0.744325     1.289208    -0.526317
 ----------------------------------------------------
 Nuclear Repulsion Energy =   268.6563891850 hartrees
 There are       25 alpha and       25 beta electrons
 Requested basis set is G3large
 There are 59 shells and 234 basis functions

Total QAlloc Memory Limit   2000 MB
Mega-Array Size       743 MB
MEM_STATIC part       760 MB

                       Distance Matrix (Angstroms)
             Si(  1)   F (  2)   F (  3)   F (  4)
   F (  2)  1.578951
   F (  3)  1.578951  2.578417
   F (  4)  1.578951  2.578417  2.578417
   F (  5)  1.578951  2.578417  2.578417  2.578417
 
 A cutoff of  1.0D-08 yielded   1420 shell pairs
 There are  23083 function pairs ( 31060 Cartesian)
Evaluating contribution to one-electron hamiltonian from nuclear
 Smallest overlap matrix eigenvalue = 1.53E-04
 Multipole matrices computed through 2nd order

  Scale SEOQF with 1.000000e-01/1.000000e-01/1.000000e-01

 Standard Electronic Orientation quadrupole field applied
 Guess from superposition of atomic densities
 Warning:  Energy on first SCF cycle will be non-variational
 Long-range K will be added via erf
 Coulomb attenuation parameter = 0.52 bohr**(-1)
 A restricted Kohn-Sham SCF calculation will be
 performed using Pulay DIIS extrapolation
 Exchange:  wPBE + LR-HF      Correlation:  PBE
 Using SG-1 standard quadrature grid
 SCF converges when DIIS error is below 1.0E-05
 Requested basis set is G3large
 There are 59 shells and 234 basis functions
 A cutoff of  1.0D-08 yielded   1420 shell pairs
 There are  23083 function pairs ( 31060 Cartesian)
 ---------------------------------------
  Cycle       Energy         DIIS Error
 ---------------------------------------
    1    -689.4262414252      2.73E-02
    2    -688.8885837598      5.19E-03
    3    -688.9353197732      4.65E-03
    4    -689.0083270229      3.28E-04
    5    -689.0088532498      8.84E-05
    6    -689.0089089720      4.28E-05
    7    -689.0089162070      1.28E-05
    8    -689.0089175049      2.04E-06 Convergence criterion met
 ---------------------------------------
 One-Electron    Energy = -1493.3864746479
 Total Coulomb   Energy =   598.4466886438
 Alpha Exchange  Energy =    -6.6148498835
 Beta  Exchange  Energy =    -6.6148498835
 DFT   Exchange  Energy =   -47.7135175619
 DFT Correlation Energy =    -1.7823033569
 Nuclear Repu.   Energy =   268.6563891850
 Nuclear Attr.   Energy = -2180.7528811512
 Kinetic         Energy =   687.3664065033
 SCF time:  CPU 120.36 s  wall 121.90 s
 Final Alpha MO Eigenvalues
            1           2           3           4           5           6
    1 -65.8443287 -24.5721718 -24.5721609 -24.5721506 -24.5721363  -5.4919498
            7           8           9          10          11          12
    1  -3.8870091  -3.8869773  -3.8869762  -1.4512556  -1.4103827  -1.4103738
           13          14          15          16          17          18
    1  -1.4103605  -0.7935407  -0.7186905  -0.7186861  -0.7186790  -0.6642067
           19          20          21          22          23          24
    1  -0.6642041  -0.6508268  -0.6508243  -0.6508181  -0.6142156  -0.6142132
           25          26          27          28          29          30
    1  -0.6141949   0.0458308   0.0663688   0.0663714   0.0663731   0.1849369
 Analysis of SCF Wavefunction
 
 --------------------------------------------------------------
                    Orbital Energies (a.u.)
 --------------------------------------------------------------
 
 Alpha MOs
 -- Occupied --
-65.844 -24.572 -24.572 -24.572 -24.572  -5.492  -3.887  -3.887
 -3.887  -1.451  -1.410  -1.410  -1.410  -0.794  -0.719  -0.719
 -0.719  -0.664  -0.664  -0.651  -0.651  -0.651  -0.614  -0.614
 -0.614
 -- Virtual --
  0.046   0.066   0.066   0.066   0.185   0.199   0.199   0.199
  0.279   0.279   0.280   0.280   0.280   0.309   0.309   0.309
  0.324   0.379   0.379   0.379   0.419   0.448   0.448   0.448
  0.464   0.464   0.471   0.471   0.471   0.662   0.662   0.662
  0.741   0.769   0.769   0.769   0.822   0.822   0.822   0.911
  0.911   0.958   1.066   1.066   1.066   1.443   1.443   1.481
  1.481   1.481   1.488   1.488   1.488   1.536   1.536   1.536
  1.539   1.666   1.666   1.666   1.815   1.815   1.815   2.036
  2.036   2.036   2.116   2.116   2.175   2.175   2.175   2.194
  2.194   2.194   2.225   2.334   2.334   2.334   2.558   2.558
  2.558   2.745   2.745   2.745   2.976   2.976   2.976   3.222
  3.222   3.223   3.395   3.829   3.830   4.286   4.287   4.289
  6.029   6.245   6.245   6.340   6.340   6.340   6.373   6.373
  6.373   6.500   6.500   6.500   6.645   6.686   6.686   6.688
  6.688   6.688   6.714   6.722   6.722   6.722   6.730   6.730
  6.730   6.754   6.766   6.766   6.766   6.807   6.807   6.807
  6.906   6.906   7.008   7.009   7.009   7.187   7.187   7.188
  7.577   9.127   9.127   9.150   9.150   9.150   9.250   9.250
  9.250   9.410   9.410   9.410   9.475   9.475   9.475   9.511
  9.511   9.776   9.777   9.777  10.158  12.271  12.272  12.272
 17.600  17.662  17.806  17.867  17.941  22.161  22.165  22.169
 22.175  22.180  22.181  22.245  50.113  50.120  50.121  50.143
 50.151  50.168  50.186  50.197  50.240  50.244  50.251  50.256
 50.259  50.272  50.279  50.285  50.442  50.457  50.477  50.478
 55.617  55.617  55.669  55.669  55.669  55.716  55.716  55.716
 55.851  55.851  55.851  55.890  66.674  66.674  66.674  66.771
141.723
 --------------------------------------------------------------
 
          Ground-State Mulliken Net Atomic Charges

     Atom                 Charge (a.u.)
  ----------------------------------------
      1 Si                    1.920095
      2 F                    -0.480054
      3 F                    -0.480112
      4 F                    -0.479962
      5 F                    -0.479966
  ----------------------------------------
  Sum of atomic charges =     0.000000

 -----------------------------------------------------------------
                    Cartesian Multipole Moments
 -----------------------------------------------------------------
    Charge (ESU x 10^10)
                 0.0000
    Dipole Moment (Debye)
         X       0.0004      Y       0.0000      Z       0.0001
       Tot       0.0004
    Quadrupole Moments (Debye-Ang)
        XX     -32.7707     XY       0.0001     YY     -32.7715
        XZ      -0.0003     YZ      -0.0001     ZZ     -32.7707
    Octapole Moments (Debye-Ang^2)
       XXX      -3.5794    XXY       0.0001    XYY       3.5804
       YYY       0.0002    XXZ       2.5313    XYZ       0.0000
       YYZ       2.5314    XZZ       0.0000    YZZ       0.0001
       ZZZ      -5.0628
    Hexadecapole Moments (Debye-Ang^3)
      XXXX    -128.6475   XXXY       0.0002   XXYY     -42.8837
      XYYY       0.0001   YYYY    -128.6503   XXXZ       1.3251
      XXYZ      -0.0001   XYYZ      -1.3260   YYYZ      -0.0003
      XXZZ     -41.9453   XYZZ       0.0000   YYZZ     -41.9456
      XZZZ      -0.0002   YZZZ      -0.0003   ZZZZ    -129.5850
 -----------------------------------------------------------------
 Total job time:  122.24s(wall), 120.68s(cpu) 
 Tue Apr 30 22:03:57 2013

        *************************************************************
        *                                                           *
        *  Thank you very much for using Q-Chem.  Have a nice day.  *
        *                                                           *
        *************************************************************


0 sent ACK to 0 
now end server 0 ... 
 
**********************************************************************
Job 3 of 3 
**********************************************************************
 
Process 0 of 1 is on cl079.stfx.acenet.ca - thread support 1
initial socket setup ...start
initial socket setup ...done 
now start server 0 ... 

cmd = /usr/bin/ssh clhead /usr/local/qchem/bin/get_hostid 699993442 > /scratch/tmp/5955956.1.short.q/qchem32072/lic.dat
                  Welcome to Q-Chem
     A Quantum Leap Into The Future Of Chemistry

 Y. Shao, L. Fusti-Molnar, Y. Jung, J. Kussmann, C. Ochsenfeld,
 S. T. Brown, A. T. B. Gilbert, L. V. Slipchenko,S. V. Levchenko,
 D. P. O'Neill, R. A. DiStasio Jr., R. C. Lochan, T. Wang,
 G. J. O. Beran, N. A. Besley, J. M. Herbert, C. Y. Lin,
 T. Van Voorhis, S. H. Chien, A. Sodt, R. P. Steele, 
 V. A. Rassolov, P. E. Maslen, P. P. Korambath, R. D. Adamson,
 B. Austin, J. Baker, E. F. C. Byrd, H. Dachsel, R. J. Doerksen,
 A. Dreuw, B. D. Dunietz, A. D. Dutoi, T. R. Furlani,
 S. R. Gwaltney, A. Heyden, S. Hirata, C.-P. Hsu, G. Kedziora,
 R. Z. Khaliullin, P. Klunzinger, A. M. Lee, M. S. Lee, W. Liang,
 I. Lotan, N. Nair, B. Peters, E. I. Proynov, P. A. Pieniazek, 
 Y. M. Rhee, J. Ritchie, E. Rosta, C. D. Sherrill, 
 A. C. Simmonett, J. E. Subotnik, H. L. Woodcock III,
 W. Zhang, A. T. Bell, A. K. Chakraborty, D. M. Chipman,
 F. J. Keil, A. Warshel, W. J. Hehre, H. F. Schaefer III,
 J. Kong, A. I. Krylov, P. M. W. Gill, M. Head-Gordon,
 Q-Chem, Version 3.1, Q-Chem, Inc., Pittsburgh, PA (2007).

 Additional authors for Version 3.1: 
 Z. Gan, Y. Zhao, N. E. Schultz, D. Truhlar, E. Epifanovsky and M. Oana.

 Additional authors for Version 3.2: 
 R. Baer, B. R. Brooks, D. Casanova, J.-D. Chai, C.-L. Cheng, 
 C. Cramer, D. Crittenden, A. Ghysels, G. Hawkins, E. G. Hohenstein, 
 C. Kelley, W. Kurlancheek, D. Liotard, E. Livshits, P. Manohar, 
 A. Marenich, D. Neuhauser, R. Olson, M. A. Rohrdanz, K. S. Thanthiriwatte, 
 A. J. W. Thom, V. Vanovschi, C. F. Williams, Q. Wu and Z.-Q. You. 


 Intel X86 Linux Version

 Q-chem begins on Tue Apr 30 22:04:00 2013  

 Parallel job on  1  processors
Processing $rem in /usr/local/qchem/config/preferences.

theFileMan(): MAXOPENFILES=974 MAX_SUB_FILE_NUM=16
Maximum size of a physical file is 2.0 GB, maximum size of a tmp-file is 32.0 GB


--------------------------------------------------------------
User input:
--------------------------------------------------------------

$molecule
1,2
Si
F,1,sif
F,1,sif,2,109.47122063
F,1,sif,2,109.47122063,3,120.,0
F,1,sif,2,109.47122063,3,-120.,0

 sif=1.57895122

$end

$comment
positive
$end

$xc_functional
C PBE   1.00
X wPBE  1.00
$end

$rem
SYMMETRY_DECOMPOSITION	0
LRC_DFT                 true
exchange 		general
BASIS                   g3large
omega			520
mem_static              760
max_scf_cycles          200
scf_final_print         1
sym_ignore              true
$end

--------------------------------------------------------------
 Writing REM_CC_EA            5
 ----------------------------------------------------
       Standard Nuclear Orientation (Angstroms)
    I     Atom         X            Y            Z
 ----------------------------------------------------
    1      Si      0.000000     0.000000     0.000000
    2      F       0.000000     0.000000     1.578951
    3      F       1.488649     0.000000    -0.526317
    4      F      -0.744325    -1.289208    -0.526317
    5      F      -0.744325     1.289208    -0.526317
 ----------------------------------------------------
 Nuclear Repulsion Energy =   268.6563891850 hartrees
 There are       25 alpha and       24 beta electrons
 Requested basis set is G3large
 There are 59 shells and 234 basis functions

Total QAlloc Memory Limit   2000 MB
Mega-Array Size       743 MB
MEM_STATIC part       760 MB

                       Distance Matrix (Angstroms)
             Si(  1)   F (  2)   F (  3)   F (  4)
   F (  2)  1.578951
   F (  3)  1.578951  2.578417
   F (  4)  1.578951  2.578417  2.578417
   F (  5)  1.578951  2.578417  2.578417  2.578417
 
 A cutoff of  1.0D-08 yielded   1420 shell pairs
 There are  23083 function pairs ( 31060 Cartesian)
Evaluating contribution to one-electron hamiltonian from nuclear
 Smallest overlap matrix eigenvalue = 1.53E-04
 Multipole matrices computed through 2nd order

  Scale SEOQF with 1.000000e-01/1.000000e-01/1.000000e-01

 Standard Electronic Orientation quadrupole field applied
 Guess from superposition of atomic densities
 Warning:  Energy on first SCF cycle will be non-variational
 Long-range K will be added via erf
 Coulomb attenuation parameter = 0.52 bohr**(-1)
 An unrestricted Kohn-Sham SCF calculation will be
 performed using Pulay DIIS extrapolation
 Exchange:  wPBE + LR-HF      Correlation:  PBE
 Using SG-1 standard quadrature grid
 SCF converges when DIIS error is below 1.0E-05
 Requested basis set is G3large
 There are 59 shells and 234 basis functions
 A cutoff of  1.0D-08 yielded   1420 shell pairs
 There are  23083 function pairs ( 31060 Cartesian)
 Warning!  Inaccurate integrated density:
   Number of electrons =    49
   Numerical integral  =    50.000108853607
   Relative error      =     2.0410384767 %
 ---------------------------------------
  Cycle       Energy         DIIS Error
 ---------------------------------------
    1    -689.4262414252      2.73E-02
    2    -688.1555079880      6.31E-03
    3    -687.9467187070      1.04E-02
    4    -688.3773365053      1.19E-03
    5    -688.3845558133      6.18E-04
    6    -688.3866706540      2.81E-04
    7    -688.3875858075      2.09E-04
    8    -688.3884058609      1.81E-04
    9    -688.3894148318      1.42E-04
   10    -688.3907664998      8.18E-05
   11    -688.3911160297      3.69E-05
   12    -688.3911983285      3.07E-05
   13    -688.3912853875      1.68E-05
   14    -688.3913443366      1.25E-05
   15    -688.3913797528      9.31E-06 Convergence criterion met
 ---------------------------------------
 One-Electron    Energy = -1478.5166265941
 Total Coulomb   Energy =   583.6502082097
 Alpha Exchange  Energy =    -6.6473815730
 Beta  Exchange  Energy =    -6.2854583595
 DFT   Exchange  Energy =   -47.5079305995
 DFT Correlation Energy =    -1.7405800215
 Nuclear Repu.   Energy =   268.6563891850
 Nuclear Attr.   Energy = -2165.4279296242
 Kinetic         Energy =   686.9113030302
 <S^2> = 0.7614
 SCF time:  CPU 288.39 s  wall 292.18 s
 Final Alpha MO Eigenvalues
            1           2           3           4           5           6
    1 -66.1343219 -24.9384295 -24.9367951 -24.8515534 -24.8508433  -5.7814841
            7           8           9          10          11          12
    1  -4.1774557  -4.1764644  -4.1755086  -1.7786559  -1.7553292  -1.6949055
           13          14          15          16          17          18
    1  -1.6792756  -1.0945038  -1.0381847  -1.0354784  -1.0099869  -0.9899497
           19          20          21          22          23          24
    1  -0.9816768  -0.9743042  -0.9400545  -0.9254378  -0.9181667  -0.8997892
           25          26          27          28          29          30
    1  -0.8853868  -0.1602125  -0.0884204  -0.0881575  -0.0870251  -0.0404774
 Final Beta MO Eigenvalues
            1           2           3           4           5           6
    1 -66.1345531 -24.9269956 -24.9255080 -24.8471927 -24.8465245  -5.7818652
            7           8           9          10          11          12
    1  -4.1779942  -4.1769955  -4.1758537  -1.7523744  -1.7225711  -1.6811568
           13          14          15          16          17          18
    1  -1.6675810  -1.0850687  -1.0211575  -0.9972567  -0.9866291  -0.9629376
           19          20          21          22          23          24
    1  -0.9330351  -0.9100167  -0.8986688  -0.8831456  -0.8625662  -0.8547549
           25          26          27          28          29
    1  -0.6212328  -0.1597628  -0.0872094  -0.0838926  -0.0833397
 Analysis of SCF Wavefunction
 
 --------------------------------------------------------------
                    Orbital Energies (a.u.)
 --------------------------------------------------------------
 
 Alpha MOs
 -- Occupied --
-66.134 -24.938 -24.937 -24.852 -24.851  -5.781  -4.177  -4.176
 -4.176  -1.779  -1.755  -1.695  -1.679  -1.095  -1.038  -1.035
 -1.010  -0.990  -0.982  -0.974  -0.940  -0.925  -0.918  -0.900
 -0.885
 -- Virtual --
 -0.160  -0.088  -0.088  -0.087  -0.040  -0.025  -0.021  -0.020
  0.079   0.086   0.090   0.095   0.096   0.115   0.118   0.124
  0.136   0.186   0.195   0.200   0.208   0.215   0.217   0.223
  0.224   0.229   0.289   0.289   0.291   0.447   0.451   0.455
  0.520   0.533   0.535   0.535   0.594   0.596   0.600   0.658
  0.659   0.723   0.773   0.785   0.798   1.176   1.184   1.201
  1.215   1.231   1.237   1.239   1.259   1.284   1.284   1.288
  1.311   1.410   1.414   1.422   1.519   1.536   1.547   1.753
  1.758   1.772   1.819   1.825   1.887   1.896   1.897   1.910
  1.918   1.919   1.954   2.042   2.054   2.066   2.264   2.271
  2.276   2.456   2.461   2.464   2.680   2.695   2.704   2.915
  2.936   2.962   3.118   3.543   3.546   4.005   4.007   4.012
  5.743   5.912   5.935   5.982   6.033   6.046   6.077   6.081
  6.091   6.186   6.194   6.218   6.338   6.352   6.356   6.370
  6.373   6.373   6.375   6.385   6.392   6.420   6.453   6.455
  6.460   6.463   6.471   6.480   6.483   6.493   6.509   6.532
  6.600   6.610   6.682   6.720   6.730   6.884   6.887   6.901
  7.281   8.774   8.788   8.794   8.834   8.855   8.919   8.942
  8.952   9.063   9.096   9.112   9.124   9.166   9.185   9.210
  9.227   9.438   9.469   9.505   9.858  11.978  11.984  11.988
 17.311  17.373  17.517  17.579  17.652  21.870  21.877  21.880
 21.885  21.891  21.892  21.955  49.749  49.770  49.774  49.791
 49.843  49.849  49.857  49.860  49.871  49.906  49.918  49.926
 49.968  49.987  49.992  50.000  50.114  50.117  50.164  50.180
 55.265  55.278  55.298  55.340  55.369  55.408  55.408  55.425
 55.494  55.507  55.573  55.598  66.310  66.337  66.396  66.466
141.433
 
 Beta MOs
 -- Occupied --
-66.135 -24.927 -24.926 -24.847 -24.847  -5.782  -4.178  -4.177
 -4.176  -1.752  -1.723  -1.681  -1.668  -1.085  -1.021  -0.997
 -0.987  -0.963  -0.933  -0.910  -0.899  -0.883  -0.863  -0.855
 -- Virtual --
 -0.621  -0.160  -0.087  -0.084  -0.083  -0.038  -0.025  -0.017
 -0.017   0.083   0.087   0.091   0.095   0.097   0.116   0.119
  0.124   0.136   0.190   0.196   0.201   0.210   0.216   0.217
  0.223   0.225   0.230   0.291   0.291   0.291   0.449   0.451
  0.455   0.520   0.534   0.536   0.538   0.596   0.596   0.600
  0.657   0.658   0.722   0.777   0.788   0.798   1.189   1.195
  1.220   1.226   1.236   1.244   1.245   1.261   1.286   1.287
  1.290   1.315   1.412   1.420   1.426   1.531   1.538   1.548
  1.759   1.765   1.773   1.839   1.843   1.902   1.906   1.912
  1.914   1.931   1.934   1.959   2.057   2.067   2.078   2.274
  2.278   2.280   2.461   2.468   2.472   2.690   2.698   2.705
  2.923   2.942   2.965   3.123   3.544   3.546   4.006   4.008
  4.012   5.746   5.946   5.955   6.032   6.045   6.061   6.093
  6.097   6.099   6.202   6.209   6.225   6.355   6.372   6.380
  6.389   6.400   6.402   6.405   6.416   6.417   6.428   6.465
  6.467   6.473   6.476   6.484   6.491   6.497   6.503   6.521
  6.537   6.613   6.619   6.704   6.727   6.735   6.894   6.897
  6.906   7.286   8.819   8.829   8.840   8.867   8.873   8.948
  8.967   8.976   9.101   9.111   9.123   9.166   9.178   9.202
  9.225   9.237   9.457   9.482   9.512   9.869  11.979  11.984
 11.988  17.310  17.372  17.517  17.578  17.651  21.870  21.876
 21.880  21.885  21.890  21.891  21.955  49.780  49.799  49.806
 49.819  49.860  49.861  49.876  49.885  49.902  49.912  49.932
 49.935  49.975  49.997  50.002  50.004  50.129  50.130  50.169
 50.185  55.284  55.295  55.330  55.348  55.379  55.415  55.418
 55.434  55.502  55.515  55.576  55.601  66.322  66.347  66.400
 66.472 141.433
 --------------------------------------------------------------
 
          Ground-State Mulliken Net Atomic Charges

     Atom                 Charge (a.u.)    Spin (a.u.)
  --------------------------------------------------------
      1 Si                    1.844045      -0.146477
      2 F                    -0.280354       0.161563
      3 F                    -0.282315       0.158947
      4 F                    -0.141918       0.410745
      5 F                    -0.139457       0.415222
  --------------------------------------------------------
  Sum of atomic charges =     1.000000
  Sum of spin   charges =     1.000000

 -----------------------------------------------------------------
                    Cartesian Multipole Moments
 -----------------------------------------------------------------
    Charge (ESU x 10^10)
                 4.8032
    Dipole Moment (Debye)
         X      -1.0971      Y       0.0142      Z      -0.7600
       Tot       1.3347
    Quadrupole Moments (Debye-Ang)
        XX     -26.8539     XY       0.0297     YY     -24.9399
        XZ       0.7474     YZ      -0.0727     ZZ     -27.3499
    Octapole Moments (Debye-Ang^2)
       XXX      -2.7111    XXY       0.0110    XYY      -0.5787
       YYY       0.0307    XXZ      -0.0015    XYZ       0.0102
       YYZ      -0.3874    XZZ      -0.6870    YZZ       0.0033
       ZZZ      -2.3642
    Hexadecapole Moments (Debye-Ang^3)
      XXXX    -110.6440   XXXY      -0.3524   XXYY     -35.8272
      XYYY       0.1789   YYYY    -103.2165   XXXZ       1.2003
      XXYZ      -0.0832   XYYZ       0.8269   YYYZ      -0.2913
      XXZZ     -36.9653   XYZZ       0.2657   YYZZ     -36.3979
      XZZZ       0.9929   YZZZ       0.1038   ZZZZ    -112.0952
 -----------------------------------------------------------------
 Total job time:  292.53s(wall), 288.72s(cpu) 
 Tue Apr 30 22:08:52 2013

        *************************************************************
        *                                                           *
        *  Thank you very much for using Q-Chem.  Have a nice day.  *
        *                                                           *
        *************************************************************


0 sent ACK to 0 
now end server 0 ... 
