Process 0 of 1 is on cl091.stfx.acenet.ca - thread support 1
initial socket setup ...start
initial socket setup ...done 
now start server 0 ... 

cmd = /usr/bin/ssh clhead /usr/local/qchem/bin/get_hostid 1654063838 > /scratch/tmp/6065028.1.short.q/qchem2292/lic.dat
                  Welcome to Q-Chem
     A Quantum Leap Into The Future Of Chemistry

 Y. Shao, L. Fusti-Molnar, Y. Jung, J. Kussmann, C. Ochsenfeld,
 S. T. Brown, A. T. B. Gilbert, L. V. Slipchenko,S. V. Levchenko,
 D. P. O'Neill, R. A. DiStasio Jr., R. C. Lochan, T. Wang,
 G. J. O. Beran, N. A. Besley, J. M. Herbert, C. Y. Lin,
 T. Van Voorhis, S. H. Chien, A. Sodt, R. P. Steele, 
 V. A. Rassolov, P. E. Maslen, P. P. Korambath, R. D. Adamson,
 B. Austin, J. Baker, E. F. C. Byrd, H. Dachsel, R. J. Doerksen,
 A. Dreuw, B. D. Dunietz, A. D. Dutoi, T. R. Furlani,
 S. R. Gwaltney, A. Heyden, S. Hirata, C.-P. Hsu, G. Kedziora,
 R. Z. Khaliullin, P. Klunzinger, A. M. Lee, M. S. Lee, W. Liang,
 I. Lotan, N. Nair, B. Peters, E. I. Proynov, P. A. Pieniazek, 
 Y. M. Rhee, J. Ritchie, E. Rosta, C. D. Sherrill, 
 A. C. Simmonett, J. E. Subotnik, H. L. Woodcock III,
 W. Zhang, A. T. Bell, A. K. Chakraborty, D. M. Chipman,
 F. J. Keil, A. Warshel, W. J. Hehre, H. F. Schaefer III,
 J. Kong, A. I. Krylov, P. M. W. Gill, M. Head-Gordon,
 Q-Chem, Version 3.1, Q-Chem, Inc., Pittsburgh, PA (2007).

 Additional authors for Version 3.1: 
 Z. Gan, Y. Zhao, N. E. Schultz, D. Truhlar, E. Epifanovsky and M. Oana.

 Additional authors for Version 3.2: 
 R. Baer, B. R. Brooks, D. Casanova, J.-D. Chai, C.-L. Cheng, 
 C. Cramer, D. Crittenden, A. Ghysels, G. Hawkins, E. G. Hohenstein, 
 C. Kelley, W. Kurlancheek, D. Liotard, E. Livshits, P. Manohar, 
 A. Marenich, D. Neuhauser, R. Olson, M. A. Rohrdanz, K. S. Thanthiriwatte, 
 A. J. W. Thom, V. Vanovschi, C. F. Williams, Q. Wu and Z.-Q. You. 


 Intel X86 Linux Version

 Q-chem begins on Mon Jul  8 16:55:20 2013  

 Parallel job on  1  processors
Processing $rem in /usr/local/qchem/config/preferences.

theFileMan(): MAXOPENFILES=974 MAX_SUB_FILE_NUM=16
Maximum size of a physical file is 2.0 GB, maximum size of a tmp-file is 32.0 GB


--------------------------------------------------------------
User input:
--------------------------------------------------------------

$molecule
-1,2
Si         0.00000        0.00000        0.00865
H          1.08915        0.00000        1.06584
H         -1.08915        0.00000        1.06584
$end

$comment
negative
$end

$xc_functional
C PBE   1.00
X wPBE  1.00
$end

$rem
SYMMETRY_DECOMPOSITION	0
exchange 		general
LRC_DFT                 true
BASIS                   g3large
omega			410
mem_static              760
max_scf_cycles          200
scf_final_print         1
sym_ignore              true
$end

--------------------------------------------------------------
 Writing REM_CC_EA            3
 ----------------------------------------------------
       Standard Nuclear Orientation (Angstroms)
    I     Atom         X            Y            Z
 ----------------------------------------------------
    1      Si      0.000000     0.000000     0.008650
    2      H       1.089150     0.000000     1.065840
    3      H      -1.089150     0.000000     1.065840
 ----------------------------------------------------
 Nuclear Repulsion Energy =    10.0046772308 hartrees
 There are        9 alpha and        8 beta electrons
 Requested basis set is G3large
 There are 31 shells and 86 basis functions

Total QAlloc Memory Limit   2000 MB
Mega-Array Size       743 MB
MEM_STATIC part       760 MB

                       Distance Matrix (Angstroms)
             Si(  1)   H (  2)
   H (  2)  1.517860
   H (  3)  1.517860  2.178300
 
 A cutoff of  1.0D-08 yielded    496 shell pairs
 There are   3877 function pairs (  5178 Cartesian)
Evaluating contribution to one-electron hamiltonian from nuclear
 Smallest overlap matrix eigenvalue = 2.05E-03
 Multipole matrices computed through 2nd order

  Scale SEOQF with 1.000000e-01/1.000000e-01/1.000000e-01

 Standard Electronic Orientation quadrupole field applied
 Nucleus-field energy     =    -0.0000000002 hartrees
 Guess from superposition of atomic densities
 Warning:  Energy on first SCF cycle will be non-variational
 Long-range K will be added via erf
 Coulomb attenuation parameter = 0.41 bohr**(-1)
 An unrestricted Kohn-Sham SCF calculation will be
 performed using Pulay DIIS extrapolation
 Exchange:  wPBE + LR-HF      Correlation:  PBE
 Using SG-1 standard quadrature grid
 SCF converges when DIIS error is below 1.0E-05
 Requested basis set is G3large
 There are 31 shells and 86 basis functions
 A cutoff of  1.0D-08 yielded    496 shell pairs
 There are   3877 function pairs (  5178 Cartesian)
 Warning!  Inaccurate integrated density:
   Number of electrons =    17
   Numerical integral  =    16.000000727468
   Relative error      =    -5.8823486620 %
 ---------------------------------------
  Cycle       Energy         DIIS Error
 ---------------------------------------
    1    -290.3024420892      2.20E-02
    2    -290.5128902968      2.95E-03
    3    -290.5407966239      1.44E-03
    4    -290.5441800260      4.33E-04
    5    -290.5455060025      1.80E-04
    6    -290.5460220396      6.24E-05
    7    -290.5461152722      1.95E-05
    8    -290.5461264707      7.91E-06 Convergence criterion met
 ---------------------------------------
 One-Electron    Energy =  -426.1318863145
 Total Coulomb   Energy =   147.2358642367
 Alpha Exchange  Energy =    -1.7943014264
 Beta  Exchange  Energy =    -1.6414223413
 DFT   Exchange  Energy =   -17.6408155035
 DFT Correlation Energy =    -0.5782423524
 Nuclear Repu.   Energy =    10.0046772306
 Nuclear Attr.   Energy =  -716.1925018115
 Kinetic         Energy =   290.0606154970
 <S^2> = 0.7632
 SCF time:  CPU 13.96 s  wall 14.19 s
 Final Alpha MO Eigenvalues
            1           2           3           4           5           6
    1 -65.3743503  -5.0323727  -3.4377207  -3.4334265  -3.4304852  -0.4207238
            7           8           9          10          11          12
    1  -0.2134474  -0.1166460  -0.0576672   0.1935977   0.2090811   0.2191053
           13          14
    1   0.2251469   0.2278535
 Final Beta MO Eigenvalues
            1           2           3           4           5           6
    1 -65.3723001  -5.0301775  -3.4323481  -3.4307719  -3.4296311  -0.3918930
            7           8           9          10          11          12
    1  -0.2102547  -0.1023478   0.1874892   0.1952322   0.2099667   0.2209122
           13
    1   0.2283960
 Analysis of SCF Wavefunction
 
 --------------------------------------------------------------
                    Orbital Energies (a.u.)
 --------------------------------------------------------------
 
 Alpha MOs
 -- Occupied --
-65.374  -5.032  -3.438  -3.433  -3.430  -0.421  -0.213  -0.117
 -0.058
 -- Virtual --
  0.194   0.209   0.219   0.225   0.228   0.261   0.348   0.385
  0.424   0.428   0.432   0.503   0.540   0.548   0.555   0.577
  0.719   0.745   0.777   0.782   0.784   0.792   0.799   0.824
  1.011   1.024   1.047   1.068   1.079   1.143   1.160   1.284
  1.368   1.382   1.502   1.581   1.617   1.647   1.711   1.800
  2.456   2.459   2.463   2.468   2.472   2.566   2.603   3.133
  3.196   3.839   3.841   3.884   3.986   4.091   4.340   4.351
  4.363   4.364   4.541   4.900   6.034  11.573  11.641  11.655
 17.737  17.802  17.853  17.854  18.111  22.447  22.449  22.451
 22.458  22.461  22.483  22.484 140.873
 
 Beta MOs
 -- Occupied --
-65.372  -5.030  -3.432  -3.431  -3.430  -0.392  -0.210  -0.102
 -- Virtual --
  0.187   0.195   0.210   0.221   0.228   0.274   0.275   0.352
  0.403   0.435   0.461   0.462   0.533   0.544   0.552   0.579
  0.589   0.724   0.749   0.791   0.800   0.805   0.807   0.814
  0.837   1.018   1.031   1.049   1.089   1.100   1.163   1.170
  1.284   1.381   1.393   1.505   1.610   1.621   1.652   1.716
  1.803   2.477   2.483   2.486   2.492   2.496   2.579   2.615
  3.133   3.196   3.847   3.849   3.885   3.999   4.091   4.339
  4.348   4.361   4.364   4.541   4.902   6.038  11.586  11.642
 11.656  17.738  17.809  17.857  17.858  18.112  22.449  22.450
 22.452  22.459  22.462  22.484  22.486 140.876
 --------------------------------------------------------------
 
          Ground-State Mulliken Net Atomic Charges

     Atom                 Charge (a.u.)    Spin (a.u.)
  --------------------------------------------------------
      1 Si                   -0.688841       1.084236
      2 H                    -0.155573      -0.042087
      3 H                    -0.155586      -0.042149
  --------------------------------------------------------
  Sum of atomic charges =    -1.000000
  Sum of spin   charges =     1.000000

 -----------------------------------------------------------------
                    Cartesian Multipole Moments
 -----------------------------------------------------------------
    Charge (ESU x 10^10)
                -4.8032
    Dipole Moment (Debye)
         X       0.0000      Y      -0.0070      Z      -0.0655
       Tot       0.0659
    Quadrupole Moments (Debye-Ang)
        XX     -22.3528     XY       0.0043     YY     -24.0211
        XZ       0.0000     YZ       0.0204     ZZ     -25.2851
    Octapole Moments (Debye-Ang^2)
       XXX       0.0003    XXY      -0.0101    XYY       0.0000
       YYY      -0.0290    XXZ      -4.7471    XYZ      -0.0043
       YYZ      -0.7800    XZZ       0.0005    YZZ      -0.0073
       ZZZ      -6.8087
    Hexadecapole Moments (Debye-Ang^3)
      XXXX     -69.8437   XXXY       0.0203   XXYY     -24.0044
      XYYY       0.0233   YYYY     -77.0733   XXXZ      -0.0001
      XXYZ       0.0285   XYYZ       0.0000   YYYZ       0.0728
      XXZZ     -28.1778   XYZZ       0.0053   YYZZ     -26.8768
      XZZZ       0.0002   YZZZ       0.0786   ZZZZ     -88.0232
 -----------------------------------------------------------------
 Total job time:  14.30s(wall), 14.06s(cpu) 
 Mon Jul  8 16:55:34 2013

        *************************************************************
        *                                                           *
        *  Thank you very much for using Q-Chem.  Have a nice day.  *
        *                                                           *
        *************************************************************


0 sent ACK to 0 
now end server 0 ... 
 
**********************************************************************
Job 2 of 3 
**********************************************************************
 
Process 0 of 1 is on cl091.stfx.acenet.ca - thread support 1
initial socket setup ...start
initial socket setup ...done 
now start server 0 ... 

cmd = /usr/bin/ssh clhead /usr/local/qchem/bin/get_hostid 1547679654 > /scratch/tmp/6065028.1.short.q/qchem2292/lic.dat
                  Welcome to Q-Chem
     A Quantum Leap Into The Future Of Chemistry

 Y. Shao, L. Fusti-Molnar, Y. Jung, J. Kussmann, C. Ochsenfeld,
 S. T. Brown, A. T. B. Gilbert, L. V. Slipchenko,S. V. Levchenko,
 D. P. O'Neill, R. A. DiStasio Jr., R. C. Lochan, T. Wang,
 G. J. O. Beran, N. A. Besley, J. M. Herbert, C. Y. Lin,
 T. Van Voorhis, S. H. Chien, A. Sodt, R. P. Steele, 
 V. A. Rassolov, P. E. Maslen, P. P. Korambath, R. D. Adamson,
 B. Austin, J. Baker, E. F. C. Byrd, H. Dachsel, R. J. Doerksen,
 A. Dreuw, B. D. Dunietz, A. D. Dutoi, T. R. Furlani,
 S. R. Gwaltney, A. Heyden, S. Hirata, C.-P. Hsu, G. Kedziora,
 R. Z. Khaliullin, P. Klunzinger, A. M. Lee, M. S. Lee, W. Liang,
 I. Lotan, N. Nair, B. Peters, E. I. Proynov, P. A. Pieniazek, 
 Y. M. Rhee, J. Ritchie, E. Rosta, C. D. Sherrill, 
 A. C. Simmonett, J. E. Subotnik, H. L. Woodcock III,
 W. Zhang, A. T. Bell, A. K. Chakraborty, D. M. Chipman,
 F. J. Keil, A. Warshel, W. J. Hehre, H. F. Schaefer III,
 J. Kong, A. I. Krylov, P. M. W. Gill, M. Head-Gordon,
 Q-Chem, Version 3.1, Q-Chem, Inc., Pittsburgh, PA (2007).

 Additional authors for Version 3.1: 
 Z. Gan, Y. Zhao, N. E. Schultz, D. Truhlar, E. Epifanovsky and M. Oana.

 Additional authors for Version 3.2: 
 R. Baer, B. R. Brooks, D. Casanova, J.-D. Chai, C.-L. Cheng, 
 C. Cramer, D. Crittenden, A. Ghysels, G. Hawkins, E. G. Hohenstein, 
 C. Kelley, W. Kurlancheek, D. Liotard, E. Livshits, P. Manohar, 
 A. Marenich, D. Neuhauser, R. Olson, M. A. Rohrdanz, K. S. Thanthiriwatte, 
 A. J. W. Thom, V. Vanovschi, C. F. Williams, Q. Wu and Z.-Q. You. 


 Intel X86 Linux Version

 Q-chem begins on Mon Jul  8 16:55:37 2013  

 Parallel job on  1  processors
Processing $rem in /usr/local/qchem/config/preferences.

theFileMan(): MAXOPENFILES=974 MAX_SUB_FILE_NUM=16
Maximum size of a physical file is 2.0 GB, maximum size of a tmp-file is 32.0 GB


--------------------------------------------------------------
User input:
--------------------------------------------------------------

$molecule
0,1
Si         0.00000        0.00000        0.00865
H          1.08915        0.00000        1.06584
H         -1.08915        0.00000        1.06584
$end

$comment
neutral
$end

$xc_functional
C PBE   1.00
X wPBE  1.00
$end


$rem
SYMMETRY_DECOMPOSITION	0
LRC_DFT                 true
exchange 		general
BASIS                   g3large
omega			410
mem_static              760
max_scf_cycles          200
scf_final_print         1
sym_ignore              true
$end

--------------------------------------------------------------
 Writing REM_CC_EA            3
 ----------------------------------------------------
       Standard Nuclear Orientation (Angstroms)
    I     Atom         X            Y            Z
 ----------------------------------------------------
    1      Si      0.000000     0.000000     0.008650
    2      H       1.089150     0.000000     1.065840
    3      H      -1.089150     0.000000     1.065840
 ----------------------------------------------------
 Nuclear Repulsion Energy =    10.0046772308 hartrees
 There are        8 alpha and        8 beta electrons
 Requested basis set is G3large
 There are 31 shells and 86 basis functions

Total QAlloc Memory Limit   2000 MB
Mega-Array Size       743 MB
MEM_STATIC part       760 MB

                       Distance Matrix (Angstroms)
             Si(  1)   H (  2)
   H (  2)  1.517860
   H (  3)  1.517860  2.178300
 
 A cutoff of  1.0D-08 yielded    496 shell pairs
 There are   3877 function pairs (  5178 Cartesian)
Evaluating contribution to one-electron hamiltonian from nuclear
 Smallest overlap matrix eigenvalue = 2.05E-03
 Multipole matrices computed through 2nd order

  Scale SEOQF with 1.000000e-01/1.000000e-01/1.000000e-01

 Standard Electronic Orientation quadrupole field applied
 Nucleus-field energy     =    -0.0000000002 hartrees
 Guess from superposition of atomic densities
 Warning:  Energy on first SCF cycle will be non-variational
 Long-range K will be added via erf
 Coulomb attenuation parameter = 0.41 bohr**(-1)
 A restricted Kohn-Sham SCF calculation will be
 performed using Pulay DIIS extrapolation
 Exchange:  wPBE + LR-HF      Correlation:  PBE
 Using SG-1 standard quadrature grid
 SCF converges when DIIS error is below 1.0E-05
 Requested basis set is G3large
 There are 31 shells and 86 basis functions
 A cutoff of  1.0D-08 yielded    496 shell pairs
 There are   3877 function pairs (  5178 Cartesian)
 ---------------------------------------
  Cycle       Energy         DIIS Error
 ---------------------------------------
    1    -290.3024420892      2.20E-02
    2    -290.4842021673      2.16E-03
    3    -290.4963016568      8.01E-04
    4    -290.4989616541      4.15E-04
    5    -290.4998976535      1.77E-04
    6    -290.5001420802      5.33E-05
    7    -290.5001637977      1.16E-05
    8    -290.5001647956      5.24E-06 Convergence criterion met
 ---------------------------------------
 One-Electron    Energy =  -421.9459049105
 Total Coulomb   Energy =   142.8989384365
 Alpha Exchange  Energy =    -1.6525420280
 Beta  Exchange  Energy =    -1.6525420280
 DFT   Exchange  Energy =   -17.5979420428
 DFT Correlation Energy =    -0.5548494534
 Nuclear Repu.   Energy =    10.0046772306
 Nuclear Attr.   Energy =  -711.9338743036
 Kinetic         Energy =   289.9879693931
 SCF time:  CPU 11.83 s  wall 12.13 s
 Final Alpha MO Eigenvalues
            1           2           3           4           5           6
    1 -65.6488606  -5.3050018  -3.7145511  -3.7039294  -3.7004968  -0.6499493
            7           8           9          10          11          12
    1  -0.4469277  -0.3487207  -0.0325057   0.0553566   0.0708305   0.0843209
           13
    1   0.0899340
 Analysis of SCF Wavefunction
 
 --------------------------------------------------------------
                    Orbital Energies (a.u.)
 --------------------------------------------------------------
 
 Alpha MOs
 -- Occupied --
-65.649  -5.305  -3.715  -3.704  -3.700  -0.650  -0.447  -0.349
 -- Virtual --
 -0.033   0.055   0.071   0.084   0.090   0.090   0.115   0.161
  0.200   0.227   0.233   0.235   0.324   0.349   0.357   0.367
  0.396   0.511   0.543   0.569   0.576   0.578   0.586   0.593
  0.618   0.800   0.816   0.817   0.829   0.839   0.910   0.937
  1.071   1.144   1.159   1.279   1.343   1.384   1.410   1.489
  1.574   2.202   2.206   2.209   2.214   2.220   2.318   2.356
  2.904   2.966   3.568   3.571   3.624   3.716   3.846   4.108
  4.122   4.133   4.135   4.309   4.659   5.771  11.302  11.372
 11.386  17.468  17.527  17.578  17.580  17.842  22.170  22.175
 22.178  22.185  22.188  22.213  22.214 140.600
 --------------------------------------------------------------
 
          Ground-State Mulliken Net Atomic Charges

     Atom                 Charge (a.u.)
  ----------------------------------------
      1 Si                    0.099230
      2 H                    -0.049617
      3 H                    -0.049613
  ----------------------------------------
  Sum of atomic charges =     0.000000

 -----------------------------------------------------------------
                    Cartesian Multipole Moments
 -----------------------------------------------------------------
    Charge (ESU x 10^10)
                 0.0000
    Dipole Moment (Debye)
         X       0.0000      Y      -0.0019      Z       0.3078
       Tot       0.3078
    Quadrupole Moments (Debye-Ang)
        XX     -15.9480     XY      -0.0004     YY     -12.2970
        XZ       0.0000     YZ       0.0046     ZZ     -17.9505
    Octapole Moments (Debye-Ang^2)
       XXX      -0.0001    XXY       0.0000    XYY       0.0000
       YYY      -0.0056    XXZ      -3.1167    XYZ      -0.0002
       YYZ      -1.1505    XZZ       0.0000    YZZ       0.0010
       ZZZ      -6.2003
    Hexadecapole Moments (Debye-Ang^3)
      XXXX     -42.1164   XXXY      -0.0006   XXYY      -9.8831
      XYYY      -0.0006   YYYY     -16.8123   XXXZ      -0.0001
      XXYZ       0.0037   XYYZ       0.0000   YYYZ       0.0083
      XXZZ     -15.4407   XYZZ      -0.0002   YYZZ     -11.1819
      XZZZ       0.0000   YZZZ       0.0089   ZZZZ     -50.1874
 -----------------------------------------------------------------
 Total job time:  12.23s(wall), 11.92s(cpu) 
 Mon Jul  8 16:55:49 2013

        *************************************************************
        *                                                           *
        *  Thank you very much for using Q-Chem.  Have a nice day.  *
        *                                                           *
        *************************************************************


0 sent ACK to 0 
now end server 0 ... 
 
**********************************************************************
Job 3 of 3 
**********************************************************************
 
Process 0 of 1 is on cl091.stfx.acenet.ca - thread support 1
initial socket setup ...start
initial socket setup ...done 
now start server 0 ... 

cmd = /usr/bin/ssh clhead /usr/local/qchem/bin/get_hostid 2053610721 > /scratch/tmp/6065028.1.short.q/qchem2292/lic.dat
                  Welcome to Q-Chem
     A Quantum Leap Into The Future Of Chemistry

 Y. Shao, L. Fusti-Molnar, Y. Jung, J. Kussmann, C. Ochsenfeld,
 S. T. Brown, A. T. B. Gilbert, L. V. Slipchenko,S. V. Levchenko,
 D. P. O'Neill, R. A. DiStasio Jr., R. C. Lochan, T. Wang,
 G. J. O. Beran, N. A. Besley, J. M. Herbert, C. Y. Lin,
 T. Van Voorhis, S. H. Chien, A. Sodt, R. P. Steele, 
 V. A. Rassolov, P. E. Maslen, P. P. Korambath, R. D. Adamson,
 B. Austin, J. Baker, E. F. C. Byrd, H. Dachsel, R. J. Doerksen,
 A. Dreuw, B. D. Dunietz, A. D. Dutoi, T. R. Furlani,
 S. R. Gwaltney, A. Heyden, S. Hirata, C.-P. Hsu, G. Kedziora,
 R. Z. Khaliullin, P. Klunzinger, A. M. Lee, M. S. Lee, W. Liang,
 I. Lotan, N. Nair, B. Peters, E. I. Proynov, P. A. Pieniazek, 
 Y. M. Rhee, J. Ritchie, E. Rosta, C. D. Sherrill, 
 A. C. Simmonett, J. E. Subotnik, H. L. Woodcock III,
 W. Zhang, A. T. Bell, A. K. Chakraborty, D. M. Chipman,
 F. J. Keil, A. Warshel, W. J. Hehre, H. F. Schaefer III,
 J. Kong, A. I. Krylov, P. M. W. Gill, M. Head-Gordon,
 Q-Chem, Version 3.1, Q-Chem, Inc., Pittsburgh, PA (2007).

 Additional authors for Version 3.1: 
 Z. Gan, Y. Zhao, N. E. Schultz, D. Truhlar, E. Epifanovsky and M. Oana.

 Additional authors for Version 3.2: 
 R. Baer, B. R. Brooks, D. Casanova, J.-D. Chai, C.-L. Cheng, 
 C. Cramer, D. Crittenden, A. Ghysels, G. Hawkins, E. G. Hohenstein, 
 C. Kelley, W. Kurlancheek, D. Liotard, E. Livshits, P. Manohar, 
 A. Marenich, D. Neuhauser, R. Olson, M. A. Rohrdanz, K. S. Thanthiriwatte, 
 A. J. W. Thom, V. Vanovschi, C. F. Williams, Q. Wu and Z.-Q. You. 


 Intel X86 Linux Version

 Q-chem begins on Mon Jul  8 16:55:52 2013  

 Parallel job on  1  processors
Processing $rem in /usr/local/qchem/config/preferences.

theFileMan(): MAXOPENFILES=974 MAX_SUB_FILE_NUM=16
Maximum size of a physical file is 2.0 GB, maximum size of a tmp-file is 32.0 GB


--------------------------------------------------------------
User input:
--------------------------------------------------------------

$molecule
1,2
Si         0.00000        0.00000        0.00865
H          1.08915        0.00000        1.06584
H         -1.08915        0.00000        1.06584
$end

$comment
positive
$end

$xc_functional
C PBE   1.00
X wPBE  1.00
$end

$rem
SYMMETRY_DECOMPOSITION	0
LRC_DFT                 true
exchange 		general
BASIS                   g3large
omega			410
mem_static              760
max_scf_cycles          200
scf_final_print         1
sym_ignore              true
$end

--------------------------------------------------------------
 Writing REM_CC_EA            3
 ----------------------------------------------------
       Standard Nuclear Orientation (Angstroms)
    I     Atom         X            Y            Z
 ----------------------------------------------------
    1      Si      0.000000     0.000000     0.008650
    2      H       1.089150     0.000000     1.065840
    3      H      -1.089150     0.000000     1.065840
 ----------------------------------------------------
 Nuclear Repulsion Energy =    10.0046772308 hartrees
 There are        8 alpha and        7 beta electrons
 Requested basis set is G3large
 There are 31 shells and 86 basis functions

Total QAlloc Memory Limit   2000 MB
Mega-Array Size       743 MB
MEM_STATIC part       760 MB

                       Distance Matrix (Angstroms)
             Si(  1)   H (  2)
   H (  2)  1.517860
   H (  3)  1.517860  2.178300
 
 A cutoff of  1.0D-08 yielded    496 shell pairs
 There are   3877 function pairs (  5178 Cartesian)
Evaluating contribution to one-electron hamiltonian from nuclear
 Smallest overlap matrix eigenvalue = 2.05E-03
 Multipole matrices computed through 2nd order

  Scale SEOQF with 1.000000e-01/1.000000e-01/1.000000e-01

 Standard Electronic Orientation quadrupole field applied
 Nucleus-field energy     =    -0.0000000002 hartrees
 Guess from superposition of atomic densities
 Warning:  Energy on first SCF cycle will be non-variational
 Long-range K will be added via erf
 Coulomb attenuation parameter = 0.41 bohr**(-1)
 An unrestricted Kohn-Sham SCF calculation will be
 performed using Pulay DIIS extrapolation
 Exchange:  wPBE + LR-HF      Correlation:  PBE
 Using SG-1 standard quadrature grid
 SCF converges when DIIS error is below 1.0E-05
 Requested basis set is G3large
 There are 31 shells and 86 basis functions
 A cutoff of  1.0D-08 yielded    496 shell pairs
 There are   3877 function pairs (  5178 Cartesian)
 Warning!  Inaccurate integrated density:
   Number of electrons =    15
   Numerical integral  =    16.000000727468
   Relative error      =     6.6666715165 %
 ---------------------------------------
  Cycle       Energy         DIIS Error
 ---------------------------------------
    1    -290.3024420892      2.20E-02
    2    -290.1058013925      4.09E-03
    3    -290.1495781707      1.72E-03
    4    -290.1535965526      5.79E-04
    5    -290.1550032287      2.46E-04
    6    -290.1555137792      8.87E-05
    7    -290.1555870226      1.78E-05
    8    -290.1555906375      6.65E-06 Convergence criterion met
 ---------------------------------------
 One-Electron    Energy =  -416.7238567887
 Total Coulomb   Energy =   137.7600480819
 Alpha Exchange  Energy =    -1.6679642606
 Beta  Exchange  Energy =    -1.4862517803
 DFT   Exchange  Energy =   -17.5216125326
 DFT Correlation Energy =    -0.5206305879
 Nuclear Repu.   Energy =    10.0046772306
 Nuclear Attr.   Energy =  -706.3510376390
 Kinetic         Energy =   289.6271808503
 <S^2> = 0.7549
 SCF time:  CPU 13.62 s  wall 14.01 s
 Final Alpha MO Eigenvalues
            1           2           3           4           5           6
    1 -66.0012109  -5.6526886  -4.0618937  -4.0540405  -4.0483730  -0.9556643
            7           8           9          10          11          12
    1  -0.7333405  -0.6885457  -0.3032491  -0.1599373  -0.1159298  -0.0764338
           13
    1  -0.0673475
 Final Beta MO Eigenvalues
            1           2           3           4           5           6
    1 -65.9979557  -5.6487368  -4.0591032  -4.0461616  -4.0448658  -0.9140742
            7           8           9          10          11          12
    1  -0.7145828  -0.3389497  -0.2799688  -0.1194524  -0.1100616  -0.0694701
 Analysis of SCF Wavefunction
 
 --------------------------------------------------------------
                    Orbital Energies (a.u.)
 --------------------------------------------------------------
 
 Alpha MOs
 -- Occupied --
-66.001  -5.653  -4.062  -4.054  -4.048  -0.956  -0.733  -0.689
 -- Virtual --
 -0.303  -0.160  -0.116  -0.076  -0.067  -0.065  -0.062  -0.030
 -0.018  -0.010  -0.008   0.005   0.112   0.138   0.143   0.156
  0.184   0.263   0.307   0.323   0.335   0.336   0.341   0.351
  0.383   0.518   0.535   0.544   0.550   0.567   0.629   0.671
  0.815   0.886   0.900   1.010   1.054   1.076   1.114   1.225
  1.297   1.875   1.881   1.881   1.892   1.894   2.000   2.036
  2.614   2.675   3.229   3.239   3.287   3.387   3.528   3.819
  3.829   3.843   3.843   4.016   4.350   5.432  10.959  11.022
 11.046  17.118  17.180  17.229  17.234  17.493  21.823  21.828
 21.832  21.838  21.841  21.866  21.866 140.248
 
 Beta MOs
 -- Occupied --
-65.998  -5.649  -4.059  -4.046  -4.045  -0.914  -0.715
 -- Virtual --
 -0.339  -0.280  -0.119  -0.110  -0.069  -0.063  -0.059  -0.057
 -0.005  -0.003  -0.003   0.012   0.018   0.121   0.146   0.158
  0.162   0.198   0.279   0.319   0.337   0.345   0.345   0.354
  0.361   0.392   0.541   0.553   0.566   0.568   0.586   0.646
  0.683   0.830   0.896   0.913   1.025   1.067   1.108   1.128
  1.240   1.315   1.905   1.908   1.914   1.919   1.926   2.029
  2.065   2.638   2.697   3.242   3.243   3.297   3.396   3.544
  3.841   3.852   3.865   3.867   4.038   4.371   5.444  10.964
 11.036  11.049  17.126  17.184  17.236  17.236  17.500  21.825
 21.832  21.833  21.840  21.844  21.869  21.870 140.252
 --------------------------------------------------------------
 
          Ground-State Mulliken Net Atomic Charges

     Atom                 Charge (a.u.)    Spin (a.u.)
  --------------------------------------------------------
      1 Si                    0.760186       0.764434
      2 H                     0.119994       0.118685
      3 H                     0.119820       0.116881
  --------------------------------------------------------
  Sum of atomic charges =     1.000000
  Sum of spin   charges =     1.000000

 -----------------------------------------------------------------
                    Cartesian Multipole Moments
 -----------------------------------------------------------------
    Charge (ESU x 10^10)
                 4.8032
    Dipole Moment (Debye)
         X       0.0008      Y      -0.0031      Z       0.1943
       Tot       0.1944
    Quadrupole Moments (Debye-Ang)
        XX     -10.7977     XY       0.0000     YY      -8.8494
        XZ       0.0041     YZ       0.0064     ZZ      -9.9152
    Octapole Moments (Debye-Ang^2)
       XXX       0.0020    XXY       0.0003    XYY      -0.0001
       YYY      -0.0049    XXZ      -0.7868    XYZ       0.0000
       YYZ      -2.0575    XZZ       0.0033    YZZ      -0.0009
       ZZZ      -3.7486
    Hexadecapole Moments (Debye-Ang^3)
      XXXX     -26.3964   XXXY       0.0000   XXYY      -6.4315
      XYYY       0.0000   YYYY      -8.8925   XXXZ       0.0069
      XXYZ       0.0034   XYYZ       0.0017   YYYZ       0.0080
      XXZZ      -6.0443   XYZZ       0.0000   YYZZ      -5.9876
      XZZZ       0.0072   YZZZ       0.0087   ZZZZ     -23.2274
 -----------------------------------------------------------------
 Total job time:  14.12s(wall), 13.72s(cpu) 
 Mon Jul  8 16:56:06 2013

        *************************************************************
        *                                                           *
        *  Thank you very much for using Q-Chem.  Have a nice day.  *
        *                                                           *
        *************************************************************


0 sent ACK to 0 
now end server 0 ... 
