Process 0 of 1 is on cl212.stfx.acenet.ca - thread support 1
initial socket setup ...start
initial socket setup ...done 
now start server 0 ... 

cmd = /usr/bin/ssh clhead /usr/local/qchem/bin/get_hostid 827922615 > /scratch/tmp/6063750.1.medium.q/qchem20649/lic.dat
                  Welcome to Q-Chem
     A Quantum Leap Into The Future Of Chemistry

 Y. Shao, L. Fusti-Molnar, Y. Jung, J. Kussmann, C. Ochsenfeld,
 S. T. Brown, A. T. B. Gilbert, L. V. Slipchenko,S. V. Levchenko,
 D. P. O'Neill, R. A. DiStasio Jr., R. C. Lochan, T. Wang,
 G. J. O. Beran, N. A. Besley, J. M. Herbert, C. Y. Lin,
 T. Van Voorhis, S. H. Chien, A. Sodt, R. P. Steele, 
 V. A. Rassolov, P. E. Maslen, P. P. Korambath, R. D. Adamson,
 B. Austin, J. Baker, E. F. C. Byrd, H. Dachsel, R. J. Doerksen,
 A. Dreuw, B. D. Dunietz, A. D. Dutoi, T. R. Furlani,
 S. R. Gwaltney, A. Heyden, S. Hirata, C.-P. Hsu, G. Kedziora,
 R. Z. Khaliullin, P. Klunzinger, A. M. Lee, M. S. Lee, W. Liang,
 I. Lotan, N. Nair, B. Peters, E. I. Proynov, P. A. Pieniazek, 
 Y. M. Rhee, J. Ritchie, E. Rosta, C. D. Sherrill, 
 A. C. Simmonett, J. E. Subotnik, H. L. Woodcock III,
 W. Zhang, A. T. Bell, A. K. Chakraborty, D. M. Chipman,
 F. J. Keil, A. Warshel, W. J. Hehre, H. F. Schaefer III,
 J. Kong, A. I. Krylov, P. M. W. Gill, M. Head-Gordon,
 Q-Chem, Version 3.1, Q-Chem, Inc., Pittsburgh, PA (2007).

 Additional authors for Version 3.1: 
 Z. Gan, Y. Zhao, N. E. Schultz, D. Truhlar, E. Epifanovsky and M. Oana.

 Additional authors for Version 3.2: 
 R. Baer, B. R. Brooks, D. Casanova, J.-D. Chai, C.-L. Cheng, 
 C. Cramer, D. Crittenden, A. Ghysels, G. Hawkins, E. G. Hohenstein, 
 C. Kelley, W. Kurlancheek, D. Liotard, E. Livshits, P. Manohar, 
 A. Marenich, D. Neuhauser, R. Olson, M. A. Rohrdanz, K. S. Thanthiriwatte, 
 A. J. W. Thom, V. Vanovschi, C. F. Williams, Q. Wu and Z.-Q. You. 


 Intel X86 Linux Version

 Q-chem begins on Sun Jul  7 08:41:19 2013  

 Parallel job on  1  processors
Processing $rem in /usr/local/qchem/config/preferences.

theFileMan(): MAXOPENFILES=974 MAX_SUB_FILE_NUM=16
Maximum size of a physical file is 2.0 GB, maximum size of a tmp-file is 32.0 GB


--------------------------------------------------------------
User input:
--------------------------------------------------------------

$molecule
-1,2
N          1.39192        0.00000        1.00000
C         -1.39471        0.00000        1.00000
C          0.69930        1.13676        1.00000
C          0.69930       -1.13676        1.00000
C         -0.68721       -1.19125        1.00000
C         -0.68721        1.19125        1.00000
H         -2.48184        0.00000        1.00000
H          1.28587        2.05509        1.00000
H          1.28587       -2.05509        1.00000
H         -1.19648       -2.15056        1.00000
H         -1.19648        2.15056        1.00000
$end

$comment
negative
$end

$xc_functional
C PBE   1.00
X wPBE  1.00
$end

$rem
SYMMETRY_DECOMPOSITION	0
exchange 		general
LRC_DFT                 true
BASIS                   g3large
omega			200
mem_static              760
max_scf_cycles          200
scf_final_print         1
sym_ignore              true
$end

--------------------------------------------------------------
 Writing REM_CC_EA           11
 ----------------------------------------------------
       Standard Nuclear Orientation (Angstroms)
    I     Atom         X            Y            Z
 ----------------------------------------------------
    1      N       1.391920     0.000000     1.000000
    2      C      -1.394710     0.000000     1.000000
    3      C       0.699300     1.136760     1.000000
    4      C       0.699300    -1.136760     1.000000
    5      C      -0.687210    -1.191250     1.000000
    6      C      -0.687210     1.191250     1.000000
    7      H      -2.481840     0.000000     1.000000
    8      H       1.285870     2.055090     1.000000
    9      H       1.285870    -2.055090     1.000000
   10      H      -1.196480    -2.150560     1.000000
   11      H      -1.196480     2.150560     1.000000
 ----------------------------------------------------
 Nuclear Repulsion Energy =   206.9509065727 hartrees
 There are       22 alpha and       21 beta electrons
 Requested basis set is G3large
 There are 90 shells and 302 basis functions

Total QAlloc Memory Limit   2000 MB
Mega-Array Size       743 MB
MEM_STATIC part       760 MB

                       Distance Matrix (Angstroms)
             N (  1)   C (  2)   C (  3)   C (  4)   C (  5)   C (  6)
   C (  2)  2.786630
   C (  3)  1.331145  2.382667
   C (  4)  1.331145  2.382667  2.273520
   C (  5)  2.396217  1.385508  2.709620  1.387580
   C (  6)  2.396217  1.385508  1.387580  2.709620  2.382500
   H (  7)  3.873760  1.087130  3.378147  3.378147  2.154013  2.154013
   H (  8)  2.057824  3.377707  1.089676  3.245300  3.798917  2.153895
   H (  9)  2.057824  3.377707  3.245300  1.089676  2.153895  3.798917
   H ( 10)  3.365223  2.159677  3.794793  2.149831  1.086108  3.380392
   H ( 11)  3.365223  2.159677  2.149831  3.794793  3.380392  1.086108
             H (  7)   H (  8)   H (  9)   H ( 10)
   H (  8)  4.291740
   H (  9)  4.291740  4.110180
   H ( 10)  2.505406  4.883600  2.484185
   H ( 11)  2.505406  2.484185  4.883600  4.301120
 
 A cutoff of  1.0D-08 yielded   3663 shell pairs
 There are  42102 function pairs ( 53042 Cartesian)
Evaluating contribution to one-electron hamiltonian from nuclear
 Smallest overlap matrix eigenvalue = 6.37E-06

 Q-Chem warning in module mkSTV.C, line 194:

 Overlap eigenvalue is smaller than square root of threshold

 Multipole matrices computed through 2nd order

  Scale SEOQF with 1.000000e-01/1.000000e-01/1.000000e-01

 Standard Electronic Orientation quadrupole field applied
 Nucleus-field energy     =     0.0000000008 hartrees
 Guess from superposition of atomic densities
 Warning:  Energy on first SCF cycle will be non-variational
 Long-range K will be added via erf
 Coulomb attenuation parameter = 0.2 bohr**(-1)
 An unrestricted Kohn-Sham SCF calculation will be
 performed using Pulay DIIS extrapolation
 Exchange:  wPBE + LR-HF      Correlation:  PBE
 Using SG-1 standard quadrature grid
 SCF converges when DIIS error is below 1.0E-05
 Requested basis set is G3large
 There are 90 shells and 302 basis functions
 A cutoff of  1.0D-08 yielded   3663 shell pairs
 There are  42102 function pairs ( 53042 Cartesian)
 Warning!  Inaccurate integrated density:
   Number of electrons =    43
   Numerical integral  =    42.000577100364
   Relative error      =    -2.3242393015 %
 ---------------------------------------
  Cycle       Energy         DIIS Error
 ---------------------------------------
    1    -249.7617059848      2.86E-02
    2    -247.8564837173      3.93E-03
    3    -247.6689047000      5.75E-03
    4    -248.0496483352      1.11E-03
    5    -248.0629267458      4.79E-04
    6    -248.0663137578      1.13E-04
    7    -248.0667228077      5.28E-05
    8    -248.0667988698      2.92E-05
    9    -248.0668428027      1.28E-05
   10    -248.0668739958      8.51E-06 Convergence criterion met
 ---------------------------------------
 One-Electron    Energy =  -752.4959039971
 Total Coulomb   Energy =   333.4161295102
 Alpha Exchange  Energy =    -2.3719806284
 Beta  Exchange  Energy =    -2.2690620215
 DFT   Exchange  Energy =   -29.8815375654
 DFT Correlation Energy =    -1.4154258671
 Nuclear Repu.   Energy =   206.9509065735
 Nuclear Attr.   Energy =  -999.9862885463
 Kinetic         Energy =   247.4903845491
 <S^2> = 0.7569
 SCF time:  CPU 517.41 s  wall 518.26 s
 Final Alpha MO Eigenvalues
            1           2           3           4           5           6
    1 -13.8528486  -9.8188665  -9.8120642  -9.7986238  -9.7935585  -9.7788359
            7           8           9          10          11          12
    1  -0.7675495  -0.6382480  -0.6014594  -0.4762532  -0.4744638  -0.3861448
           13          14          15          16          17          18
    1  -0.3291279  -0.3270174  -0.2857965  -0.2679410  -0.2516742  -0.2175341
           19          20          21          22          23          24
    1  -0.1614329  -0.1404681  -0.1071874   0.0467418   0.1463801   0.1483185
           25          26          27
    1   0.1541242   0.1631693   0.1755531
 Final Beta MO Eigenvalues
            1           2           3           4           5           6
    1 -13.8464850  -9.8186874  -9.8104781  -9.7990846  -9.7927832  -9.7734465
            7           8           9          10          11          12
    1  -0.7601120  -0.6305759  -0.5975126  -0.4746713  -0.4641658  -0.3834636
           13          14          15          16          17          18
    1  -0.3261802  -0.3235483  -0.2848571  -0.2531984  -0.2479679  -0.2153382
           19          20          21          22          23          24
    1  -0.1335402  -0.1255409  -0.1004831   0.1470019   0.1487636   0.1547745
           25          26
    1   0.1633503   0.1758160
 Analysis of SCF Wavefunction
 
 --------------------------------------------------------------
                    Orbital Energies (a.u.)
 --------------------------------------------------------------
 
 Alpha MOs
 -- Occupied --
-13.853  -9.819  -9.812  -9.799  -9.794  -9.779  -0.768  -0.638
 -0.601  -0.476  -0.474  -0.386  -0.329  -0.327  -0.286  -0.268
 -0.252  -0.218  -0.161  -0.140  -0.107   0.047
 -- Virtual --
  0.146   0.148   0.154   0.163   0.176   0.226   0.240   0.242
  0.261   0.266   0.267   0.270   0.285   0.289   0.291   0.293
  0.306   0.315   0.317   0.321   0.327   0.341   0.342   0.362
  0.390   0.394   0.398   0.431   0.448   0.455   0.468   0.480
  0.498   0.500   0.502   0.513   0.550   0.572   0.587   0.588
  0.688   0.689   0.713   0.744   0.757   0.761   0.762   0.764
  0.790   0.795   0.814   0.832   0.839   0.845   0.845   0.846
  0.886   0.901   0.923   0.929   0.949   0.950   0.965   0.980
  0.987   1.015   1.017   1.030   1.039   1.048   1.057   1.075
  1.126   1.155   1.170   1.187   1.194   1.249   1.276   1.290
  1.295   1.340   1.353   1.370   1.399   1.412   1.436   1.511
  1.517   1.521   1.548   1.564   1.569   1.596   1.599   1.632
  1.643   1.648   1.652   1.675   1.679   1.722   1.822   1.894
  1.905   1.948   1.982   1.992   2.030   2.099   2.106   2.216
  2.230   2.288   2.319   2.468   2.730   2.740   2.793   2.812
  2.818   2.841   2.892   2.904   2.922   2.932   2.975   3.001
  3.026   3.030   3.035   3.060   3.066   3.070   3.093   3.108
  3.111   3.157   3.228   3.242   3.298   3.327   3.349   3.353
  3.356   3.403   3.405   3.408   3.416   3.443   3.469   3.478
  3.491   3.516   3.537   3.563   3.573   3.597   3.613   3.632
  3.654   3.673   3.686   3.716   3.780   3.791   3.801   3.829
  3.837   3.862   3.906   3.937   3.987   4.027   4.050   4.051
  4.059   4.105   4.126   4.162   4.205   4.224   4.255   4.289
  4.323   4.336   4.344   4.380   4.488   4.503   4.511   4.605
  4.607   4.610   4.676   4.721   4.722   4.758   4.765   4.816
  4.818   4.837   4.965   5.035   5.102   5.188   5.263   5.270
  5.300   5.329   5.348   5.471   5.482   5.508   5.572   5.686
  5.732   5.904   5.923   5.981   6.071   6.166   6.204   6.320
  6.415   7.015  24.008  24.372  24.594  24.772  25.057  27.340
 27.413  27.470  27.531  27.711  28.071  28.190  28.212  28.355
 28.381  28.392  28.572  28.588  28.634  28.937  36.065  37.609
 38.034  38.649  40.694  40.769  40.790  40.830  40.925  40.942
 40.981  41.007  41.070  41.078  41.155  41.166  41.181  41.211
 41.228  41.255  41.260  41.266  41.279  41.301  41.305  41.308
 41.315  41.315  41.334  41.367  41.458  41.499  41.540  41.631
 
 Beta MOs
 -- Occupied --
-13.846  -9.819  -9.810  -9.799  -9.793  -9.773  -0.760  -0.631
 -0.598  -0.475  -0.464  -0.383  -0.326  -0.324  -0.285  -0.253
 -0.248  -0.215  -0.134  -0.126  -0.100
 -- Virtual --
  0.147   0.149   0.155   0.163   0.176   0.228   0.231   0.243
  0.247   0.264   0.267   0.271   0.273   0.286   0.291   0.291
  0.294   0.316   0.318   0.320   0.323   0.328   0.344   0.345
  0.363   0.395   0.403   0.413   0.432   0.455   0.457   0.469
  0.481   0.500   0.503   0.505   0.514   0.555   0.574   0.590
  0.591   0.690   0.695   0.719   0.748   0.759   0.767   0.773
  0.774   0.793   0.804   0.818   0.836   0.844   0.847   0.848
  0.858   0.888   0.914   0.928   0.933   0.952   0.960   0.968
  0.983   1.000   1.018   1.020   1.035   1.044   1.051   1.068
  1.079   1.140   1.157   1.177   1.191   1.198   1.253   1.284
  1.299   1.299   1.345   1.358   1.376   1.401   1.413   1.439
  1.513   1.527   1.527   1.550   1.567   1.570   1.599   1.612
  1.633   1.645   1.657   1.661   1.677   1.683   1.726   1.824
  1.905   1.908   1.958   1.983   2.005   2.032   2.104   2.114
  2.222   2.233   2.295   2.322   2.472   2.735   2.747   2.799
  2.819   2.821   2.844   2.908   2.913   2.928   2.939   2.982
  3.002   3.034   3.035   3.041   3.066   3.074   3.077   3.100
  3.114   3.125   3.165   3.234   3.246   3.309   3.330   3.354
  3.357   3.366   3.406   3.413   3.413   3.425   3.449   3.474
  3.480   3.494   3.530   3.540   3.570   3.580   3.601   3.617
  3.644   3.660   3.679   3.692   3.728   3.782   3.797   3.809
  3.833   3.853   3.869   3.914   3.939   3.997   4.030   4.055
  4.062   4.064   4.126   4.126   4.165   4.217   4.226   4.265
  4.296   4.325   4.340   4.346   4.384   4.494   4.505   4.518
  4.609   4.613   4.613   4.685   4.728   4.729   4.764   4.778
  4.820   4.825   4.843   4.977   5.038   5.106   5.191   5.268
  5.290   5.302   5.331   5.374   5.477   5.501   5.522   5.577
  5.699   5.734   5.906   5.926   5.984   6.073   6.169   6.210
  6.323   6.416   7.018  24.011  24.372  24.597  24.773  25.059
 27.345  27.415  27.479  27.533  27.718  28.072  28.190  28.213
 28.356  28.382  28.392  28.573  28.589  28.635  28.938  36.073
 37.627  38.038  38.653  40.711  40.783  40.805  40.833  40.927
 40.945  40.982  41.013  41.072  41.078  41.159  41.168  41.186
 41.213  41.230  41.258  41.264  41.268  41.282  41.304  41.306
 41.308  41.315  41.322  41.341  41.367  41.458  41.500  41.540
 41.632
 --------------------------------------------------------------
 
          Ground-State Mulliken Net Atomic Charges

     Atom                 Charge (a.u.)    Spin (a.u.)
  --------------------------------------------------------
      1 N                    -0.288124       0.272102
      2 C                    -0.288790       0.405932
      3 C                    -0.296357       0.067715
      4 C                    -0.348733       0.190759
      5 C                    -0.145940       0.014138
      6 C                    -0.194430       0.122849
      7 H                     0.120449      -0.039302
      8 H                     0.119961      -0.008749
      9 H                     0.120015      -0.017417
     10 H                     0.100950      -0.000207
     11 H                     0.100998      -0.007820
  --------------------------------------------------------
  Sum of atomic charges =    -1.000000
  Sum of spin   charges =     1.000000

 -----------------------------------------------------------------
                    Cartesian Multipole Moments
 -----------------------------------------------------------------
    Charge (ESU x 10^10)
                -4.8032
    Dipole Moment (Debye)
         X      -1.5327      Y       0.0398      Z      -4.8035
       Tot       5.0423
    Quadrupole Moments (Debye-Ang)
        XX     -50.8135     XY       0.3462     YY     -43.7390
        XZ      -1.5332     YZ       0.0367     ZZ     -50.1164
    Octapole Moments (Debye-Ang^2)
       XXX      -5.9387    XXY       0.3199    XYY       2.0355
       YYY      -0.0753    XXZ     -50.8120    XYZ       0.3457
       YYZ     -43.7437    XZZ       2.1731    YZZ       0.1602
       ZZZ    -140.7448
    Hexadecapole Moments (Debye-Ang^3)
      XXXX    -386.6042   XXXY       0.1803   XXYY    -108.5169
      XYYY       2.7643   YYYY    -355.4782   XXXZ      -5.9477
      XXYZ       0.3171   XYYZ       2.0355   YYYZ      -0.1203
      XXZZ    -129.6379   XYZZ       1.1879   YYZZ    -127.3301
      XZZZ       9.5821   YZZZ       0.3876   ZZZZ    -355.2989
 -----------------------------------------------------------------
 Total job time:  518.78s(wall), 517.92s(cpu) 
 Sun Jul  7 08:49:57 2013

        *************************************************************
        *                                                           *
        *  Thank you very much for using Q-Chem.  Have a nice day.  *
        *                                                           *
        *************************************************************


0 sent ACK to 0 
now end server 0 ... 
 
**********************************************************************
Job 2 of 3 
**********************************************************************
 
Process 0 of 1 is on cl212.stfx.acenet.ca - thread support 1
initial socket setup ...start
initial socket setup ...done 
now start server 0 ... 

cmd = /usr/bin/ssh clhead /usr/local/qchem/bin/get_hostid 2076458448 > /scratch/tmp/6063750.1.medium.q/qchem20649/lic.dat
                  Welcome to Q-Chem
     A Quantum Leap Into The Future Of Chemistry

 Y. Shao, L. Fusti-Molnar, Y. Jung, J. Kussmann, C. Ochsenfeld,
 S. T. Brown, A. T. B. Gilbert, L. V. Slipchenko,S. V. Levchenko,
 D. P. O'Neill, R. A. DiStasio Jr., R. C. Lochan, T. Wang,
 G. J. O. Beran, N. A. Besley, J. M. Herbert, C. Y. Lin,
 T. Van Voorhis, S. H. Chien, A. Sodt, R. P. Steele, 
 V. A. Rassolov, P. E. Maslen, P. P. Korambath, R. D. Adamson,
 B. Austin, J. Baker, E. F. C. Byrd, H. Dachsel, R. J. Doerksen,
 A. Dreuw, B. D. Dunietz, A. D. Dutoi, T. R. Furlani,
 S. R. Gwaltney, A. Heyden, S. Hirata, C.-P. Hsu, G. Kedziora,
 R. Z. Khaliullin, P. Klunzinger, A. M. Lee, M. S. Lee, W. Liang,
 I. Lotan, N. Nair, B. Peters, E. I. Proynov, P. A. Pieniazek, 
 Y. M. Rhee, J. Ritchie, E. Rosta, C. D. Sherrill, 
 A. C. Simmonett, J. E. Subotnik, H. L. Woodcock III,
 W. Zhang, A. T. Bell, A. K. Chakraborty, D. M. Chipman,
 F. J. Keil, A. Warshel, W. J. Hehre, H. F. Schaefer III,
 J. Kong, A. I. Krylov, P. M. W. Gill, M. Head-Gordon,
 Q-Chem, Version 3.1, Q-Chem, Inc., Pittsburgh, PA (2007).

 Additional authors for Version 3.1: 
 Z. Gan, Y. Zhao, N. E. Schultz, D. Truhlar, E. Epifanovsky and M. Oana.

 Additional authors for Version 3.2: 
 R. Baer, B. R. Brooks, D. Casanova, J.-D. Chai, C.-L. Cheng, 
 C. Cramer, D. Crittenden, A. Ghysels, G. Hawkins, E. G. Hohenstein, 
 C. Kelley, W. Kurlancheek, D. Liotard, E. Livshits, P. Manohar, 
 A. Marenich, D. Neuhauser, R. Olson, M. A. Rohrdanz, K. S. Thanthiriwatte, 
 A. J. W. Thom, V. Vanovschi, C. F. Williams, Q. Wu and Z.-Q. You. 


 Intel X86 Linux Version

 Q-chem begins on Sun Jul  7 08:50:00 2013  

 Parallel job on  1  processors
Processing $rem in /usr/local/qchem/config/preferences.

theFileMan(): MAXOPENFILES=974 MAX_SUB_FILE_NUM=16
Maximum size of a physical file is 2.0 GB, maximum size of a tmp-file is 32.0 GB


--------------------------------------------------------------
User input:
--------------------------------------------------------------

$molecule
0,1
N          1.39192        0.00000        1.00000
C         -1.39471        0.00000        1.00000
C          0.69930        1.13676        1.00000
C          0.69930       -1.13676        1.00000
C         -0.68721       -1.19125        1.00000
C         -0.68721        1.19125        1.00000
H         -2.48184        0.00000        1.00000
H          1.28587        2.05509        1.00000
H          1.28587       -2.05509        1.00000
H         -1.19648       -2.15056        1.00000
H         -1.19648        2.15056        1.00000
$end

$comment
neutral
$end

$xc_functional
C PBE   1.00
X wPBE  1.00
$end


$rem
SYMMETRY_DECOMPOSITION	0
LRC_DFT                 true
exchange 		general
BASIS                   g3large
omega			200
mem_static              760
max_scf_cycles          200
scf_final_print         1
sym_ignore              true
$end

--------------------------------------------------------------
 Writing REM_CC_EA           11
 ----------------------------------------------------
       Standard Nuclear Orientation (Angstroms)
    I     Atom         X            Y            Z
 ----------------------------------------------------
    1      N       1.391920     0.000000     1.000000
    2      C      -1.394710     0.000000     1.000000
    3      C       0.699300     1.136760     1.000000
    4      C       0.699300    -1.136760     1.000000
    5      C      -0.687210    -1.191250     1.000000
    6      C      -0.687210     1.191250     1.000000
    7      H      -2.481840     0.000000     1.000000
    8      H       1.285870     2.055090     1.000000
    9      H       1.285870    -2.055090     1.000000
   10      H      -1.196480    -2.150560     1.000000
   11      H      -1.196480     2.150560     1.000000
 ----------------------------------------------------
 Nuclear Repulsion Energy =   206.9509065727 hartrees
 There are       21 alpha and       21 beta electrons
 Requested basis set is G3large
 There are 90 shells and 302 basis functions

Total QAlloc Memory Limit   2000 MB
Mega-Array Size       743 MB
MEM_STATIC part       760 MB

                       Distance Matrix (Angstroms)
             N (  1)   C (  2)   C (  3)   C (  4)   C (  5)   C (  6)
   C (  2)  2.786630
   C (  3)  1.331145  2.382667
   C (  4)  1.331145  2.382667  2.273520
   C (  5)  2.396217  1.385508  2.709620  1.387580
   C (  6)  2.396217  1.385508  1.387580  2.709620  2.382500
   H (  7)  3.873760  1.087130  3.378147  3.378147  2.154013  2.154013
   H (  8)  2.057824  3.377707  1.089676  3.245300  3.798917  2.153895
   H (  9)  2.057824  3.377707  3.245300  1.089676  2.153895  3.798917
   H ( 10)  3.365223  2.159677  3.794793  2.149831  1.086108  3.380392
   H ( 11)  3.365223  2.159677  2.149831  3.794793  3.380392  1.086108
             H (  7)   H (  8)   H (  9)   H ( 10)
   H (  8)  4.291740
   H (  9)  4.291740  4.110180
   H ( 10)  2.505406  4.883600  2.484185
   H ( 11)  2.505406  2.484185  4.883600  4.301120
 
 A cutoff of  1.0D-08 yielded   3663 shell pairs
 There are  42102 function pairs ( 53042 Cartesian)
Evaluating contribution to one-electron hamiltonian from nuclear
 Smallest overlap matrix eigenvalue = 6.37E-06

 Q-Chem warning in module mkSTV.C, line 194:

 Overlap eigenvalue is smaller than square root of threshold

 Multipole matrices computed through 2nd order

  Scale SEOQF with 1.000000e-01/1.000000e-01/1.000000e-01

 Standard Electronic Orientation quadrupole field applied
 Nucleus-field energy     =     0.0000000008 hartrees
 Guess from superposition of atomic densities
 Warning:  Energy on first SCF cycle will be non-variational
 Long-range K will be added via erf
 Coulomb attenuation parameter = 0.2 bohr**(-1)
 A restricted Kohn-Sham SCF calculation will be
 performed using Pulay DIIS extrapolation
 Exchange:  wPBE + LR-HF      Correlation:  PBE
 Using SG-1 standard quadrature grid
 SCF converges when DIIS error is below 1.0E-05
 Requested basis set is G3large
 There are 90 shells and 302 basis functions
 A cutoff of  1.0D-08 yielded   3663 shell pairs
 There are  42102 function pairs ( 53042 Cartesian)
 ---------------------------------------
  Cycle       Energy         DIIS Error
 ---------------------------------------
    1    -249.7617059848      2.86E-02
    2    -248.0142690238      2.71E-03
    3    -248.0408515236      2.41E-03
    4    -248.0971363496      5.23E-04
    5    -248.0993482743      2.02E-04
    6    -248.0997924108      4.91E-05
    7    -248.0998126274      2.07E-05
    8    -248.0998168083      4.28E-06 Convergence criterion met
 ---------------------------------------
 One-Electron    Energy =  -743.5780149238
 Total Coulomb   Energy =   324.1999434361
 Alpha Exchange  Energy =    -2.2737294178
 Beta  Exchange  Energy =    -2.2737294178
 DFT   Exchange  Energy =   -29.7394894054
 DFT Correlation Energy =    -1.3857036530
 Nuclear Repu.   Energy =   206.9509065735
 Nuclear Attr.   Energy =  -990.7999833099
 Kinetic         Energy =   247.2219683861
 SCF time:  CPU 314.50 s  wall 315.42 s
 Final Alpha MO Eigenvalues
            1           2           3           4           5           6
    1 -14.0908506 -10.0298506 -10.0297240 -10.0181312 -10.0080792 -10.0080474
            7           8           9          10          11          12
    1  -0.9854437  -0.8539951  -0.8122644  -0.6859673  -0.6834044  -0.5925560
           13          14          15          16          17          18
    1  -0.5426337  -0.5277965  -0.4889410  -0.4767609  -0.4634901  -0.4231203
           19          20          21          22          23          24
    1  -0.3642212  -0.3393622  -0.3163172   0.0176536   0.0304725   0.0306431
           25          26
    1   0.0416712   0.0482094
 Analysis of SCF Wavefunction
 
 --------------------------------------------------------------
                    Orbital Energies (a.u.)
 --------------------------------------------------------------
 
 Alpha MOs
 -- Occupied --
-14.091 -10.030 -10.030 -10.018 -10.008 -10.008  -0.985  -0.854
 -0.812  -0.686  -0.683  -0.593  -0.543  -0.528  -0.489  -0.477
 -0.463  -0.423  -0.364  -0.339  -0.316
 -- Virtual --
  0.018   0.030   0.031   0.042   0.048   0.063   0.073   0.100
  0.109   0.127   0.130   0.132   0.138   0.150   0.155   0.159
  0.164   0.169   0.181   0.190   0.191   0.195   0.197   0.198
  0.208   0.243   0.257   0.262   0.273   0.289   0.296   0.316
  0.319   0.334   0.340   0.343   0.355   0.377   0.401   0.407
  0.408   0.490   0.512   0.532   0.565   0.572   0.576   0.580
  0.581   0.603   0.614   0.623   0.651   0.661   0.665   0.668
  0.676   0.700   0.708   0.739   0.744   0.757   0.771   0.778
  0.812   0.814   0.829   0.838   0.844   0.850   0.860   0.863
  0.884   0.943   0.973   0.986   1.005   1.007   1.063   1.090
  1.098   1.111   1.154   1.162   1.178   1.220   1.229   1.249
  1.319   1.326   1.326   1.359   1.371   1.377   1.401   1.404
  1.437   1.448   1.451   1.459   1.494   1.495   1.534   1.634
  1.697   1.711   1.755   1.790   1.793   1.837   1.907   1.912
  2.021   2.031   2.090   2.115   2.266   2.526   2.531   2.586
  2.602   2.621   2.643   2.682   2.699   2.714   2.726   2.768
  2.794   2.816   2.825   2.829   2.853   2.856   2.863   2.882
  2.898   2.903   2.949   3.022   3.034   3.087   3.121   3.140
  3.143   3.146   3.196   3.198   3.200   3.208   3.235   3.263
  3.269   3.284   3.311   3.332   3.356   3.363   3.392   3.410
  3.423   3.448   3.463   3.481   3.511   3.576   3.582   3.591
  3.627   3.628   3.654   3.697   3.729   3.778   3.825   3.839
  3.845   3.851   3.896   3.921   3.960   3.999   4.017   4.051
  4.085   4.118   4.130   4.148   4.176   4.279   4.298   4.304
  4.393   4.403   4.405   4.466   4.512   4.513   4.548   4.554
  4.602   4.613   4.626   4.754   4.827   4.891   4.976   5.053
  5.054   5.090   5.124   5.136   5.265   5.268   5.294   5.361
  5.475   5.518   5.696   5.711   5.770   5.859   5.957   5.987
  6.105   6.207   6.799  23.789  24.159  24.370  24.559  24.838
 27.122  27.200  27.247  27.318  27.492  27.852  27.972  27.995
 28.134  28.165  28.178  28.354  28.366  28.417  28.719  35.830
 37.376  37.797  38.413  40.461  40.534  40.555  40.594  40.693
 40.725  40.766  40.784  40.853  40.863  40.920  40.949  40.959
 40.994  41.012  41.036  41.037  41.051  41.064  41.084  41.089
 41.093  41.094  41.100  41.111  41.147  41.243  41.285  41.323
 41.405
 --------------------------------------------------------------
 
          Ground-State Mulliken Net Atomic Charges

     Atom                 Charge (a.u.)
  ----------------------------------------
      1 N                    -0.187110
      2 C                    -0.187842
      3 C                    -0.218041
      4 C                    -0.218290
      5 C                    -0.009615
      6 C                    -0.009734
      7 H                     0.172867
      8 H                     0.170547
      9 H                     0.170527
     10 H                     0.158367
     11 H                     0.158324
  ----------------------------------------
  Sum of atomic charges =     0.000000

 -----------------------------------------------------------------
                    Cartesian Multipole Moments
 -----------------------------------------------------------------
    Charge (ESU x 10^10)
                 0.0000
    Dipole Moment (Debye)
         X      -2.2757      Y       0.0013      Z       0.0000
       Tot       2.2757
    Quadrupole Moments (Debye-Ang)
        XX     -36.4989     XY       0.0009     YY     -29.5539
        XZ      -2.2757     YZ       0.0013     ZZ     -37.7834
    Octapole Moments (Debye-Ang^2)
       XXX     -13.8830    XXY      -0.0006    XYY       2.3699
       YYY       0.0014    XXZ     -36.4987    XYZ       0.0009
       YYZ     -29.5538    XZZ      -0.3686    YZZ       0.0023
       ZZZ    -113.3502
    Hexadecapole Moments (Debye-Ang^3)
      XXXX    -287.5622   XXXY       0.0009   XXYY     -81.2102
      XYYY       0.0035   YYYY    -253.7878   XXXZ     -13.8831
      XXYZ      -0.0006   XYYZ       2.3698   YYYZ       0.0016
      XXZZ     -94.1997   XYZZ       0.0016   YYZZ     -88.6650
      XZZZ       3.4456   YZZZ       0.0041   ZZZZ    -269.6847
 -----------------------------------------------------------------
 Total job time:  315.92s(wall), 314.96s(cpu) 
 Sun Jul  7 08:55:16 2013

        *************************************************************
        *                                                           *
        *  Thank you very much for using Q-Chem.  Have a nice day.  *
        *                                                           *
        *************************************************************


0 sent ACK to 0 
now end server 0 ... 
 
**********************************************************************
Job 3 of 3 
**********************************************************************
 
Process 0 of 1 is on cl212.stfx.acenet.ca - thread support 1
initial socket setup ...start
initial socket setup ...done 
now start server 0 ... 

cmd = /usr/bin/ssh clhead /usr/local/qchem/bin/get_hostid 918694945 > /scratch/tmp/6063750.1.medium.q/qchem20649/lic.dat
                  Welcome to Q-Chem
     A Quantum Leap Into The Future Of Chemistry

 Y. Shao, L. Fusti-Molnar, Y. Jung, J. Kussmann, C. Ochsenfeld,
 S. T. Brown, A. T. B. Gilbert, L. V. Slipchenko,S. V. Levchenko,
 D. P. O'Neill, R. A. DiStasio Jr., R. C. Lochan, T. Wang,
 G. J. O. Beran, N. A. Besley, J. M. Herbert, C. Y. Lin,
 T. Van Voorhis, S. H. Chien, A. Sodt, R. P. Steele, 
 V. A. Rassolov, P. E. Maslen, P. P. Korambath, R. D. Adamson,
 B. Austin, J. Baker, E. F. C. Byrd, H. Dachsel, R. J. Doerksen,
 A. Dreuw, B. D. Dunietz, A. D. Dutoi, T. R. Furlani,
 S. R. Gwaltney, A. Heyden, S. Hirata, C.-P. Hsu, G. Kedziora,
 R. Z. Khaliullin, P. Klunzinger, A. M. Lee, M. S. Lee, W. Liang,
 I. Lotan, N. Nair, B. Peters, E. I. Proynov, P. A. Pieniazek, 
 Y. M. Rhee, J. Ritchie, E. Rosta, C. D. Sherrill, 
 A. C. Simmonett, J. E. Subotnik, H. L. Woodcock III,
 W. Zhang, A. T. Bell, A. K. Chakraborty, D. M. Chipman,
 F. J. Keil, A. Warshel, W. J. Hehre, H. F. Schaefer III,
 J. Kong, A. I. Krylov, P. M. W. Gill, M. Head-Gordon,
 Q-Chem, Version 3.1, Q-Chem, Inc., Pittsburgh, PA (2007).

 Additional authors for Version 3.1: 
 Z. Gan, Y. Zhao, N. E. Schultz, D. Truhlar, E. Epifanovsky and M. Oana.

 Additional authors for Version 3.2: 
 R. Baer, B. R. Brooks, D. Casanova, J.-D. Chai, C.-L. Cheng, 
 C. Cramer, D. Crittenden, A. Ghysels, G. Hawkins, E. G. Hohenstein, 
 C. Kelley, W. Kurlancheek, D. Liotard, E. Livshits, P. Manohar, 
 A. Marenich, D. Neuhauser, R. Olson, M. A. Rohrdanz, K. S. Thanthiriwatte, 
 A. J. W. Thom, V. Vanovschi, C. F. Williams, Q. Wu and Z.-Q. You. 


 Intel X86 Linux Version

 Q-chem begins on Sun Jul  7 08:55:19 2013  

 Parallel job on  1  processors
Processing $rem in /usr/local/qchem/config/preferences.

theFileMan(): MAXOPENFILES=974 MAX_SUB_FILE_NUM=16
Maximum size of a physical file is 2.0 GB, maximum size of a tmp-file is 32.0 GB


--------------------------------------------------------------
User input:
--------------------------------------------------------------

$molecule
1,2
N          1.39192        0.00000        1.00000
C         -1.39471        0.00000        1.00000
C          0.69930        1.13676        1.00000
C          0.69930       -1.13676        1.00000
C         -0.68721       -1.19125        1.00000
C         -0.68721        1.19125        1.00000
H         -2.48184        0.00000        1.00000
H          1.28587        2.05509        1.00000
H          1.28587       -2.05509        1.00000
H         -1.19648       -2.15056        1.00000
H         -1.19648        2.15056        1.00000
$end

$comment
positive
$end

$xc_functional
C PBE   1.00
X wPBE  1.00
$end

$rem
SYMMETRY_DECOMPOSITION	0
LRC_DFT                 true
exchange 		general
BASIS                   g3large
omega			200
mem_static              760
max_scf_cycles          200
scf_final_print         1
sym_ignore              true
$end

--------------------------------------------------------------
 Writing REM_CC_EA           11
 ----------------------------------------------------
       Standard Nuclear Orientation (Angstroms)
    I     Atom         X            Y            Z
 ----------------------------------------------------
    1      N       1.391920     0.000000     1.000000
    2      C      -1.394710     0.000000     1.000000
    3      C       0.699300     1.136760     1.000000
    4      C       0.699300    -1.136760     1.000000
    5      C      -0.687210    -1.191250     1.000000
    6      C      -0.687210     1.191250     1.000000
    7      H      -2.481840     0.000000     1.000000
    8      H       1.285870     2.055090     1.000000
    9      H       1.285870    -2.055090     1.000000
   10      H      -1.196480    -2.150560     1.000000
   11      H      -1.196480     2.150560     1.000000
 ----------------------------------------------------
 Nuclear Repulsion Energy =   206.9509065727 hartrees
 There are       21 alpha and       20 beta electrons
 Requested basis set is G3large
 There are 90 shells and 302 basis functions

Total QAlloc Memory Limit   2000 MB
Mega-Array Size       743 MB
MEM_STATIC part       760 MB

                       Distance Matrix (Angstroms)
             N (  1)   C (  2)   C (  3)   C (  4)   C (  5)   C (  6)
   C (  2)  2.786630
   C (  3)  1.331145  2.382667
   C (  4)  1.331145  2.382667  2.273520
   C (  5)  2.396217  1.385508  2.709620  1.387580
   C (  6)  2.396217  1.385508  1.387580  2.709620  2.382500
   H (  7)  3.873760  1.087130  3.378147  3.378147  2.154013  2.154013
   H (  8)  2.057824  3.377707  1.089676  3.245300  3.798917  2.153895
   H (  9)  2.057824  3.377707  3.245300  1.089676  2.153895  3.798917
   H ( 10)  3.365223  2.159677  3.794793  2.149831  1.086108  3.380392
   H ( 11)  3.365223  2.159677  2.149831  3.794793  3.380392  1.086108
             H (  7)   H (  8)   H (  9)   H ( 10)
   H (  8)  4.291740
   H (  9)  4.291740  4.110180
   H ( 10)  2.505406  4.883600  2.484185
   H ( 11)  2.505406  2.484185  4.883600  4.301120
 
 A cutoff of  1.0D-08 yielded   3663 shell pairs
 There are  42102 function pairs ( 53042 Cartesian)
Evaluating contribution to one-electron hamiltonian from nuclear
 Smallest overlap matrix eigenvalue = 6.37E-06

 Q-Chem warning in module mkSTV.C, line 194:

 Overlap eigenvalue is smaller than square root of threshold

 Multipole matrices computed through 2nd order

  Scale SEOQF with 1.000000e-01/1.000000e-01/1.000000e-01

 Standard Electronic Orientation quadrupole field applied
 Nucleus-field energy     =     0.0000000008 hartrees
 Guess from superposition of atomic densities
 Warning:  Energy on first SCF cycle will be non-variational
 Long-range K will be added via erf
 Coulomb attenuation parameter = 0.2 bohr**(-1)
 An unrestricted Kohn-Sham SCF calculation will be
 performed using Pulay DIIS extrapolation
 Exchange:  wPBE + LR-HF      Correlation:  PBE
 Using SG-1 standard quadrature grid
 SCF converges when DIIS error is below 1.0E-05
 Requested basis set is G3large
 There are 90 shells and 302 basis functions
 A cutoff of  1.0D-08 yielded   3663 shell pairs
 There are  42102 function pairs ( 53042 Cartesian)
 Warning!  Inaccurate integrated density:
   Number of electrons =    41
   Numerical integral  =    42.000577100364
   Relative error      =     2.4404319521 %
 ---------------------------------------
  Cycle       Energy         DIIS Error
 ---------------------------------------
    1    -249.7617059848      2.86E-02
    2    -247.6732882899      2.39E-03
    3    -247.6736903692      2.58E-03
    4    -247.7358085056      5.27E-04
    5    -247.7386083415      1.66E-04
    6    -247.7390491644      5.50E-05
    7    -247.7391755354      1.76E-05
    8    -247.7392359051      1.46E-05
    9    -247.7392961070      1.51E-05
   10    -247.7392265835      1.46E-05
   11    -247.7390343888      1.45E-05
   12    -247.7390132656      1.08E-05
   13    -247.7390317360      9.78E-06 Convergence criterion met
 ---------------------------------------
 One-Electron    Energy =  -733.5795515324
 Total Coulomb   Energy =   314.2776299547
 Alpha Exchange  Energy =    -2.2773153810
 Beta  Exchange  Energy =    -2.1710076034
 DFT   Exchange  Energy =   -29.5935130686
 DFT Correlation Energy =    -1.3461806788
 Nuclear Repu.   Energy =   206.9509065735
 Nuclear Attr.   Energy =  -980.6998210907
 Kinetic         Energy =   247.1202695583
 <S^2> = 0.7653
 SCF time:  CPU 632.89 s  wall 634.65 s
 Final Alpha MO Eigenvalues
            1           2           3           4           5           6
    1 -14.3175887 -10.2905696 -10.2885830 -10.2683812 -10.2635327 -10.2415569
            7           8           9          10          11          12
    1  -1.2297401  -1.0925871  -1.0664960  -0.9239701  -0.9226849  -0.8203623
           13          14          15          16          17          18
    1  -0.7851700  -0.7549946  -0.7256753  -0.7245262  -0.6852288  -0.6521160
           19          20          21          22          23          24
    1  -0.6033627  -0.5951294  -0.5378797  -0.2186373  -0.2102081  -0.1062803
           25          26
    1  -0.0837105  -0.0733589
 Final Beta MO Eigenvalues
            1           2           3           4           5           6
    1 -14.3191536 -10.2858180 -10.2844087 -10.2635686 -10.2596658 -10.2431489
            7           8           9          10          11          12
    1  -1.2243517  -1.0881265  -1.0480892  -0.9168282  -0.9148450  -0.8176577
           13          14          15          16          17          18
    1  -0.7805566  -0.7504651  -0.7208759  -0.6943688  -0.6837323  -0.6500449
           19          20          21          22          23          24
    1  -0.5903437  -0.5369755  -0.3821544  -0.1941428  -0.1787155  -0.1052998
           25
    1  -0.0827853
 Analysis of SCF Wavefunction
 
 --------------------------------------------------------------
                    Orbital Energies (a.u.)
 --------------------------------------------------------------
 
 Alpha MOs
 -- Occupied --
-14.318 -10.291 -10.289 -10.268 -10.264 -10.242  -1.230  -1.093
 -1.066  -0.924  -0.923  -0.820  -0.785  -0.755  -0.726  -0.725
 -0.685  -0.652  -0.603  -0.595  -0.538
 -- Virtual --
 -0.219  -0.210  -0.106  -0.084  -0.073  -0.060  -0.057  -0.054
 -0.047  -0.044  -0.018  -0.010  -0.009   0.002   0.007   0.017
  0.026   0.028   0.030   0.039   0.040   0.048   0.049   0.061
  0.065   0.097   0.102   0.109   0.112   0.119   0.141   0.142
  0.145   0.153   0.161   0.184   0.189   0.213   0.226   0.227
  0.235   0.262   0.326   0.332   0.367   0.369   0.371   0.374
  0.387   0.392   0.407   0.416   0.443   0.465   0.467   0.469
  0.479   0.495   0.516   0.517   0.546   0.546   0.575   0.577
  0.620   0.622   0.627   0.630   0.636   0.647   0.652   0.666
  0.675   0.751   0.778   0.787   0.800   0.823   0.859   0.883
  0.887   0.910   0.941   0.951   0.968   1.023   1.037   1.045
  1.092   1.116   1.118   1.148   1.165   1.166   1.177   1.200
  1.214   1.231   1.236   1.248   1.288   1.295   1.337   1.425
  1.478   1.498   1.548   1.571   1.572   1.622   1.698   1.700
  1.806   1.814   1.874   1.891   2.048   2.274   2.310   2.343
  2.346   2.396   2.423   2.445   2.451   2.456   2.488   2.526
  2.560   2.560   2.590   2.595   2.610   2.613   2.623   2.633
  2.656   2.663   2.713   2.783   2.792   2.842   2.886   2.894
  2.896   2.905   2.951   2.953   2.963   2.972   2.996   3.025
  3.036   3.040   3.086   3.101   3.116   3.120   3.155   3.178
  3.183   3.204   3.229   3.245   3.284   3.344   3.352   3.361
  3.384   3.392   3.420   3.445   3.497   3.540   3.592   3.594
  3.617   3.621   3.665   3.700   3.736   3.773   3.786   3.819
  3.869   3.883   3.904   3.924   3.944   4.051   4.073   4.075
  4.164   4.166   4.169   4.222   4.271   4.278   4.311   4.315
  4.354   4.381   4.393   4.516   4.594   4.659   4.740   4.815
  4.825   4.859   4.897   4.913   5.041   5.042   5.055   5.126
  5.243   5.286   5.466   5.486   5.542   5.624   5.729   5.757
  5.869   5.980   6.564  23.543  23.903  24.127  24.300  24.589
 26.868  26.936  27.001  27.054  27.241  27.602  27.721  27.744
 27.888  27.912  27.922  28.107  28.123  28.167  28.471  35.603
 37.150  37.571  38.184  40.234  40.308  40.329  40.364  40.456
 40.469  40.508  40.541  40.596  40.606  40.691  40.692  40.714
 40.736  40.753  40.784  40.787  40.791  40.803  40.827  40.830
 40.837  40.845  40.850  40.867  40.901  40.989  41.030  41.069
 41.166
 
 Beta MOs
 -- Occupied --
-14.319 -10.286 -10.284 -10.264 -10.260 -10.243  -1.224  -1.088
 -1.048  -0.917  -0.915  -0.818  -0.781  -0.750  -0.721  -0.694
 -0.684  -0.650  -0.590  -0.537
 -- Virtual --
 -0.382  -0.194  -0.179  -0.105  -0.083  -0.073  -0.057  -0.053
 -0.052  -0.043  -0.032  -0.014  -0.009  -0.006   0.002   0.008
  0.019   0.028   0.032   0.033   0.041   0.043   0.050   0.050
  0.062   0.066   0.098   0.104   0.113   0.117   0.121   0.142
  0.145   0.150   0.155   0.163   0.188   0.192   0.215   0.228
  0.229   0.237   0.272   0.330   0.341   0.374   0.379   0.379
  0.386   0.388   0.400   0.419   0.421   0.458   0.471   0.474
  0.481   0.481   0.497   0.520   0.533   0.550   0.550   0.579
  0.583   0.623   0.629   0.630   0.636   0.650   0.655   0.656
  0.671   0.681   0.749   0.781   0.792   0.805   0.824   0.865
  0.893   0.893   0.914   0.953   0.954   0.972   1.026   1.040
  1.047   1.106   1.119   1.122   1.155   1.167   1.170   1.189
  1.202   1.227   1.236   1.242   1.251   1.296   1.298   1.340
  1.431   1.487   1.502   1.553   1.577   1.579   1.631   1.702
  1.704   1.812   1.819   1.877   1.899   2.050   2.289   2.317
  2.358   2.370   2.404   2.428   2.456   2.472   2.484   2.500
  2.543   2.566   2.586   2.600   2.602   2.628   2.631   2.634
  2.654   2.670   2.674   2.725   2.795   2.805   2.856   2.893
  2.913   2.913   2.916   2.965   2.969   2.969   2.982   3.011
  3.037   3.042   3.056   3.087   3.107   3.132   3.134   3.166
  3.187   3.195   3.222   3.234   3.258   3.291   3.353   3.363
  3.364   3.397   3.403   3.428   3.468   3.499   3.550   3.603
  3.608   3.618   3.625   3.668   3.704   3.739   3.773   3.792
  3.826   3.871   3.890   3.906   3.930   3.949   4.054   4.081
  4.081   4.168   4.169   4.181   4.236   4.284   4.285   4.318
  4.325   4.369   4.384   4.396   4.525   4.598   4.662   4.745
  4.819   4.829   4.860   4.901   4.909   5.042   5.042   5.065
  5.128   5.243   5.287   5.468   5.487   5.542   5.627   5.730
  5.757   5.871   5.982   6.566  23.546  23.908  24.129  24.306
 24.593  26.878  26.949  27.007  27.068  27.249  27.604  27.723
 27.746  27.889  27.915  27.924  28.109  28.124  28.169  28.472
 35.601  37.146  37.570  38.183  40.231  40.304  40.325  40.364
 40.459  40.477  40.514  40.542  40.603  40.614  40.691  40.699
 40.718  40.745  40.762  40.791  40.795  40.799  40.812  40.835
 40.839  40.840  40.847  40.851  40.869  40.902  40.990  41.032
 41.070  41.166
 --------------------------------------------------------------
 
          Ground-State Mulliken Net Atomic Charges

     Atom                 Charge (a.u.)    Spin (a.u.)
  --------------------------------------------------------
      1 N                    -0.095865      -0.076955
      2 C                    -0.178461      -0.110703
      3 C                    -0.117603       0.300037
      4 C                    -0.110013       0.333280
      5 C                     0.174366       0.266900
      6 C                     0.184826       0.323714
      7 H                     0.222176       0.001105
      8 H                     0.235927      -0.010331
      9 H                     0.236878      -0.011251
     10 H                     0.222908      -0.007044
     11 H                     0.224861      -0.008753
  --------------------------------------------------------
  Sum of atomic charges =     1.000000
  Sum of spin   charges =     1.000000

 -----------------------------------------------------------------
                    Cartesian Multipole Moments
 -----------------------------------------------------------------
    Charge (ESU x 10^10)
                 4.8032
    Dipole Moment (Debye)
         X      -2.5661      Y       0.0375      Z       4.8035
       Tot       5.4461
    Quadrupole Moments (Debye-Ang)
        XX     -26.9021     XY      -0.1198     YY     -16.2516
        XZ      -2.5652     YZ       0.0405     ZZ     -28.3082
    Octapole Moments (Debye-Ang^2)
       XXX     -16.6309    XXY       0.0263    XYY       2.0221
       YYY       0.1165    XXZ     -26.9006    XYZ      -0.1182
       YYZ     -16.2515    XZZ      -0.9482    YZZ       0.0897
       ZZZ     -94.5317
    Hexadecapole Moments (Debye-Ang^3)
      XXXX    -235.6627   XXXY      -0.1701   XXYY     -58.3014
      XYYY      -0.3112   YYYY    -182.6692   XXXZ     -16.6269
      XXYZ       0.0374   XYYZ       2.0220   YYYZ       0.1436
      XXZZ     -76.8911   XYZZ      -0.2400   YYZZ     -64.3230
      XZZZ       2.2858   YZZZ       0.1888   ZZZZ    -226.0879
 -----------------------------------------------------------------
 Total job time:  635.14s(wall), 633.36s(cpu) 
 Sun Jul  7 09:05:54 2013

        *************************************************************
        *                                                           *
        *  Thank you very much for using Q-Chem.  Have a nice day.  *
        *                                                           *
        *************************************************************


0 sent ACK to 0 
now end server 0 ... 
