Process 0 of 1 is on cl044.stfx.acenet.ca - thread support 1
initial socket setup ...start
initial socket setup ...done 
now start server 0 ... 

cmd = /usr/bin/ssh clhead /usr/local/qchem/bin/get_hostid 997048049 > /scratch/tmp/5955914.1.short.q/qchem26062/lic.dat
                  Welcome to Q-Chem
     A Quantum Leap Into The Future Of Chemistry

 Y. Shao, L. Fusti-Molnar, Y. Jung, J. Kussmann, C. Ochsenfeld,
 S. T. Brown, A. T. B. Gilbert, L. V. Slipchenko,S. V. Levchenko,
 D. P. O'Neill, R. A. DiStasio Jr., R. C. Lochan, T. Wang,
 G. J. O. Beran, N. A. Besley, J. M. Herbert, C. Y. Lin,
 T. Van Voorhis, S. H. Chien, A. Sodt, R. P. Steele, 
 V. A. Rassolov, P. E. Maslen, P. P. Korambath, R. D. Adamson,
 B. Austin, J. Baker, E. F. C. Byrd, H. Dachsel, R. J. Doerksen,
 A. Dreuw, B. D. Dunietz, A. D. Dutoi, T. R. Furlani,
 S. R. Gwaltney, A. Heyden, S. Hirata, C.-P. Hsu, G. Kedziora,
 R. Z. Khaliullin, P. Klunzinger, A. M. Lee, M. S. Lee, W. Liang,
 I. Lotan, N. Nair, B. Peters, E. I. Proynov, P. A. Pieniazek, 
 Y. M. Rhee, J. Ritchie, E. Rosta, C. D. Sherrill, 
 A. C. Simmonett, J. E. Subotnik, H. L. Woodcock III,
 W. Zhang, A. T. Bell, A. K. Chakraborty, D. M. Chipman,
 F. J. Keil, A. Warshel, W. J. Hehre, H. F. Schaefer III,
 J. Kong, A. I. Krylov, P. M. W. Gill, M. Head-Gordon,
 Q-Chem, Version 3.1, Q-Chem, Inc., Pittsburgh, PA (2007).

 Additional authors for Version 3.1: 
 Z. Gan, Y. Zhao, N. E. Schultz, D. Truhlar, E. Epifanovsky and M. Oana.

 Additional authors for Version 3.2: 
 R. Baer, B. R. Brooks, D. Casanova, J.-D. Chai, C.-L. Cheng, 
 C. Cramer, D. Crittenden, A. Ghysels, G. Hawkins, E. G. Hohenstein, 
 C. Kelley, W. Kurlancheek, D. Liotard, E. Livshits, P. Manohar, 
 A. Marenich, D. Neuhauser, R. Olson, M. A. Rohrdanz, K. S. Thanthiriwatte, 
 A. J. W. Thom, V. Vanovschi, C. F. Williams, Q. Wu and Z.-Q. You. 


 Intel X86 Linux Version

 Q-chem begins on Tue Apr 30 21:45:34 2013  

 Parallel job on  1  processors
Processing $rem in /usr/local/qchem/config/preferences.

theFileMan(): MAXOPENFILES=974 MAX_SUB_FILE_NUM=16
Maximum size of a physical file is 2.0 GB, maximum size of a tmp-file is 32.0 GB


--------------------------------------------------------------
User input:
--------------------------------------------------------------

$molecule
-1,2
C
Cl,1,R
Cl,1,R,2,A
Cl,1,R,2,A,3,120.,0
Cl,1,R,2,A,3,-120.,0

 R=1.79265109
 A=109.47122063

$end

$comment
negative
$end

$xc_functional
C PBE   1.00
X wPBE  1.00
$end

$rem
SYMMETRY_DECOMPOSITION	0
exchange 		general
LRC_DFT                 true
BASIS                   g3large
omega			390
mem_static              760
max_scf_cycles          200
scf_final_print         1
sym_ignore              true
$end

--------------------------------------------------------------
 Writing REM_CC_EA            5
 ----------------------------------------------------
       Standard Nuclear Orientation (Angstroms)
    I     Atom         X            Y            Z
 ----------------------------------------------------
    1      C       0.000000     0.000000     0.000000
    2      Cl      0.000000     0.000000     1.792651
    3      Cl      1.690128     0.000000    -0.597550
    4      Cl     -0.845064    -1.463693    -0.597550
    5      Cl     -0.845064     1.463693    -0.597550
 ----------------------------------------------------
 Nuclear Repulsion Energy =   433.8898630955 hartrees
 There are       38 alpha and       37 beta electrons
 Requested basis set is G3large
 There are 86 shells and 306 basis functions

Total QAlloc Memory Limit   2000 MB
Mega-Array Size       743 MB
MEM_STATIC part       760 MB

                       Distance Matrix (Angstroms)
             C (  1)   Cl(  2)   Cl(  3)   Cl(  4)
   Cl(  2)  1.792651
   Cl(  3)  1.792651  2.927387
   Cl(  4)  1.792651  2.927387  2.927387
   Cl(  5)  1.792651  2.927387  2.927387  2.927387
 
 A cutoff of  1.0D-08 yielded   2917 shell pairs
 There are  38585 function pairs ( 54299 Cartesian)
Evaluating contribution to one-electron hamiltonian from nuclear
 Smallest overlap matrix eigenvalue = 4.44E-05

 Q-Chem warning in module mkSTV.C, line 194:

 Overlap eigenvalue is smaller than square root of threshold

 Multipole matrices computed through 2nd order

  Scale SEOQF with 1.000000e-01/1.000000e-01/1.000000e-01

 Standard Electronic Orientation quadrupole field applied
 Guess from superposition of atomic densities
 Warning:  Energy on first SCF cycle will be non-variational
 Long-range K will be added via erf
 Coulomb attenuation parameter = 0.39 bohr**(-1)
 An unrestricted Kohn-Sham SCF calculation will be
 performed using Pulay DIIS extrapolation
 Exchange:  wPBE + LR-HF      Correlation:  PBE
 Using SG-1 standard quadrature grid
 SCF converges when DIIS error is below 1.0E-05
 Requested basis set is G3large
 There are 86 shells and 306 basis functions
 A cutoff of  1.0D-08 yielded   2917 shell pairs
 There are  38585 function pairs ( 54299 Cartesian)
 Warning!  Inaccurate integrated density:
   Number of electrons =    75
   Numerical integral  =    74.000066107291
   Relative error      =    -1.3332451903 %
 ---------------------------------------
  Cycle       Energy         DIIS Error
 ---------------------------------------
    1   -1879.0688618598      1.81E-02
    2   -1878.2108281930      2.89E-03
    3   -1878.2050623304      3.47E-03
    4   -1878.3194269180      3.73E-04
    5   -1878.3210276497      1.47E-04
    6   -1878.3214264058      3.65E-05
    7   -1878.3214960739      1.53E-05
    8   -1878.3215043034      6.01E-06 Convergence criterion met
 ---------------------------------------
 One-Electron    Energy = -3472.7271989353
 Total Coulomb   Energy =  1278.5575410667
 Alpha Exchange  Energy =    -7.6614758841
 Beta  Exchange  Energy =    -7.5044034748
 DFT   Exchange  Energy =   -99.9636271065
 DFT Correlation Energy =    -2.9122030647
 Nuclear Repu.   Energy =   433.8898630955
 Nuclear Attr.   Energy = -5349.0856759779
 Kinetic         Energy =  1876.3584770426
 <S^2> = 0.7552
 SCF time:  CPU 437.87 s  wall 439.75 s
 Final Alpha MO Eigenvalues
            1           2           3           4           5           6
    1-100.7013373-100.7007929-100.7005726-100.7005252 -10.1033563  -9.2239700
            7           8           9          10          11          12
    1  -9.2234117  -9.2231923  -9.2231579  -7.0428866  -7.0423284  -7.0420113
           13          14          15          16          17          18
    1  -7.0419274  -7.0327498  -7.0326390  -7.0321972  -7.0320923  -7.0320225
           19          20          21          22          23          24
    1  -7.0320142  -7.0319663  -7.0318878  -0.9204346  -0.7960658  -0.7956936
           25          26          27          28          29          30
    1  -0.7955728  -0.5762702  -0.4266576  -0.4265275  -0.4264830  -0.3072189
           31          32          33          34          35          36
    1  -0.3072114  -0.2760999  -0.2760700  -0.2759802  -0.2424903  -0.2424387
           37          38          39          40          41          42
    1  -0.2422128  -0.0089252   0.2034406   0.2057843   0.2058349   0.2058489
           43
    1   0.2378620
 Final Beta MO Eigenvalues
            1           2           3           4           5           6
    1-100.7004800-100.6999120-100.6996839-100.6996367 -10.0929935  -9.2231122
            7           8           9          10          11          12
    1  -9.2225303  -9.2223043  -9.2222683  -7.0406864  -7.0400700  -7.0396580
           13          14          15          16          17          18
    1  -7.0395189  -7.0321810  -7.0320128  -7.0316115  -7.0314692  -7.0314613
           19          20          21          22          23          24
    1  -7.0314480  -7.0314126  -7.0312793  -0.9101201  -0.7889888  -0.7884952
           25          26          27          28          29          30
    1  -0.7883409  -0.5520008  -0.4126699  -0.4125014  -0.4124413  -0.3033635
           31          32          33          34          35          36
    1  -0.3033554  -0.2683294  -0.2682892  -0.2682713  -0.2396199  -0.2395611
           37          38          39          40          41          42
    1  -0.2393095   0.1899240   0.2150112   0.2152194   0.2152836   0.2339995
 Analysis of SCF Wavefunction
 
 --------------------------------------------------------------
                    Orbital Energies (a.u.)
 --------------------------------------------------------------
 
 Alpha MOs
 -- Occupied --
*******-100.701-100.701-100.701 -10.103  -9.224  -9.223  -9.223
 -9.223  -7.043  -7.042  -7.042  -7.042  -7.033  -7.033  -7.032
 -7.032  -7.032  -7.032  -7.032  -7.032  -0.920  -0.796  -0.796
 -0.796  -0.576  -0.427  -0.427  -0.426  -0.307  -0.307  -0.276
 -0.276  -0.276  -0.242  -0.242  -0.242  -0.009
 -- Virtual --
  0.203   0.206   0.206   0.206   0.238   0.238   0.238   0.274
  0.274   0.298   0.298   0.298   0.304   0.305   0.305   0.305
  0.334   0.334   0.334   0.383   0.383   0.383   0.480   0.492
  0.492   0.554   0.554   0.555   0.579   0.579   0.579   0.600
  0.600   0.600   0.613   0.614   0.648   0.673   0.673   0.673
  0.674   0.674   0.674   0.726   0.726   0.726   0.768   0.773
  0.773   0.791   0.791   0.791   0.922   0.922   0.922   1.006
  1.124   1.124   1.124   1.133   1.133   1.199   1.199   1.199
  1.298   1.298   1.298   1.325   1.326   1.326   1.326   1.372
  1.372   1.383   1.383   1.383   1.385   1.385   1.385   1.427
  1.430   1.430   1.430   1.432   1.432   1.453   1.453   1.453
  1.486   1.486   1.486   1.523   1.685   1.685   1.685   1.700
  1.700   1.701   1.708   1.708   1.744   1.838   1.839   1.839
  1.959   1.959   1.959   1.959   1.979   1.979   1.979   2.021
  2.021   2.155   2.155   2.155   2.465   2.465   2.465   2.536
  2.536   2.536   2.570   2.570   2.738   2.738   2.738   2.938
  3.345   3.345   3.345   3.564   3.580   3.580   3.581   3.670
  3.670   3.670   3.907   3.907   4.085   4.085   4.085   4.607
  4.607   4.608   4.611   4.611   4.611   4.615   4.640   4.641
  4.660   4.660   4.661   4.679   4.725   4.725   4.725   4.764
  4.764   4.848   4.849   4.849   4.884   4.884   4.884   4.888
  4.888   4.888   4.896   5.332   5.333   5.334   5.335   5.336
  5.345   5.346   5.347   5.442   5.442   5.443   5.568   5.568
  5.592   5.593   5.593   5.938   6.048   6.048   6.049  10.071
 10.098  10.099  10.099  20.777  20.777  20.777  20.792  20.792
 20.792  20.822  20.822  21.107  21.108  21.108  21.138  23.817
 27.270  27.277  27.283  27.290  27.300  27.307  27.324  27.354
 27.356  27.363  27.363  27.380  27.393  27.410  27.421  27.422
 27.440  27.443  27.443  27.497  28.071  28.080  28.086  36.984
 36.986  36.986  36.987  36.987  36.987  36.988  36.989  36.989
 36.993  36.995  36.995  36.996  36.999  37.000  37.001  37.004
 37.004  37.010  37.011  37.011  37.015  37.018  37.019  37.020
 37.024  37.026  37.026  40.955  40.963  41.208  41.216  41.231
215.986 215.986 215.987 215.987
 
 Beta MOs
 -- Occupied --
*******-100.700-100.700-100.700 -10.093  -9.223  -9.223  -9.222
 -9.222  -7.041  -7.040  -7.040  -7.040  -7.032  -7.032  -7.032
 -7.031  -7.031  -7.031  -7.031  -7.031  -0.910  -0.789  -0.788
 -0.788  -0.552  -0.413  -0.413  -0.412  -0.303  -0.303  -0.268
 -0.268  -0.268  -0.240  -0.240  -0.239
 -- Virtual --
  0.190   0.215   0.215   0.215   0.234   0.245   0.245   0.245
  0.274   0.274   0.306   0.306   0.306   0.313   0.313   0.313
  0.313   0.339   0.339   0.339   0.385   0.385   0.385   0.484
  0.496   0.496   0.560   0.560   0.560   0.585   0.585   0.585
  0.602   0.602   0.602   0.616   0.616   0.656   0.678   0.678
  0.678   0.680   0.680   0.680   0.728   0.728   0.728   0.775
  0.775   0.781   0.803   0.803   0.803   0.924   0.924   0.924
  1.019   1.128   1.128   1.128   1.138   1.138   1.206   1.206
  1.206   1.303   1.303   1.303   1.327   1.328   1.328   1.328
  1.376   1.376   1.386   1.386   1.386   1.389   1.389   1.389
  1.435   1.436   1.436   1.436   1.437   1.437   1.458   1.459
  1.459   1.489   1.490   1.490   1.524   1.688   1.688   1.688
  1.705   1.705   1.705   1.712   1.712   1.748   1.844   1.845
  1.845   1.966   1.966   1.966   1.970   1.984   1.984   1.984
  2.028   2.028   2.159   2.159   2.160   2.467   2.467   2.467
  2.541   2.541   2.541   2.574   2.574   2.744   2.744   2.745
  2.945   3.355   3.355   3.356   3.575   3.592   3.592   3.592
  3.679   3.679   3.679   3.931   3.932   4.108   4.108   4.109
  4.610   4.611   4.611   4.616   4.616   4.617   4.618   4.647
  4.647   4.664   4.664   4.664   4.681   4.731   4.731   4.731
  4.771   4.771   4.856   4.857   4.857   4.892   4.892   4.892
  4.894   4.895   4.895   4.905   5.333   5.334   5.335   5.336
  5.337   5.346   5.347   5.348   5.445   5.445   5.446   5.570
  5.571   5.595   5.596   5.596   5.944   6.051   6.052   6.052
 10.073  10.100  10.101  10.101  20.777  20.778  20.778  20.793
 20.793  20.793  20.822  20.823  21.111  21.112  21.112  21.142
 23.828  27.273  27.279  27.284  27.291  27.301  27.308  27.327
 27.355  27.357  27.364  27.364  27.382  27.395  27.412  27.423
 27.425  27.442  27.445  27.445  27.499  28.080  28.088  28.094
 36.985  36.986  36.986  36.987  36.988  36.988  36.988  36.990
 36.990  36.993  36.996  36.996  36.997  37.000  37.000  37.002
 37.004  37.005  37.011  37.012  37.012  37.016  37.019  37.020
 37.021  37.025  37.027  37.027  40.960  40.968  41.210  41.219
 41.234 215.987 215.987 215.988 215.988
 --------------------------------------------------------------
 
          Ground-State Mulliken Net Atomic Charges

     Atom                 Charge (a.u.)    Spin (a.u.)
  --------------------------------------------------------
      1 C                     1.581741       0.009565
      2 Cl                   -0.646502       0.249367
      3 Cl                   -0.646268       0.249394
      4 Cl                   -0.643075       0.243589
      5 Cl                   -0.645896       0.248085
  --------------------------------------------------------
  Sum of atomic charges =    -1.000000
  Sum of spin   charges =     1.000000

 -----------------------------------------------------------------
                    Cartesian Multipole Moments
 -----------------------------------------------------------------
    Charge (ESU x 10^10)
                -4.8032
    Dipole Moment (Debye)
         X      -0.0229      Y      -0.0225      Z      -0.0150
       Tot       0.0354
    Quadrupole Moments (Debye-Ang)
        XX     -68.1423     XY       0.0401     YY     -68.0602
        XZ       0.0293     YZ       0.0287     ZZ     -68.1584
    Octapole Moments (Debye-Ang^2)
       XXX      -6.6816    XXY      -0.0593    XYY       6.4354
       YYY      -0.1778    XXZ       4.6384    XYZ      -0.0409
       YYZ       4.5487    XZZ      -0.0302    YZZ      -0.0303
       ZZZ      -9.3701
    Hexadecapole Moments (Debye-Ang^3)
      XXXX    -458.8894   XXXY       0.2128   XXYY    -152.7374
      XYYY       0.2926   YYYY    -457.8522   XXXZ       3.8494
      XXYZ       0.0698   XYYZ      -3.5630   YYYZ       0.2095
      XXZZ    -150.3723   XYZZ       0.0781   YYZZ    -150.2109
      XZZZ       0.1445   YZZZ       0.1400   ZZZZ    -461.6725
 -----------------------------------------------------------------
 Total job time:  441.16s(wall), 438.48s(cpu) 
 Tue Apr 30 21:52:55 2013

        *************************************************************
        *                                                           *
        *  Thank you very much for using Q-Chem.  Have a nice day.  *
        *                                                           *
        *************************************************************


0 sent ACK to 0 
now end server 0 ... 
 
**********************************************************************
Job 2 of 3 
**********************************************************************
 
Process 0 of 1 is on cl044.stfx.acenet.ca - thread support 1
initial socket setup ...start
initial socket setup ...done 
now start server 0 ... 

cmd = /usr/bin/ssh clhead /usr/local/qchem/bin/get_hostid 1246553142 > /scratch/tmp/5955914.1.short.q/qchem26062/lic.dat
                  Welcome to Q-Chem
     A Quantum Leap Into The Future Of Chemistry

 Y. Shao, L. Fusti-Molnar, Y. Jung, J. Kussmann, C. Ochsenfeld,
 S. T. Brown, A. T. B. Gilbert, L. V. Slipchenko,S. V. Levchenko,
 D. P. O'Neill, R. A. DiStasio Jr., R. C. Lochan, T. Wang,
 G. J. O. Beran, N. A. Besley, J. M. Herbert, C. Y. Lin,
 T. Van Voorhis, S. H. Chien, A. Sodt, R. P. Steele, 
 V. A. Rassolov, P. E. Maslen, P. P. Korambath, R. D. Adamson,
 B. Austin, J. Baker, E. F. C. Byrd, H. Dachsel, R. J. Doerksen,
 A. Dreuw, B. D. Dunietz, A. D. Dutoi, T. R. Furlani,
 S. R. Gwaltney, A. Heyden, S. Hirata, C.-P. Hsu, G. Kedziora,
 R. Z. Khaliullin, P. Klunzinger, A. M. Lee, M. S. Lee, W. Liang,
 I. Lotan, N. Nair, B. Peters, E. I. Proynov, P. A. Pieniazek, 
 Y. M. Rhee, J. Ritchie, E. Rosta, C. D. Sherrill, 
 A. C. Simmonett, J. E. Subotnik, H. L. Woodcock III,
 W. Zhang, A. T. Bell, A. K. Chakraborty, D. M. Chipman,
 F. J. Keil, A. Warshel, W. J. Hehre, H. F. Schaefer III,
 J. Kong, A. I. Krylov, P. M. W. Gill, M. Head-Gordon,
 Q-Chem, Version 3.1, Q-Chem, Inc., Pittsburgh, PA (2007).

 Additional authors for Version 3.1: 
 Z. Gan, Y. Zhao, N. E. Schultz, D. Truhlar, E. Epifanovsky and M. Oana.

 Additional authors for Version 3.2: 
 R. Baer, B. R. Brooks, D. Casanova, J.-D. Chai, C.-L. Cheng, 
 C. Cramer, D. Crittenden, A. Ghysels, G. Hawkins, E. G. Hohenstein, 
 C. Kelley, W. Kurlancheek, D. Liotard, E. Livshits, P. Manohar, 
 A. Marenich, D. Neuhauser, R. Olson, M. A. Rohrdanz, K. S. Thanthiriwatte, 
 A. J. W. Thom, V. Vanovschi, C. F. Williams, Q. Wu and Z.-Q. You. 


 Intel X86 Linux Version

 Q-chem begins on Tue Apr 30 21:52:58 2013  

 Parallel job on  1  processors
Processing $rem in /usr/local/qchem/config/preferences.

theFileMan(): MAXOPENFILES=974 MAX_SUB_FILE_NUM=16
Maximum size of a physical file is 2.0 GB, maximum size of a tmp-file is 32.0 GB


--------------------------------------------------------------
User input:
--------------------------------------------------------------

$molecule
0,1
C
Cl,1,R
Cl,1,R,2,A
Cl,1,R,2,A,3,120.,0
Cl,1,R,2,A,3,-120.,0

 R=1.79265109
 A=109.47122063

$end

$comment
neutral
$end

$xc_functional
C PBE   1.00
X wPBE  1.00
$end


$rem
SYMMETRY_DECOMPOSITION	0
LRC_DFT                 true
exchange 		general
BASIS                   g3large
omega			390
mem_static              760
max_scf_cycles          200
scf_final_print         1
sym_ignore              true
$end

--------------------------------------------------------------
 Writing REM_CC_EA            5
 ----------------------------------------------------
       Standard Nuclear Orientation (Angstroms)
    I     Atom         X            Y            Z
 ----------------------------------------------------
    1      C       0.000000     0.000000     0.000000
    2      Cl      0.000000     0.000000     1.792651
    3      Cl      1.690128     0.000000    -0.597550
    4      Cl     -0.845064    -1.463693    -0.597550
    5      Cl     -0.845064     1.463693    -0.597550
 ----------------------------------------------------
 Nuclear Repulsion Energy =   433.8898630955 hartrees
 There are       37 alpha and       37 beta electrons
 Requested basis set is G3large
 There are 86 shells and 306 basis functions

Total QAlloc Memory Limit   2000 MB
Mega-Array Size       743 MB
MEM_STATIC part       760 MB

                       Distance Matrix (Angstroms)
             C (  1)   Cl(  2)   Cl(  3)   Cl(  4)
   Cl(  2)  1.792651
   Cl(  3)  1.792651  2.927387
   Cl(  4)  1.792651  2.927387  2.927387
   Cl(  5)  1.792651  2.927387  2.927387  2.927387
 
 A cutoff of  1.0D-08 yielded   2917 shell pairs
 There are  38585 function pairs ( 54299 Cartesian)
Evaluating contribution to one-electron hamiltonian from nuclear
 Smallest overlap matrix eigenvalue = 4.44E-05

 Q-Chem warning in module mkSTV.C, line 194:

 Overlap eigenvalue is smaller than square root of threshold

 Multipole matrices computed through 2nd order

  Scale SEOQF with 1.000000e-01/1.000000e-01/1.000000e-01

 Standard Electronic Orientation quadrupole field applied
 Guess from superposition of atomic densities
 Warning:  Energy on first SCF cycle will be non-variational
 Long-range K will be added via erf
 Coulomb attenuation parameter = 0.39 bohr**(-1)
 A restricted Kohn-Sham SCF calculation will be
 performed using Pulay DIIS extrapolation
 Exchange:  wPBE + LR-HF      Correlation:  PBE
 Using SG-1 standard quadrature grid
 SCF converges when DIIS error is below 1.0E-05
 Requested basis set is G3large
 There are 86 shells and 306 basis functions
 A cutoff of  1.0D-08 yielded   2917 shell pairs
 There are  38585 function pairs ( 54299 Cartesian)
 ---------------------------------------
  Cycle       Energy         DIIS Error
 ---------------------------------------
    1   -1879.0688618598      1.81E-02
    2   -1878.1274357537      4.00E-03
    3   -1878.0088846406      5.89E-03
    4   -1878.3233065659      3.33E-04
    5   -1878.3248862144      9.71E-05
    6   -1878.3250668659      3.29E-05
    7   -1878.3250968418      9.97E-06 Convergence criterion met
 ---------------------------------------
 One-Electron    Energy = -3457.3919524867
 Total Coulomb   Energy =  1262.9203221347
 Alpha Exchange  Energy =    -7.5184168141
 Beta  Exchange  Energy =    -7.5184168141
 DFT   Exchange  Energy =   -99.8255036241
 DFT Correlation Energy =    -2.8809923329
 Nuclear Repu.   Energy =   433.8898630955
 Nuclear Attr.   Energy = -5332.9348752645
 Kinetic         Energy =  1875.5429227778
 SCF time:  CPU 316.88 s  wall 319.12 s
 Final Alpha MO Eigenvalues
            1           2           3           4           5           6
    1-100.9119930-100.9117739-100.9117654-100.9115696 -10.3602592  -9.4338092
            7           8           9          10          11          12
    1  -9.4336564  -9.4336428  -9.4334666  -7.2542933  -7.2539592  -7.2539361
           13          14          15          16          17          18
    1  -7.2537693  -7.2417426  -7.2416666  -7.2416622  -7.2416461  -7.2415566
           19          20          21          22          23          24
    1  -7.2414991  -7.2413951  -7.2412123  -1.1269465  -0.9982467  -0.9981854
           25          26          27          28          29          30
    1  -0.9981166  -0.7663956  -0.6262803  -0.6262528  -0.6262380  -0.5037640
           31          32          33          34          35          36
    1  -0.5037491  -0.4705098  -0.4704878  -0.4704853  -0.4401993  -0.4401403
           37          38          39          40          41          42
    1  -0.4401296   0.0148293   0.0598872   0.0599033   0.0599151   0.0737064
 Analysis of SCF Wavefunction
 
 --------------------------------------------------------------
                    Orbital Energies (a.u.)
 --------------------------------------------------------------
 
 Alpha MOs
 -- Occupied --
*******-100.912-100.912-100.912 -10.360  -9.434  -9.434  -9.434
 -9.433  -7.254  -7.254  -7.254  -7.254  -7.242  -7.242  -7.242
 -7.242  -7.242  -7.241  -7.241  -7.241  -1.127  -0.998  -0.998
 -0.998  -0.766  -0.626  -0.626  -0.626  -0.504  -0.504  -0.471
 -0.470  -0.470  -0.440  -0.440  -0.440
 -- Virtual --
  0.015   0.060   0.060   0.060   0.074   0.098   0.098   0.098
  0.140   0.140   0.148   0.148   0.148   0.171   0.178   0.178
  0.178   0.190   0.190   0.190   0.231   0.231   0.231   0.304
  0.304   0.328   0.383   0.383   0.383   0.406   0.406   0.406
  0.416   0.416   0.416   0.433   0.433   0.495   0.497   0.497
  0.497   0.517   0.517   0.517   0.558   0.558   0.558   0.596
  0.600   0.600   0.607   0.607   0.607   0.743   0.743   0.743
  0.819   0.934   0.934   0.934   0.943   0.943   1.008   1.008
  1.008   1.111   1.111   1.111   1.136   1.136   1.136   1.138
  1.183   1.183   1.194   1.194   1.194   1.194   1.195   1.195
  1.236   1.236   1.238   1.240   1.240   1.240   1.266   1.267
  1.267   1.298   1.298   1.299   1.337   1.493   1.493   1.493
  1.512   1.512   1.516   1.516   1.516   1.562   1.646   1.646
  1.646   1.760   1.760   1.760   1.762   1.790   1.790   1.790
  1.831   1.831   1.958   1.958   1.958   2.273   2.273   2.273
  2.340   2.340   2.340   2.375   2.375   2.537   2.537   2.537
  2.738   3.132   3.132   3.132   3.356   3.371   3.371   3.371
  3.457   3.457   3.457   3.699   3.699   3.876   3.877   3.877
  4.405   4.405   4.405   4.408   4.408   4.408   4.414   4.437
  4.437   4.459   4.459   4.459   4.478   4.523   4.523   4.523
  4.561   4.561   4.646   4.646   4.646   4.680   4.680   4.680
  4.684   4.685   4.685   4.691   5.128   5.129   5.130   5.131
  5.131   5.141   5.142   5.142   5.234   5.235   5.235   5.359
  5.360   5.386   5.387   5.387   5.730   5.838   5.839   5.839
  9.865   9.892   9.892   9.892  20.568  20.568  20.569  20.583
 20.584  20.584  20.613  20.614  20.898  20.898  20.899  20.928
 23.561  27.052  27.061  27.073  27.081  27.088  27.097  27.107
 27.145  27.146  27.154  27.155  27.170  27.180  27.199  27.210
 27.211  27.228  27.230  27.232  27.285  27.832  27.841  27.848
 36.774  36.776  36.776  36.777  36.777  36.777  36.778  36.779
 36.780  36.784  36.786  36.786  36.787  36.789  36.790  36.791
 36.793  36.793  36.798  36.799  36.800  36.803  36.807  36.808
 36.809  36.813  36.815  36.815  40.702  40.710  40.953  40.962
 40.977 215.775 215.776 215.776 215.776
 --------------------------------------------------------------
 
          Ground-State Mulliken Net Atomic Charges

     Atom                 Charge (a.u.)
  ----------------------------------------
      1 C                     1.385863
      2 Cl                   -0.346363
      3 Cl                   -0.346139
      4 Cl                   -0.346797
      5 Cl                   -0.346564
  ----------------------------------------
  Sum of atomic charges =     0.000000

 -----------------------------------------------------------------
                    Cartesian Multipole Moments
 -----------------------------------------------------------------
    Charge (ESU x 10^10)
                 0.0000
    Dipole Moment (Debye)
         X       0.0002      Y       0.0015      Z       0.0007
       Tot       0.0016
    Quadrupole Moments (Debye-Ang)
        XX     -54.5300     XY       0.0005     YY     -54.5308
        XZ      -0.0002     YZ       0.0006     ZZ     -54.5273
    Octapole Moments (Debye-Ang^2)
       XXX       4.8793    XXY      -0.0016    XYY      -4.8828
       YYY      -0.0046    XXZ      -3.4493    XYZ       0.0008
       YYZ      -3.4549    XZZ       0.0006    YZZ      -0.0021
       ZZZ       6.9078
    Hexadecapole Moments (Debye-Ang^3)
      XXXX    -359.3931   XXXY      -0.0061   XXYY    -119.7998
      XYYY       0.0026   YYYY    -359.3988   XXXZ      -6.5056
      XXYZ       0.0022   XYYZ       6.5064   YYYZ       0.0067
      XXZZ    -124.3962   XYZZ      -0.0002   YYZZ    -124.3957
      XZZZ       0.0008   YZZZ       0.0013   ZZZZ    -354.7782
 -----------------------------------------------------------------
 Total job time:  319.68s(wall), 317.43s(cpu) 
 Tue Apr 30 21:58:17 2013

        *************************************************************
        *                                                           *
        *  Thank you very much for using Q-Chem.  Have a nice day.  *
        *                                                           *
        *************************************************************


0 sent ACK to 0 
now end server 0 ... 
 
**********************************************************************
Job 3 of 3 
**********************************************************************
 
Process 0 of 1 is on cl044.stfx.acenet.ca - thread support 1
initial socket setup ...start
initial socket setup ...done 
now start server 0 ... 

cmd = /usr/bin/ssh clhead /usr/local/qchem/bin/get_hostid 739641025 > /scratch/tmp/5955914.1.short.q/qchem26062/lic.dat
                  Welcome to Q-Chem
     A Quantum Leap Into The Future Of Chemistry

 Y. Shao, L. Fusti-Molnar, Y. Jung, J. Kussmann, C. Ochsenfeld,
 S. T. Brown, A. T. B. Gilbert, L. V. Slipchenko,S. V. Levchenko,
 D. P. O'Neill, R. A. DiStasio Jr., R. C. Lochan, T. Wang,
 G. J. O. Beran, N. A. Besley, J. M. Herbert, C. Y. Lin,
 T. Van Voorhis, S. H. Chien, A. Sodt, R. P. Steele, 
 V. A. Rassolov, P. E. Maslen, P. P. Korambath, R. D. Adamson,
 B. Austin, J. Baker, E. F. C. Byrd, H. Dachsel, R. J. Doerksen,
 A. Dreuw, B. D. Dunietz, A. D. Dutoi, T. R. Furlani,
 S. R. Gwaltney, A. Heyden, S. Hirata, C.-P. Hsu, G. Kedziora,
 R. Z. Khaliullin, P. Klunzinger, A. M. Lee, M. S. Lee, W. Liang,
 I. Lotan, N. Nair, B. Peters, E. I. Proynov, P. A. Pieniazek, 
 Y. M. Rhee, J. Ritchie, E. Rosta, C. D. Sherrill, 
 A. C. Simmonett, J. E. Subotnik, H. L. Woodcock III,
 W. Zhang, A. T. Bell, A. K. Chakraborty, D. M. Chipman,
 F. J. Keil, A. Warshel, W. J. Hehre, H. F. Schaefer III,
 J. Kong, A. I. Krylov, P. M. W. Gill, M. Head-Gordon,
 Q-Chem, Version 3.1, Q-Chem, Inc., Pittsburgh, PA (2007).

 Additional authors for Version 3.1: 
 Z. Gan, Y. Zhao, N. E. Schultz, D. Truhlar, E. Epifanovsky and M. Oana.

 Additional authors for Version 3.2: 
 R. Baer, B. R. Brooks, D. Casanova, J.-D. Chai, C.-L. Cheng, 
 C. Cramer, D. Crittenden, A. Ghysels, G. Hawkins, E. G. Hohenstein, 
 C. Kelley, W. Kurlancheek, D. Liotard, E. Livshits, P. Manohar, 
 A. Marenich, D. Neuhauser, R. Olson, M. A. Rohrdanz, K. S. Thanthiriwatte, 
 A. J. W. Thom, V. Vanovschi, C. F. Williams, Q. Wu and Z.-Q. You. 


 Intel X86 Linux Version

 Q-chem begins on Tue Apr 30 21:58:21 2013  

 Parallel job on  1  processors
Processing $rem in /usr/local/qchem/config/preferences.

theFileMan(): MAXOPENFILES=974 MAX_SUB_FILE_NUM=16
Maximum size of a physical file is 2.0 GB, maximum size of a tmp-file is 32.0 GB


--------------------------------------------------------------
User input:
--------------------------------------------------------------

$molecule
1,2
C
Cl,1,R
Cl,1,R,2,A
Cl,1,R,2,A,3,120.,0
Cl,1,R,2,A,3,-120.,0

 R=1.79265109
 A=109.47122063

$end

$comment
positive
$end

$xc_functional
C PBE   1.00
X wPBE  1.00
$end

$rem
SYMMETRY_DECOMPOSITION	0
LRC_DFT                 true
exchange 		general
BASIS                   g3large
omega			390
mem_static              760
max_scf_cycles          200
scf_final_print         1
sym_ignore              true
$end

--------------------------------------------------------------
 Writing REM_CC_EA            5
 ----------------------------------------------------
       Standard Nuclear Orientation (Angstroms)
    I     Atom         X            Y            Z
 ----------------------------------------------------
    1      C       0.000000     0.000000     0.000000
    2      Cl      0.000000     0.000000     1.792651
    3      Cl      1.690128     0.000000    -0.597550
    4      Cl     -0.845064    -1.463693    -0.597550
    5      Cl     -0.845064     1.463693    -0.597550
 ----------------------------------------------------
 Nuclear Repulsion Energy =   433.8898630955 hartrees
 There are       37 alpha and       36 beta electrons
 Requested basis set is G3large
 There are 86 shells and 306 basis functions

Total QAlloc Memory Limit   2000 MB
Mega-Array Size       743 MB
MEM_STATIC part       760 MB

                       Distance Matrix (Angstroms)
             C (  1)   Cl(  2)   Cl(  3)   Cl(  4)
   Cl(  2)  1.792651
   Cl(  3)  1.792651  2.927387
   Cl(  4)  1.792651  2.927387  2.927387
   Cl(  5)  1.792651  2.927387  2.927387  2.927387
 
 A cutoff of  1.0D-08 yielded   2917 shell pairs
 There are  38585 function pairs ( 54299 Cartesian)
Evaluating contribution to one-electron hamiltonian from nuclear
 Smallest overlap matrix eigenvalue = 4.44E-05

 Q-Chem warning in module mkSTV.C, line 194:

 Overlap eigenvalue is smaller than square root of threshold

 Multipole matrices computed through 2nd order

  Scale SEOQF with 1.000000e-01/1.000000e-01/1.000000e-01

 Standard Electronic Orientation quadrupole field applied
 Guess from superposition of atomic densities
 Warning:  Energy on first SCF cycle will be non-variational
 Long-range K will be added via erf
 Coulomb attenuation parameter = 0.39 bohr**(-1)
 An unrestricted Kohn-Sham SCF calculation will be
 performed using Pulay DIIS extrapolation
 Exchange:  wPBE + LR-HF      Correlation:  PBE
 Using SG-1 standard quadrature grid
 SCF converges when DIIS error is below 1.0E-05
 Requested basis set is G3large
 There are 86 shells and 306 basis functions
 A cutoff of  1.0D-08 yielded   2917 shell pairs
 There are  38585 function pairs ( 54299 Cartesian)
 Warning!  Inaccurate integrated density:
   Number of electrons =    73
   Numerical integral  =    74.000066107291
   Relative error      =     1.3699535716 %
 ---------------------------------------
  Cycle       Energy         DIIS Error
 ---------------------------------------
    1   -1879.0688618598      1.81E-02
    2   -1877.5887807609      4.62E-03
    3   -1877.4325917436      6.92E-03
    4   -1877.8818157113      4.84E-04
    5   -1877.8851938936      1.68E-04
    6   -1877.8858590739      6.46E-05
    7   -1877.8861837656      3.72E-05
    8   -1877.8864187822      3.87E-05
    9   -1877.8866138912      2.86E-05
   10   -1877.8868686962      2.54E-05
   11   -1877.8870246124      1.78E-05
   12   -1877.8871399822      1.27E-05
   13   -1877.8872208245      1.01E-05
   14   -1877.8873270188      7.07E-06 Convergence criterion met
 ---------------------------------------
 One-Electron    Energy = -3440.4186054428
 Total Coulomb   Energy =  1245.9799128671
 Alpha Exchange  Energy =    -7.5351473802
 Beta  Exchange  Energy =    -7.2973095771
 DFT   Exchange  Energy =   -99.6646154733
 DFT Correlation Energy =    -2.8414251081
 Nuclear Repu.   Energy =   433.8898630955
 Nuclear Attr.   Energy = -5315.4749234159
 Kinetic         Energy =  1875.0563179731
 <S^2> = 0.7595
 SCF time:  CPU 730.61 s  wall 737.34 s
 Final Alpha MO Eigenvalues
            1           2           3           4           5           6
    1-101.1920028-101.1852340-101.1172297-101.1135328 -10.5763974  -9.7097869
            7           8           9          10          11          12
    1  -9.7032417  -9.6374009  -9.6338362  -7.5279463  -7.5261481  -7.5216429
           13          14          15          16          17          18
    1  -7.5189897  -7.5146652  -7.5082852  -7.4578205  -7.4546304  -7.4469688
           19          20          21          22          23          24
    1  -7.4444752  -7.4429910  -7.4408265  -1.3562678  -1.2566324  -1.2231283
           25          26          27          28          29          30
    1  -1.1966817  -0.9899527  -0.8601276  -0.8498847  -0.8344618  -0.7518163
           31          32          33          34          35          36
    1  -0.7320706  -0.7257317  -0.6968918  -0.6770400  -0.6644084  -0.6531969
           37          38          39          40          41          42
    1  -0.6369919  -0.1989909  -0.1513886  -0.1376212  -0.1318033  -0.0752392
 Final Beta MO Eigenvalues
            1           2           3           4           5           6
    1-101.1887854-101.1822434-101.1166433-101.1130871 -10.5766450  -9.7069245
            7           8           9          10          11          12
    1  -9.7005841  -9.6368853  -9.6334444  -7.5252087  -7.5191296  -7.5185731
           13          14          15          16          17          18
    1  -7.5127326  -7.5119249  -7.5064902  -7.4575615  -7.4544346  -7.4453056
           19          20          21          22          23          24
    1  -7.4441807  -7.4417004  -7.4406280  -1.3482618  -1.2323307  -1.2115778
           25          26          27          28          29          30
    1  -1.1935285  -0.9816594  -0.8509074  -0.8333482  -0.8325201  -0.7239055
           31          32          33          34          35          36
    1  -0.6920363  -0.6880897  -0.6599033  -0.6589748  -0.6374570  -0.6357153
           37          38          39          40          41
    1  -0.4335515  -0.1939925  -0.1463734  -0.1337908  -0.1312964
 Analysis of SCF Wavefunction
 
 --------------------------------------------------------------
                    Orbital Energies (a.u.)
 --------------------------------------------------------------
 
 Alpha MOs
 -- Occupied --
*******-101.185-101.117-101.114 -10.576  -9.710  -9.703  -9.637
 -9.634  -7.528  -7.526  -7.522  -7.519  -7.515  -7.508  -7.458
 -7.455  -7.447  -7.444  -7.443  -7.441  -1.356  -1.257  -1.223
 -1.197  -0.990  -0.860  -0.850  -0.834  -0.752  -0.732  -0.726
 -0.697  -0.677  -0.664  -0.653  -0.637
 -- Virtual --
 -0.199  -0.151  -0.138  -0.132  -0.075  -0.043  -0.039  -0.037
 -0.005  -0.003  -0.003  -0.001  -0.001   0.027   0.034   0.034
  0.038   0.041   0.045   0.049   0.056   0.060   0.067   0.098
  0.098   0.168   0.186   0.189   0.197   0.197   0.215   0.222
  0.222   0.223   0.228   0.237   0.246   0.287   0.306   0.317
  0.324   0.340   0.355   0.362   0.367   0.375   0.381   0.393
  0.397   0.414   0.416   0.420   0.421   0.535   0.551   0.560
  0.614   0.725   0.725   0.732   0.741   0.743   0.791   0.798
  0.810   0.896   0.900   0.905   0.920   0.923   0.929   0.934
  0.956   0.959   0.963   0.964   0.974   0.997   0.998   1.002
  1.019   1.023   1.026   1.034   1.037   1.049   1.051   1.063
  1.075   1.076   1.094   1.112   1.131   1.270   1.274   1.283
  1.297   1.299   1.310   1.311   1.331   1.368   1.425   1.441
  1.449   1.538   1.540   1.560   1.564   1.574   1.582   1.590
  1.628   1.630   1.728   1.746   1.758   2.027   2.056   2.068
  2.105   2.128   2.130   2.166   2.169   2.311   2.320   2.335
  2.522   2.916   2.916   2.918   3.136   3.151   3.157   3.161
  3.230   3.243   3.254   3.484   3.485   3.659   3.659   3.662
  4.136   4.147   4.152   4.162   4.165   4.171   4.182   4.202
  4.214   4.218   4.237   4.250   4.251   4.288   4.291   4.304
  4.327   4.347   4.390   4.413   4.424   4.427   4.447   4.461
  4.465   4.468   4.481   4.483   4.859   4.861   4.868   4.872
  4.930   4.932   4.938   4.939   4.992   4.994   5.009   5.118
  5.134   5.142   5.175   5.178   5.497   5.585   5.616   5.635
  9.609   9.626   9.682   9.693  20.290  20.311  20.316  20.318
 20.372  20.374  20.395  20.400  20.632  20.643  20.695  20.714
 23.345  26.809  26.810  26.819  26.842  26.855  26.868  26.871
 26.877  26.882  26.886  26.936  26.937  26.950  26.955  26.958
 26.993  27.017  27.022  27.029  27.046  27.614  27.616  27.624
 36.502  36.504  36.505  36.507  36.511  36.512  36.513  36.516
 36.520  36.527  36.529  36.533  36.537  36.537  36.577  36.578
 36.581  36.582  36.583  36.585  36.588  36.589  36.594  36.597
 36.599  36.601  36.604  36.611  40.486  40.495  40.737  40.746
 40.760 215.497 215.503 215.571 215.574
 
 Beta MOs
 -- Occupied --
*******-101.182-101.117-101.113 -10.577  -9.707  -9.701  -9.637
 -9.633  -7.525  -7.519  -7.519  -7.513  -7.512  -7.506  -7.458
 -7.454  -7.445  -7.444  -7.442  -7.441  -1.348  -1.232  -1.212
 -1.194  -0.982  -0.851  -0.833  -0.833  -0.724  -0.692  -0.688
 -0.660  -0.659  -0.637  -0.636
 -- Virtual --
 -0.434  -0.194  -0.146  -0.134  -0.131  -0.075  -0.042  -0.038
 -0.037  -0.003  -0.002  -0.002   0.000   0.001   0.028   0.035
  0.037   0.039   0.043   0.046   0.049   0.064   0.065   0.067
  0.102   0.106   0.168   0.197   0.201   0.204   0.213   0.218
  0.224   0.227   0.228   0.230   0.244   0.249   0.305   0.310
  0.319   0.327   0.343   0.357   0.363   0.377   0.377   0.386
  0.399   0.404   0.416   0.419   0.421   0.423   0.546   0.554
  0.561   0.615   0.728   0.729   0.735   0.743   0.743   0.796
  0.803   0.811   0.904   0.909   0.910   0.928   0.930   0.936
  0.939   0.968   0.973   0.974   0.977   0.985   1.001   1.002
  1.005   1.026   1.027   1.030   1.038   1.041   1.052   1.061
  1.068   1.077   1.085   1.100   1.114   1.138   1.278   1.283
  1.290   1.303   1.307   1.313   1.316   1.333   1.372   1.433
  1.443   1.451   1.541   1.543   1.561   1.565   1.584   1.586
  1.595   1.630   1.633   1.737   1.749   1.760   2.050   2.061
  2.072   2.121   2.130   2.135   2.170   2.173   2.315   2.324
  2.336   2.524   2.916   2.916   2.918   3.138   3.152   3.157
  3.161   3.232   3.244   3.254   3.483   3.484   3.659   3.660
  3.661   4.161   4.171   4.175   4.178   4.184   4.188   4.201
  4.213   4.225   4.225   4.246   4.256   4.260   4.297   4.302
  4.310   4.340   4.351   4.406   4.420   4.428   4.440   4.455
  4.465   4.466   4.474   4.483   4.485   4.868   4.870   4.876
  4.880   4.931   4.934   4.940   4.940   4.995   4.998   5.014
  5.119   5.137   5.148   5.176   5.179   5.500   5.590   5.618
  5.635   9.615   9.632   9.683   9.694  20.302  20.314  20.320
 20.327  20.373  20.376  20.397  20.401  20.635  20.646  20.695
 20.715  23.345  26.814  26.815  26.824  26.844  26.857  26.871
 26.877  26.883  26.885  26.893  26.939  26.940  26.951  26.956
 26.959  26.994  27.018  27.022  27.030  27.047  27.615  27.617
 27.624  36.504  36.506  36.508  36.510  36.513  36.514  36.516
 36.519  36.522  36.528  36.531  36.535  36.537  36.538  36.578
 36.579  36.581  36.583  36.584  36.585  36.589  36.589  36.594
 36.597  36.599  36.601  36.604  36.611  40.485  40.494  40.737
 40.746  40.760 215.500 215.507 215.571 215.575
 --------------------------------------------------------------
 
          Ground-State Mulliken Net Atomic Charges

     Atom                 Charge (a.u.)    Spin (a.u.)
  --------------------------------------------------------
      1 C                     1.373170      -0.053865
      2 Cl                   -0.190841       0.088047
      3 Cl                   -0.200095       0.070619
      4 Cl                    0.018908       0.464124
      5 Cl                   -0.001142       0.431075
  --------------------------------------------------------
  Sum of atomic charges =     1.000000
  Sum of spin   charges =     1.000000

 -----------------------------------------------------------------
                    Cartesian Multipole Moments
 -----------------------------------------------------------------
    Charge (ESU x 10^10)
                 4.8032
    Dipole Moment (Debye)
         X      -1.4570      Y      -0.1087      Z      -0.9564
       Tot       1.7463
    Quadrupole Moments (Debye-Ang)
        XX     -44.9978     XY       0.1094     YY     -41.0954
        XZ       1.4049     YZ       0.0909     ZZ     -45.7514
    Octapole Moments (Debye-Ang^2)
       XXX       6.1321    XXY      -0.1097    XYY     -12.0261
       YYY      -0.3520    XXZ      -8.3954    XYZ      -0.0701
       YYZ      -8.3528    XZZ      -1.4923    YZZ      -0.0550
       ZZZ      11.9369
    Hexadecapole Moments (Debye-Ang^3)
      XXXX    -312.2337   XXXY       0.4930   XXYY    -102.9336
      XYYY       0.0948   YYYY    -289.3995   XXXZ      -5.9350
      XXYZ       0.1319   XYYZ      10.3540   YYYZ       0.2280
      XXZZ    -111.2856   XYZZ       0.0935   YYZZ    -110.0370
      XZZZ       3.5166   YZZZ       0.1980   ZZZZ    -309.3702
 -----------------------------------------------------------------
 Total job time:  737.92s(wall), 731.17s(cpu) 
 Tue Apr 30 22:10:39 2013

        *************************************************************
        *                                                           *
        *  Thank you very much for using Q-Chem.  Have a nice day.  *
        *                                                           *
        *************************************************************


0 sent ACK to 0 
now end server 0 ... 
