Process 0 of 1 is on cl052.stfx.acenet.ca - thread support 1
initial socket setup ...start
initial socket setup ...done 
now start server 0 ... 

cmd = /usr/bin/ssh clhead /usr/local/qchem/bin/get_hostid 1380815327 > /scratch/tmp/6064840.1.short.q/qchem27153/lic.dat
                  Welcome to Q-Chem
     A Quantum Leap Into The Future Of Chemistry

 Y. Shao, L. Fusti-Molnar, Y. Jung, J. Kussmann, C. Ochsenfeld,
 S. T. Brown, A. T. B. Gilbert, L. V. Slipchenko,S. V. Levchenko,
 D. P. O'Neill, R. A. DiStasio Jr., R. C. Lochan, T. Wang,
 G. J. O. Beran, N. A. Besley, J. M. Herbert, C. Y. Lin,
 T. Van Voorhis, S. H. Chien, A. Sodt, R. P. Steele, 
 V. A. Rassolov, P. E. Maslen, P. P. Korambath, R. D. Adamson,
 B. Austin, J. Baker, E. F. C. Byrd, H. Dachsel, R. J. Doerksen,
 A. Dreuw, B. D. Dunietz, A. D. Dutoi, T. R. Furlani,
 S. R. Gwaltney, A. Heyden, S. Hirata, C.-P. Hsu, G. Kedziora,
 R. Z. Khaliullin, P. Klunzinger, A. M. Lee, M. S. Lee, W. Liang,
 I. Lotan, N. Nair, B. Peters, E. I. Proynov, P. A. Pieniazek, 
 Y. M. Rhee, J. Ritchie, E. Rosta, C. D. Sherrill, 
 A. C. Simmonett, J. E. Subotnik, H. L. Woodcock III,
 W. Zhang, A. T. Bell, A. K. Chakraborty, D. M. Chipman,
 F. J. Keil, A. Warshel, W. J. Hehre, H. F. Schaefer III,
 J. Kong, A. I. Krylov, P. M. W. Gill, M. Head-Gordon,
 Q-Chem, Version 3.1, Q-Chem, Inc., Pittsburgh, PA (2007).

 Additional authors for Version 3.1: 
 Z. Gan, Y. Zhao, N. E. Schultz, D. Truhlar, E. Epifanovsky and M. Oana.

 Additional authors for Version 3.2: 
 R. Baer, B. R. Brooks, D. Casanova, J.-D. Chai, C.-L. Cheng, 
 C. Cramer, D. Crittenden, A. Ghysels, G. Hawkins, E. G. Hohenstein, 
 C. Kelley, W. Kurlancheek, D. Liotard, E. Livshits, P. Manohar, 
 A. Marenich, D. Neuhauser, R. Olson, M. A. Rohrdanz, K. S. Thanthiriwatte, 
 A. J. W. Thom, V. Vanovschi, C. F. Williams, Q. Wu and Z.-Q. You. 


 Intel X86 Linux Version

 Q-chem begins on Mon Jul  8 12:26:04 2013  

 Parallel job on  1  processors
Processing $rem in /usr/local/qchem/config/preferences.

theFileMan(): MAXOPENFILES=974 MAX_SUB_FILE_NUM=16
Maximum size of a physical file is 2.0 GB, maximum size of a tmp-file is 32.0 GB


--------------------------------------------------------------
User input:
--------------------------------------------------------------

$molecule
-1,2
C         -0.00003        0.00000        0.00516
H         -0.00008        0.00000        1.10218
C          1.44812        0.00000       -0.46687
H          1.49471        0.00000       -1.56081
H          1.98381        0.88422       -0.11143
H          1.98381       -0.88422       -0.11143
C         -0.72414       -1.25418       -0.46676
H         -0.74732       -1.29470       -1.56072
H         -0.22592       -2.15997       -0.11132
H         -1.75778       -1.27628       -0.11148
C         -0.72414        1.25418       -0.46676
H         -0.74732        1.29470       -1.56072
H         -1.75778        1.27628       -0.11148
H         -0.22592        2.15997       -0.11132
$end

$comment
negative
$end

$xc_functional
C PBE   1.00
X wPBE  1.00
$end

$rem
SYMMETRY_DECOMPOSITION	0
exchange 		general
LRC_DFT                 true
BASIS                   g3large
omega			1000
mem_static              760
max_scf_cycles          200
scf_final_print         1
sym_ignore              true
$end

--------------------------------------------------------------
 Writing REM_CC_EA           14
 ----------------------------------------------------
       Standard Nuclear Orientation (Angstroms)
    I     Atom         X            Y            Z
 ----------------------------------------------------
    1      C      -0.000030     0.000000     0.005160
    2      H      -0.000080     0.000000     1.102180
    3      C       1.448120     0.000000    -0.466870
    4      H       1.494710     0.000000    -1.560810
    5      H       1.983810     0.884220    -0.111430
    6      H       1.983810    -0.884220    -0.111430
    7      C      -0.724140    -1.254180    -0.466760
    8      H      -0.747320    -1.294700    -1.560720
    9      H      -0.225920    -2.159970    -0.111320
   10      H      -1.757780    -1.276280    -0.111480
   11      C      -0.724140     1.254180    -0.466760
   12      H      -0.747320     1.294700    -1.560720
   13      H      -1.757780     1.276280    -0.111480
   14      H      -0.225920     2.159970    -0.111320
 ----------------------------------------------------
 Nuclear Repulsion Energy =   135.0123242027 hartrees
 There are       18 alpha and       17 beta electrons
 Requested basis set is G3large
 There are 100 shells and 268 basis functions

Total QAlloc Memory Limit   2000 MB
Mega-Array Size       743 MB
MEM_STATIC part       760 MB

                       Distance Matrix (Angstroms)
             C (  1)   H (  2)   C (  3)   H (  4)   H (  5)   H (  6)
   H (  2)  1.097020
   C (  3)  1.523138  2.135229
   H (  4)  2.164835  3.053836  1.094932
   H (  5)  2.175100  2.488074  1.093228  1.766852
   H (  6)  2.175100  2.488074  1.093228  1.766852  1.768440
   C (  7)  1.523158  2.135135  2.508322  2.773663  3.468718  2.756106
   H (  8)  2.164872  3.053793  2.773574  2.589005  3.782487  3.118975
   H (  9)  2.174871  2.487781  2.755775  3.118823  3.761649  2.551557
   H ( 10)  2.175358  2.488246  3.468860  3.782610  4.320562  3.762075
   C ( 11)  1.523158  2.135135  2.508322  2.773663  2.756106  3.468718
   H ( 12)  2.164872  3.053793  2.773574  2.589005  3.118975  3.782487
   H ( 13)  2.175358  2.488246  3.468860  3.782610  3.762075  4.320562
   H ( 14)  2.174871  2.487781  2.755775  3.118823  2.551557  3.761649
             C (  7)   H (  8)   H (  9)   H ( 10)   C ( 11)   H ( 12)
   H (  8)  1.094956
   H (  9)  1.093168  1.766723
   H ( 10)  1.093217  1.766824  1.768475
   C ( 11)  2.508360  2.773820  3.468570  2.756422
   H ( 12)  2.773820  2.589400  3.782508  3.119497  1.094956
   H ( 13)  2.756422  3.119497  3.762235  2.552560  1.093217  1.766824
   H ( 14)  3.468570  3.782508  4.319940  3.762235  1.093168  1.766723
             H ( 13)
   H ( 14)  1.768475
 
 A cutoff of  1.0D-08 yielded   4705 shell pairs
 There are  33835 function pairs ( 40339 Cartesian)
Evaluating contribution to one-electron hamiltonian from nuclear
 Smallest overlap matrix eigenvalue = 3.15E-05

 Q-Chem warning in module mkSTV.C, line 194:

 Overlap eigenvalue is smaller than square root of threshold

 Multipole matrices computed through 2nd order

  Scale SEOQF with 1.000000e-01/1.000000e-01/1.000000e-01

 Standard Electronic Orientation quadrupole field applied
 Nucleus-field energy     =     0.0000000026 hartrees
 Guess from superposition of atomic densities
 Warning:  Energy on first SCF cycle will be non-variational
 Long-range K will be added via erf
 Coulomb attenuation parameter = 1 bohr**(-1)
 An unrestricted Kohn-Sham SCF calculation will be
 performed using Pulay DIIS extrapolation
 Exchange:  wPBE + LR-HF      Correlation:  PBE
 Using SG-1 standard quadrature grid
 SCF converges when DIIS error is below 1.0E-05
 Requested basis set is G3large
 There are 100 shells and 268 basis functions
 A cutoff of  1.0D-08 yielded   4705 shell pairs
 There are  33835 function pairs ( 40339 Cartesian)
 Warning!  Inaccurate integrated density:
   Number of electrons =    35
   Numerical integral  =    34.000126056514
   Relative error      =    -2.8567826957 %
 ---------------------------------------
  Cycle       Energy         DIIS Error
 ---------------------------------------
    1    -159.8262913077      2.79E-02
    2    -158.2654092644      2.61E-03
    3    -158.3586657526      1.07E-03
    4    -158.3732116112      3.42E-04
    5    -158.3763340483      7.79E-05
    6    -158.3766929497      2.69E-05
    7    -158.3767764594      9.99E-06 Convergence criterion met
 ---------------------------------------
 One-Electron    Energy =  -482.8993814705
 Total Coulomb   Energy =   215.0006832332
 Alpha Exchange  Energy =    -6.1880925589
 Beta  Exchange  Energy =    -6.1259924524
 DFT   Exchange  Energy =   -12.0787426550
 DFT Correlation Energy =    -1.0975747611
 Nuclear Repu.   Energy =   135.0123242052
 Nuclear Attr.   Energy =  -640.2968681756
 Kinetic         Energy =   157.3974867051
 <S^2> = 0.7501
 SCF time:  CPU 272.86 s  wall 273.69 s
 Final Alpha MO Eigenvalues
            1           2           3           4           5           6
    1 -10.2909690 -10.2740187 -10.2728379 -10.2714666  -0.9689235  -0.8176877
            7           8           9          10          11          12
    1  -0.8164989  -0.6609158  -0.5351427  -0.4937730  -0.4930254  -0.4348314
           13          14          15          16          17          18
    1  -0.4334909  -0.4095847  -0.3652843  -0.3651595  -0.3583507   0.0324906
           19          20          21          22          23
    1   0.1278462   0.1280408   0.1333991   0.1620635   0.1621435
 Final Beta MO Eigenvalues
            1           2           3           4           5           6
    1 -10.2908051 -10.2738204 -10.2726149 -10.2712173  -0.9682777  -0.8165011
            7           8           9          10          11          12
    1  -0.8151875  -0.6593658  -0.5338273  -0.4933131  -0.4926165  -0.4346821
           13          14          15          16          17          18
    1  -0.4333358  -0.4096796  -0.3648264  -0.3646837  -0.3574060   0.1254773
           19          20          21          22
    1   0.1408904   0.1412124   0.1452235   0.1627351
 Analysis of SCF Wavefunction
 
 --------------------------------------------------------------
                    Orbital Energies (a.u.)
 --------------------------------------------------------------
 
 Alpha MOs
 -- Occupied --
-10.291 -10.274 -10.273 -10.271  -0.969  -0.818  -0.816  -0.661
 -0.535  -0.494  -0.493  -0.435  -0.433  -0.410  -0.365  -0.365
 -0.358   0.032
 -- Virtual --
  0.128   0.128   0.133   0.162   0.162   0.171   0.177   0.178
  0.199   0.236   0.263   0.263   0.271   0.272   0.274   0.285
  0.301   0.301   0.313   0.324   0.324   0.334   0.334   0.339
  0.358   0.412   0.416   0.416   0.429   0.430   0.462   0.465
  0.507   0.508   0.516   0.516   0.518   0.602   0.628   0.628
  0.703   0.710   0.710   0.725   0.739   0.740   0.789   0.809
  0.810   0.811   0.826   0.827   0.833   0.866   0.883   0.883
  0.899   0.912   0.912   0.946   0.947   0.970   0.992   1.013
  1.014   1.088   1.119   1.119   1.143   1.186   1.186   1.243
  1.250   1.297   1.297   1.351   1.352   1.381   1.410   1.427
  1.428   1.435   1.469   1.471   1.538   1.559   1.559   1.597
  1.597   1.616   1.633   1.634   1.641   1.642   1.643   1.677
  1.694   1.694   1.752   1.775   1.776   1.796   1.850   1.883
  1.883   1.912   1.913   1.915   1.916   1.961   1.962   2.030
  2.030   2.032   2.762   2.763   2.880   2.912   2.912   2.924
  3.002   3.076   3.077   3.107   3.108   3.130   3.187   3.222
  3.222   3.291   3.307   3.308   3.331   3.331   3.341   3.411
  3.411   3.420   3.510   3.510   3.548   3.646   3.646   3.653
  3.653   3.712   3.713   3.742   3.753   3.784   3.784   3.843
  3.852   3.852   3.933   3.936   3.937   3.965   3.965   4.005
  4.101   4.137   4.137   4.159   4.159   4.237   4.237   4.303
  4.343   4.343   4.366   4.381   4.411   4.412   4.437   4.465
  4.465   4.590   4.600   4.602   4.602   4.637   4.655   4.655
  4.673   4.673   4.694   4.790   4.791   4.792   4.882   4.919
  4.919   5.012   5.013   5.033   5.033   5.034   5.096   5.168
  5.168   5.187   5.288   5.289   5.727   5.830   5.831   6.017
  6.102   6.103   6.130   6.133   6.140   6.142  24.543  24.705
 24.707  24.825  28.062  28.062  28.362  28.539  28.541  28.554
 28.588  28.611  28.612  28.824  28.921  28.921  41.411  41.442
 41.451  41.454  41.464  41.480  41.488  41.489  41.624  41.627
 41.628  41.633  41.635  41.644  41.662  41.664  41.690  41.721
 41.726  41.764
 
 Beta MOs
 -- Occupied --
-10.291 -10.274 -10.273 -10.271  -0.968  -0.817  -0.815  -0.659
 -0.534  -0.493  -0.493  -0.435  -0.433  -0.410  -0.365  -0.365
 -0.357
 -- Virtual --
  0.125   0.141   0.141   0.145   0.163   0.164   0.172   0.175
  0.176   0.196   0.230   0.255   0.255   0.264   0.264   0.269
  0.284   0.297   0.298   0.311   0.320   0.321   0.328   0.329
  0.332   0.357   0.409   0.414   0.414   0.428   0.428   0.461
  0.462   0.502   0.503   0.513   0.515   0.515   0.596   0.625
  0.625   0.700   0.707   0.707   0.723   0.737   0.738   0.787
  0.808   0.808   0.808   0.824   0.825   0.830   0.865   0.883
  0.883   0.897   0.911   0.911   0.944   0.945   0.967   0.990
  1.013   1.013   1.088   1.119   1.119   1.143   1.186   1.187
  1.244   1.250   1.296   1.297   1.351   1.352   1.380   1.410
  1.427   1.428   1.435   1.469   1.470   1.538   1.559   1.559
  1.597   1.597   1.615   1.632   1.633   1.641   1.642   1.642
  1.676   1.693   1.693   1.752   1.774   1.775   1.795   1.849
  1.882   1.883   1.912   1.913   1.915   1.915   1.960   1.961
  2.030   2.030   2.031   2.762   2.763   2.880   2.912   2.912
  2.924   3.002   3.076   3.077   3.108   3.108   3.130   3.187
  3.222   3.222   3.291   3.307   3.308   3.331   3.331   3.341
  3.411   3.412   3.420   3.510   3.511   3.548   3.646   3.647
  3.653   3.653   3.712   3.713   3.742   3.753   3.784   3.785
  3.843   3.852   3.852   3.933   3.936   3.937   3.965   3.966
  4.005   4.102   4.137   4.137   4.159   4.159   4.237   4.237
  4.303   4.343   4.343   4.366   4.381   4.411   4.412   4.437
  4.465   4.465   4.590   4.600   4.602   4.602   4.637   4.655
  4.655   4.673   4.673   4.694   4.790   4.791   4.792   4.882
  4.919   4.919   5.012   5.013   5.033   5.033   5.034   5.096
  5.168   5.168   5.187   5.288   5.289   5.727   5.830   5.832
  6.017   6.102   6.103   6.130   6.134   6.141   6.142  24.543
 24.705  24.707  24.825  28.062  28.063  28.362  28.539  28.541
 28.554  28.588  28.611  28.612  28.825  28.921  28.922  41.411
 41.442  41.452  41.454  41.464  41.480  41.488  41.489  41.624
 41.627  41.628  41.633  41.635  41.645  41.662  41.664  41.690
 41.721  41.726  41.764
 --------------------------------------------------------------
 
          Ground-State Mulliken Net Atomic Charges

     Atom                 Charge (a.u.)    Spin (a.u.)
  --------------------------------------------------------
      1 C                    -3.654542       4.035229
      2 H                    -0.504741       0.554276
      3 C                     2.290883      -2.654755
      4 H                    -0.196283       0.264702
      5 H                    -0.534504       0.612489
      6 H                    -0.503545       0.577683
      7 C                     2.165772      -2.530419
      8 H                    -0.166546       0.234762
      9 H                    -0.462580       0.536684
     10 H                    -0.480926       0.557350
     11 C                     2.422663      -2.786823
     12 H                    -0.226254       0.294924
     13 H                    -0.568714       0.645147
     14 H                    -0.580684       0.658752
  --------------------------------------------------------
  Sum of atomic charges =    -1.000000
  Sum of spin   charges =     1.000000

 -----------------------------------------------------------------
                    Cartesian Multipole Moments
 -----------------------------------------------------------------
    Charge (ESU x 10^10)
                -4.8032
    Dipole Moment (Debye)
         X       0.0390      Y      -0.9096      Z      -0.4322
       Tot       1.0078
    Quadrupole Moments (Debye-Ang)
        XX     -65.3331     XY       0.2462     YY     -65.3390
        XZ       0.0190     YZ      -0.0064     ZZ     -55.3520
    Octapole Moments (Debye-Ang^2)
       XXX      -0.3169    XXY      -5.0150    XYY       1.1933
       YYY     -15.0109    XXZ      10.8503    XYZ      -0.1679
       YYZ      10.8643    XZZ       0.1459    YZZ      -4.0192
       ZZZ      35.7678
    Hexadecapole Moments (Debye-Ang^3)
      XXXX    -844.3019   XXXY       5.0432   XXYY    -281.4043
      XYYY       3.2282   YYYY    -844.3895   XXXZ       3.4513
      XXYZ       0.3358   XYYZ      -3.1980   YYYZ       1.0092
      XXZZ    -197.0471   XYZZ       1.3289   YYZZ    -197.1291
      XZZZ       0.1162   YZZZ       2.2316   ZZZZ    -451.0543
 -----------------------------------------------------------------
 Total job time:  274.12s(wall), 273.26s(cpu) 
 Mon Jul  8 12:30:38 2013

        *************************************************************
        *                                                           *
        *  Thank you very much for using Q-Chem.  Have a nice day.  *
        *                                                           *
        *************************************************************


0 sent ACK to 0 
now end server 0 ... 
 
**********************************************************************
Job 2 of 3 
**********************************************************************
 
Process 0 of 1 is on cl052.stfx.acenet.ca - thread support 1
initial socket setup ...start
initial socket setup ...done 
now start server 0 ... 

cmd = /usr/bin/ssh clhead /usr/local/qchem/bin/get_hostid 1972272504 > /scratch/tmp/6064840.1.short.q/qchem27153/lic.dat
                  Welcome to Q-Chem
     A Quantum Leap Into The Future Of Chemistry

 Y. Shao, L. Fusti-Molnar, Y. Jung, J. Kussmann, C. Ochsenfeld,
 S. T. Brown, A. T. B. Gilbert, L. V. Slipchenko,S. V. Levchenko,
 D. P. O'Neill, R. A. DiStasio Jr., R. C. Lochan, T. Wang,
 G. J. O. Beran, N. A. Besley, J. M. Herbert, C. Y. Lin,
 T. Van Voorhis, S. H. Chien, A. Sodt, R. P. Steele, 
 V. A. Rassolov, P. E. Maslen, P. P. Korambath, R. D. Adamson,
 B. Austin, J. Baker, E. F. C. Byrd, H. Dachsel, R. J. Doerksen,
 A. Dreuw, B. D. Dunietz, A. D. Dutoi, T. R. Furlani,
 S. R. Gwaltney, A. Heyden, S. Hirata, C.-P. Hsu, G. Kedziora,
 R. Z. Khaliullin, P. Klunzinger, A. M. Lee, M. S. Lee, W. Liang,
 I. Lotan, N. Nair, B. Peters, E. I. Proynov, P. A. Pieniazek, 
 Y. M. Rhee, J. Ritchie, E. Rosta, C. D. Sherrill, 
 A. C. Simmonett, J. E. Subotnik, H. L. Woodcock III,
 W. Zhang, A. T. Bell, A. K. Chakraborty, D. M. Chipman,
 F. J. Keil, A. Warshel, W. J. Hehre, H. F. Schaefer III,
 J. Kong, A. I. Krylov, P. M. W. Gill, M. Head-Gordon,
 Q-Chem, Version 3.1, Q-Chem, Inc., Pittsburgh, PA (2007).

 Additional authors for Version 3.1: 
 Z. Gan, Y. Zhao, N. E. Schultz, D. Truhlar, E. Epifanovsky and M. Oana.

 Additional authors for Version 3.2: 
 R. Baer, B. R. Brooks, D. Casanova, J.-D. Chai, C.-L. Cheng, 
 C. Cramer, D. Crittenden, A. Ghysels, G. Hawkins, E. G. Hohenstein, 
 C. Kelley, W. Kurlancheek, D. Liotard, E. Livshits, P. Manohar, 
 A. Marenich, D. Neuhauser, R. Olson, M. A. Rohrdanz, K. S. Thanthiriwatte, 
 A. J. W. Thom, V. Vanovschi, C. F. Williams, Q. Wu and Z.-Q. You. 


 Intel X86 Linux Version

 Q-chem begins on Mon Jul  8 12:30:41 2013  

 Parallel job on  1  processors
Processing $rem in /usr/local/qchem/config/preferences.

theFileMan(): MAXOPENFILES=974 MAX_SUB_FILE_NUM=16
Maximum size of a physical file is 2.0 GB, maximum size of a tmp-file is 32.0 GB


--------------------------------------------------------------
User input:
--------------------------------------------------------------

$molecule
0,1
C         -0.00003        0.00000        0.00516
H         -0.00008        0.00000        1.10218
C          1.44812        0.00000       -0.46687
H          1.49471        0.00000       -1.56081
H          1.98381        0.88422       -0.11143
H          1.98381       -0.88422       -0.11143
C         -0.72414       -1.25418       -0.46676
H         -0.74732       -1.29470       -1.56072
H         -0.22592       -2.15997       -0.11132
H         -1.75778       -1.27628       -0.11148
C         -0.72414        1.25418       -0.46676
H         -0.74732        1.29470       -1.56072
H         -1.75778        1.27628       -0.11148
H         -0.22592        2.15997       -0.11132
$end

$comment
neutral
$end

$xc_functional
C PBE   1.00
X wPBE  1.00
$end


$rem
SYMMETRY_DECOMPOSITION	0
LRC_DFT                 true
exchange 		general
BASIS                   g3large
omega			1000
mem_static              760
max_scf_cycles          200
scf_final_print         1
sym_ignore              true
$end

--------------------------------------------------------------
 Writing REM_CC_EA           14
 ----------------------------------------------------
       Standard Nuclear Orientation (Angstroms)
    I     Atom         X            Y            Z
 ----------------------------------------------------
    1      C      -0.000030     0.000000     0.005160
    2      H      -0.000080     0.000000     1.102180
    3      C       1.448120     0.000000    -0.466870
    4      H       1.494710     0.000000    -1.560810
    5      H       1.983810     0.884220    -0.111430
    6      H       1.983810    -0.884220    -0.111430
    7      C      -0.724140    -1.254180    -0.466760
    8      H      -0.747320    -1.294700    -1.560720
    9      H      -0.225920    -2.159970    -0.111320
   10      H      -1.757780    -1.276280    -0.111480
   11      C      -0.724140     1.254180    -0.466760
   12      H      -0.747320     1.294700    -1.560720
   13      H      -1.757780     1.276280    -0.111480
   14      H      -0.225920     2.159970    -0.111320
 ----------------------------------------------------
 Nuclear Repulsion Energy =   135.0123242027 hartrees
 There are       17 alpha and       17 beta electrons
 Requested basis set is G3large
 There are 100 shells and 268 basis functions

Total QAlloc Memory Limit   2000 MB
Mega-Array Size       743 MB
MEM_STATIC part       760 MB

                       Distance Matrix (Angstroms)
             C (  1)   H (  2)   C (  3)   H (  4)   H (  5)   H (  6)
   H (  2)  1.097020
   C (  3)  1.523138  2.135229
   H (  4)  2.164835  3.053836  1.094932
   H (  5)  2.175100  2.488074  1.093228  1.766852
   H (  6)  2.175100  2.488074  1.093228  1.766852  1.768440
   C (  7)  1.523158  2.135135  2.508322  2.773663  3.468718  2.756106
   H (  8)  2.164872  3.053793  2.773574  2.589005  3.782487  3.118975
   H (  9)  2.174871  2.487781  2.755775  3.118823  3.761649  2.551557
   H ( 10)  2.175358  2.488246  3.468860  3.782610  4.320562  3.762075
   C ( 11)  1.523158  2.135135  2.508322  2.773663  2.756106  3.468718
   H ( 12)  2.164872  3.053793  2.773574  2.589005  3.118975  3.782487
   H ( 13)  2.175358  2.488246  3.468860  3.782610  3.762075  4.320562
   H ( 14)  2.174871  2.487781  2.755775  3.118823  2.551557  3.761649
             C (  7)   H (  8)   H (  9)   H ( 10)   C ( 11)   H ( 12)
   H (  8)  1.094956
   H (  9)  1.093168  1.766723
   H ( 10)  1.093217  1.766824  1.768475
   C ( 11)  2.508360  2.773820  3.468570  2.756422
   H ( 12)  2.773820  2.589400  3.782508  3.119497  1.094956
   H ( 13)  2.756422  3.119497  3.762235  2.552560  1.093217  1.766824
   H ( 14)  3.468570  3.782508  4.319940  3.762235  1.093168  1.766723
             H ( 13)
   H ( 14)  1.768475
 
 A cutoff of  1.0D-08 yielded   4705 shell pairs
 There are  33835 function pairs ( 40339 Cartesian)
Evaluating contribution to one-electron hamiltonian from nuclear
 Smallest overlap matrix eigenvalue = 3.15E-05

 Q-Chem warning in module mkSTV.C, line 194:

 Overlap eigenvalue is smaller than square root of threshold

 Multipole matrices computed through 2nd order

  Scale SEOQF with 1.000000e-01/1.000000e-01/1.000000e-01

 Standard Electronic Orientation quadrupole field applied
 Nucleus-field energy     =     0.0000000026 hartrees
 Guess from superposition of atomic densities
 Warning:  Energy on first SCF cycle will be non-variational
 Long-range K will be added via erf
 Coulomb attenuation parameter = 1 bohr**(-1)
 A restricted Kohn-Sham SCF calculation will be
 performed using Pulay DIIS extrapolation
 Exchange:  wPBE + LR-HF      Correlation:  PBE
 Using SG-1 standard quadrature grid
 SCF converges when DIIS error is below 1.0E-05
 Requested basis set is G3large
 There are 100 shells and 268 basis functions
 A cutoff of  1.0D-08 yielded   4705 shell pairs
 There are  33835 function pairs ( 40339 Cartesian)
 ---------------------------------------
  Cycle       Energy         DIIS Error
 ---------------------------------------
    1    -159.8262913077      2.79E-02
    2    -158.3317604280      2.49E-03
    3    -158.4038988969      8.31E-04
    4    -158.4112134899      3.04E-04
    5    -158.4124044243      5.55E-05
    6    -158.4124482395      1.54E-05
    7    -158.4124530899      4.25E-06 Convergence criterion met
 ---------------------------------------
 One-Electron    Energy =  -478.7284617908
 Total Coulomb   Energy =   210.7311865038
 Alpha Exchange  Energy =    -6.1294976140
 Beta  Exchange  Energy =    -6.1294976140
 DFT   Exchange  Energy =   -12.0772519080
 DFT Correlation Energy =    -1.0912548721
 Nuclear Repu.   Energy =   135.0123242052
 Nuclear Attr.   Energy =  -636.0661407030
 Kinetic         Energy =   157.3376789122
 SCF time:  CPU 202.31 s  wall 202.95 s
 Final Alpha MO Eigenvalues
            1           2           3           4           5           6
    1 -10.4160122 -10.3967422 -10.3967167 -10.3966660  -1.0926423  -0.9397274
            7           8           9          10          11          12
    1  -0.9397039  -0.7839234  -0.6582324  -0.6169492  -0.6169197  -0.5573690
           13          14          15          16          17          18
    1  -0.5573443  -0.5335090  -0.4887374  -0.4886781  -0.4818598   0.0405373
           19          20          21          22
    1   0.0581849   0.0582022   0.0591646   0.0806387
 Analysis of SCF Wavefunction
 
 --------------------------------------------------------------
                    Orbital Energies (a.u.)
 --------------------------------------------------------------
 
 Alpha MOs
 -- Occupied --
-10.416 -10.397 -10.397 -10.397  -1.093  -0.940  -0.940  -0.784
 -0.658  -0.617  -0.617  -0.557  -0.557  -0.534  -0.489  -0.489
 -0.482
 -- Virtual --
  0.041   0.058   0.058   0.059   0.081   0.081   0.086   0.095
  0.095   0.114   0.139   0.163   0.163   0.172   0.172   0.177
  0.185   0.201   0.201   0.208   0.222   0.222   0.229   0.229
  0.240   0.248   0.300   0.301   0.301   0.316   0.316   0.346
  0.346   0.395   0.395   0.400   0.400   0.410   0.488   0.512
  0.512   0.587   0.592   0.592   0.607   0.622   0.622   0.671
  0.691   0.692   0.692   0.708   0.708   0.713   0.746   0.761
  0.761   0.779   0.791   0.791   0.828   0.828   0.851   0.871
  0.891   0.891   0.965   0.997   0.997   1.021   1.063   1.063
  1.120   1.128   1.175   1.175   1.229   1.229   1.258   1.289
  1.306   1.306   1.313   1.348   1.348   1.415   1.437   1.437
  1.475   1.475   1.495   1.512   1.512   1.519   1.519   1.521
  1.556   1.572   1.572   1.630   1.654   1.654   1.674   1.728
  1.761   1.762   1.789   1.792   1.793   1.793   1.839   1.839
  1.907   1.907   1.909   2.640   2.640   2.757   2.789   2.789
  2.801   2.880   2.954   2.954   2.984   2.984   3.006   3.063
  3.098   3.098   3.167   3.184   3.184   3.207   3.207   3.217
  3.288   3.288   3.297   3.387   3.387   3.425   3.523   3.523
  3.530   3.530   3.590   3.590   3.619   3.630   3.661   3.661
  3.719   3.729   3.729   3.810   3.813   3.814   3.842   3.842
  3.882   3.978   4.013   4.013   4.036   4.036   4.113   4.113
  4.179   4.219   4.219   4.243   4.258   4.288   4.289   4.314
  4.341   4.341   4.466   4.477   4.478   4.478   4.514   4.532
  4.532   4.549   4.549   4.570   4.667   4.668   4.668   4.759
  4.796   4.796   4.889   4.889   4.909   4.910   4.910   4.973
  5.043   5.043   5.063   5.165   5.165   5.604   5.707   5.707
  5.892   5.979   5.980   6.006   6.010   6.018   6.018  24.419
 24.582  24.582  24.700  27.938  27.938  28.237  28.416  28.416
 28.430  28.464  28.488  28.488  28.700  28.797  28.797  41.287
 41.318  41.327  41.330  41.340  41.355  41.364  41.365  41.500
 41.504  41.504  41.508  41.510  41.520  41.539  41.540  41.565
 41.597  41.602  41.639
 --------------------------------------------------------------
 
          Ground-State Mulliken Net Atomic Charges

     Atom                 Charge (a.u.)
  ----------------------------------------
      1 C                     0.369068
      2 H                     0.038366
      3 C                    -0.353855
      4 H                     0.074536
      5 H                     0.071804
      6 H                     0.071656
      7 C                    -0.353815
      8 H                     0.074538
      9 H                     0.071645
     10 H                     0.071739
     11 C                    -0.353836
     12 H                     0.074570
     13 H                     0.071737
     14 H                     0.071847
  ----------------------------------------
  Sum of atomic charges =     0.000000

 -----------------------------------------------------------------
                    Cartesian Multipole Moments
 -----------------------------------------------------------------
    Charge (ESU x 10^10)
                 0.0000
    Dipole Moment (Debye)
         X       0.0002      Y       0.0005      Z       0.1029
       Tot       0.1029
    Quadrupole Moments (Debye-Ang)
        XX     -28.0661     XY       0.0019     YY     -28.0684
        XZ       0.0001     YZ       0.0002     ZZ     -27.5480
    Octapole Moments (Debye-Ang^2)
       XXX      -2.0981    XXY       0.0005    XYY       2.0994
       YYY       0.0015    XXZ      11.9096    XYZ      -0.0001
       YYZ      11.9097    XZZ       0.0014    YZZ      -0.0006
       ZZZ      29.4843
    Hexadecapole Moments (Debye-Ang^3)
      XXXX    -206.3082   XXXY       0.0114   XXYY     -68.7690
      XYYY       0.0074   YYYY    -206.3452   XXXZ      -0.4574
      XXYZ       0.0004   XYYZ       0.4624   YYYZ       0.0012
      XXZZ     -51.1994   XYZZ       0.0015   YYZZ     -51.1995
      XZZZ       0.0001   YZZZ       0.0015   ZZZZ     -81.6796
 -----------------------------------------------------------------
 Total job time:  203.33s(wall), 202.68s(cpu) 
 Mon Jul  8 12:34:04 2013

        *************************************************************
        *                                                           *
        *  Thank you very much for using Q-Chem.  Have a nice day.  *
        *                                                           *
        *************************************************************


0 sent ACK to 0 
now end server 0 ... 
 
**********************************************************************
Job 3 of 3 
**********************************************************************
 
Process 0 of 1 is on cl052.stfx.acenet.ca - thread support 1
initial socket setup ...start
initial socket setup ...done 
now start server 0 ... 

cmd = /usr/bin/ssh clhead /usr/local/qchem/bin/get_hostid 1594420538 > /scratch/tmp/6064840.1.short.q/qchem27153/lic.dat
                  Welcome to Q-Chem
     A Quantum Leap Into The Future Of Chemistry

 Y. Shao, L. Fusti-Molnar, Y. Jung, J. Kussmann, C. Ochsenfeld,
 S. T. Brown, A. T. B. Gilbert, L. V. Slipchenko,S. V. Levchenko,
 D. P. O'Neill, R. A. DiStasio Jr., R. C. Lochan, T. Wang,
 G. J. O. Beran, N. A. Besley, J. M. Herbert, C. Y. Lin,
 T. Van Voorhis, S. H. Chien, A. Sodt, R. P. Steele, 
 V. A. Rassolov, P. E. Maslen, P. P. Korambath, R. D. Adamson,
 B. Austin, J. Baker, E. F. C. Byrd, H. Dachsel, R. J. Doerksen,
 A. Dreuw, B. D. Dunietz, A. D. Dutoi, T. R. Furlani,
 S. R. Gwaltney, A. Heyden, S. Hirata, C.-P. Hsu, G. Kedziora,
 R. Z. Khaliullin, P. Klunzinger, A. M. Lee, M. S. Lee, W. Liang,
 I. Lotan, N. Nair, B. Peters, E. I. Proynov, P. A. Pieniazek, 
 Y. M. Rhee, J. Ritchie, E. Rosta, C. D. Sherrill, 
 A. C. Simmonett, J. E. Subotnik, H. L. Woodcock III,
 W. Zhang, A. T. Bell, A. K. Chakraborty, D. M. Chipman,
 F. J. Keil, A. Warshel, W. J. Hehre, H. F. Schaefer III,
 J. Kong, A. I. Krylov, P. M. W. Gill, M. Head-Gordon,
 Q-Chem, Version 3.1, Q-Chem, Inc., Pittsburgh, PA (2007).

 Additional authors for Version 3.1: 
 Z. Gan, Y. Zhao, N. E. Schultz, D. Truhlar, E. Epifanovsky and M. Oana.

 Additional authors for Version 3.2: 
 R. Baer, B. R. Brooks, D. Casanova, J.-D. Chai, C.-L. Cheng, 
 C. Cramer, D. Crittenden, A. Ghysels, G. Hawkins, E. G. Hohenstein, 
 C. Kelley, W. Kurlancheek, D. Liotard, E. Livshits, P. Manohar, 
 A. Marenich, D. Neuhauser, R. Olson, M. A. Rohrdanz, K. S. Thanthiriwatte, 
 A. J. W. Thom, V. Vanovschi, C. F. Williams, Q. Wu and Z.-Q. You. 


 Intel X86 Linux Version

 Q-chem begins on Mon Jul  8 12:34:07 2013  

 Parallel job on  1  processors
Processing $rem in /usr/local/qchem/config/preferences.

theFileMan(): MAXOPENFILES=974 MAX_SUB_FILE_NUM=16
Maximum size of a physical file is 2.0 GB, maximum size of a tmp-file is 32.0 GB


--------------------------------------------------------------
User input:
--------------------------------------------------------------

$molecule
1,2
C         -0.00003        0.00000        0.00516
H         -0.00008        0.00000        1.10218
C          1.44812        0.00000       -0.46687
H          1.49471        0.00000       -1.56081
H          1.98381        0.88422       -0.11143
H          1.98381       -0.88422       -0.11143
C         -0.72414       -1.25418       -0.46676
H         -0.74732       -1.29470       -1.56072
H         -0.22592       -2.15997       -0.11132
H         -1.75778       -1.27628       -0.11148
C         -0.72414        1.25418       -0.46676
H         -0.74732        1.29470       -1.56072
H         -1.75778        1.27628       -0.11148
H         -0.22592        2.15997       -0.11132
$end

$comment
positive
$end

$xc_functional
C PBE   1.00
X wPBE  1.00
$end

$rem
SYMMETRY_DECOMPOSITION	0
LRC_DFT                 true
exchange 		general
BASIS                   g3large
omega			1000
mem_static              760
max_scf_cycles          200
scf_final_print         1
sym_ignore              true
$end

--------------------------------------------------------------
 Writing REM_CC_EA           14
 ----------------------------------------------------
       Standard Nuclear Orientation (Angstroms)
    I     Atom         X            Y            Z
 ----------------------------------------------------
    1      C      -0.000030     0.000000     0.005160
    2      H      -0.000080     0.000000     1.102180
    3      C       1.448120     0.000000    -0.466870
    4      H       1.494710     0.000000    -1.560810
    5      H       1.983810     0.884220    -0.111430
    6      H       1.983810    -0.884220    -0.111430
    7      C      -0.724140    -1.254180    -0.466760
    8      H      -0.747320    -1.294700    -1.560720
    9      H      -0.225920    -2.159970    -0.111320
   10      H      -1.757780    -1.276280    -0.111480
   11      C      -0.724140     1.254180    -0.466760
   12      H      -0.747320     1.294700    -1.560720
   13      H      -1.757780     1.276280    -0.111480
   14      H      -0.225920     2.159970    -0.111320
 ----------------------------------------------------
 Nuclear Repulsion Energy =   135.0123242027 hartrees
 There are       17 alpha and       16 beta electrons
 Requested basis set is G3large
 There are 100 shells and 268 basis functions

Total QAlloc Memory Limit   2000 MB
Mega-Array Size       743 MB
MEM_STATIC part       760 MB

                       Distance Matrix (Angstroms)
             C (  1)   H (  2)   C (  3)   H (  4)   H (  5)   H (  6)
   H (  2)  1.097020
   C (  3)  1.523138  2.135229
   H (  4)  2.164835  3.053836  1.094932
   H (  5)  2.175100  2.488074  1.093228  1.766852
   H (  6)  2.175100  2.488074  1.093228  1.766852  1.768440
   C (  7)  1.523158  2.135135  2.508322  2.773663  3.468718  2.756106
   H (  8)  2.164872  3.053793  2.773574  2.589005  3.782487  3.118975
   H (  9)  2.174871  2.487781  2.755775  3.118823  3.761649  2.551557
   H ( 10)  2.175358  2.488246  3.468860  3.782610  4.320562  3.762075
   C ( 11)  1.523158  2.135135  2.508322  2.773663  2.756106  3.468718
   H ( 12)  2.164872  3.053793  2.773574  2.589005  3.118975  3.782487
   H ( 13)  2.175358  2.488246  3.468860  3.782610  3.762075  4.320562
   H ( 14)  2.174871  2.487781  2.755775  3.118823  2.551557  3.761649
             C (  7)   H (  8)   H (  9)   H ( 10)   C ( 11)   H ( 12)
   H (  8)  1.094956
   H (  9)  1.093168  1.766723
   H ( 10)  1.093217  1.766824  1.768475
   C ( 11)  2.508360  2.773820  3.468570  2.756422
   H ( 12)  2.773820  2.589400  3.782508  3.119497  1.094956
   H ( 13)  2.756422  3.119497  3.762235  2.552560  1.093217  1.766824
   H ( 14)  3.468570  3.782508  4.319940  3.762235  1.093168  1.766723
             H ( 13)
   H ( 14)  1.768475
 
 A cutoff of  1.0D-08 yielded   4705 shell pairs
 There are  33835 function pairs ( 40339 Cartesian)
Evaluating contribution to one-electron hamiltonian from nuclear
 Smallest overlap matrix eigenvalue = 3.15E-05

 Q-Chem warning in module mkSTV.C, line 194:

 Overlap eigenvalue is smaller than square root of threshold

 Multipole matrices computed through 2nd order

  Scale SEOQF with 1.000000e-01/1.000000e-01/1.000000e-01

 Standard Electronic Orientation quadrupole field applied
 Nucleus-field energy     =     0.0000000026 hartrees
 Guess from superposition of atomic densities
 Warning:  Energy on first SCF cycle will be non-variational
 Long-range K will be added via erf
 Coulomb attenuation parameter = 1 bohr**(-1)
 An unrestricted Kohn-Sham SCF calculation will be
 performed using Pulay DIIS extrapolation
 Exchange:  wPBE + LR-HF      Correlation:  PBE
 Using SG-1 standard quadrature grid
 SCF converges when DIIS error is below 1.0E-05
 Requested basis set is G3large
 There are 100 shells and 268 basis functions
 A cutoff of  1.0D-08 yielded   4705 shell pairs
 There are  33835 function pairs ( 40339 Cartesian)
 Warning!  Inaccurate integrated density:
   Number of electrons =    33
   Numerical integral  =    34.000126056514
   Relative error      =     3.0306850197 %
 ---------------------------------------
  Cycle       Energy         DIIS Error
 ---------------------------------------
    1    -159.8262913077      2.79E-02
    2    -157.8847204559      2.23E-03
    3    -157.9594105439      7.67E-04
    4    -157.9677730152      3.51E-04
    5    -157.9699794511      7.52E-05
    6    -157.9705639708      5.42E-05
    7    -157.9708682976      2.86E-05
    8    -157.9710461804      1.67E-05
    9    -157.9711082845      1.21E-05
   10    -157.9711592950      1.13E-05
   11    -157.9712339603      9.70E-06 Convergence criterion met
 ---------------------------------------
 One-Electron    Energy =  -470.3050211758
 Total Coulomb   Energy =   202.3903609745
 Alpha Exchange  Energy =    -6.1919187318
 Beta  Exchange  Energy =    -5.7875688515
 DFT   Exchange  Energy =   -12.0357676883
 DFT Correlation Energy =    -1.0536426927
 Nuclear Repu.   Energy =   135.0123242052
 Nuclear Attr.   Energy =  -627.4446405344
 Kinetic         Energy =   157.1396193586
 <S^2> = 0.7631
 SCF time:  CPU 406.39 s  wall 407.68 s
 Final Alpha MO Eigenvalues
            1           2           3           4           5           6
    1 -10.7094304 -10.6839559 -10.6542137 -10.6112360  -1.3731161  -1.2110486
            7           8           9          10          11          12
    1  -1.1719751  -1.0364186  -0.9157559  -0.8736105  -0.8702596  -0.8035517
           13          14          15          16          17          18
    1  -0.7858762  -0.7811463  -0.7547912  -0.7321967  -0.7207849  -0.0943431
           19          20          21          22
    1  -0.0712480  -0.0687662  -0.0646358  -0.0436068
 Final Beta MO Eigenvalues
            1           2           3           4           5           6
    1 -10.7039854 -10.6778114 -10.6504674 -10.6109376  -1.3285654  -1.1603961
            7           8           9          10          11          12
    1  -1.1595674  -1.0037814  -0.8855714  -0.8482719  -0.8246259  -0.7970560
           13          14          15          16          17          18
    1  -0.7773431  -0.7423832  -0.7219735  -0.7153327  -0.3898007  -0.0928661
           19          20          21
    1  -0.0704536  -0.0663751  -0.0643129
 Analysis of SCF Wavefunction
 
 --------------------------------------------------------------
                    Orbital Energies (a.u.)
 --------------------------------------------------------------
 
 Alpha MOs
 -- Occupied --
-10.709 -10.684 -10.654 -10.611  -1.373  -1.211  -1.172  -1.036
 -0.916  -0.874  -0.870  -0.804  -0.786  -0.781  -0.755  -0.732
 -0.721
 -- Virtual --
 -0.094  -0.071  -0.069  -0.065  -0.044  -0.040  -0.040  -0.027
 -0.025  -0.011   0.002   0.013   0.014   0.025   0.030   0.038
  0.042   0.055   0.059   0.066   0.070   0.074   0.079   0.081
  0.083   0.106   0.117   0.121   0.132   0.138   0.143   0.149
  0.170   0.177   0.185   0.225   0.232   0.240   0.308   0.322
  0.322   0.386   0.396   0.398   0.407   0.417   0.426   0.477
  0.487   0.487   0.493   0.501   0.515   0.519   0.533   0.533
  0.547   0.574   0.578   0.582   0.627   0.638   0.645   0.666
  0.684   0.686   0.754   0.782   0.784   0.804   0.857   0.857
  0.908   0.914   0.954   0.960   1.008   1.014   1.042   1.084
  1.089   1.101   1.103   1.134   1.147   1.195   1.219   1.222
  1.235   1.246   1.278   1.285   1.292   1.299   1.306   1.312
  1.336   1.356   1.357   1.418   1.438   1.445   1.457   1.511
  1.546   1.550   1.562   1.570   1.578   1.581   1.616   1.633
  1.675   1.677   1.687   2.402   2.409   2.515   2.542   2.553
  2.566   2.651   2.689   2.705   2.731   2.740   2.758   2.801
  2.829   2.857   2.916   2.931   2.937   2.950   2.959   2.994
  3.038   3.044   3.053   3.145   3.151   3.190   3.271   3.285
  3.287   3.295   3.335   3.357   3.378   3.387   3.415   3.420
  3.472   3.484   3.490   3.557   3.563   3.579   3.599   3.609
  3.644   3.726   3.753   3.758   3.780   3.786   3.849   3.865
  3.933   3.967   3.977   3.992   4.002   4.036   4.058   4.070
  4.106   4.111   4.212   4.229   4.235   4.243   4.271   4.292
  4.304   4.319   4.323   4.325   4.423   4.426   4.436   4.530
  4.548   4.559   4.635   4.647   4.657   4.671   4.679   4.734
  4.790   4.804   4.808   4.899   4.921   5.354   5.432   5.464
  5.637   5.729   5.749   5.757   5.769   5.788   5.800  24.145
 24.308  24.347  24.434  27.645  27.674  27.963  28.141  28.168
 28.175  28.221  28.226  28.263  28.429  28.509  28.540  41.003
 41.036  41.044  41.067  41.071  41.095  41.118  41.139  41.213
 41.216  41.225  41.245  41.249  41.259  41.288  41.292  41.319
 41.330  41.339  41.390
 
 Beta MOs
 -- Occupied --
-10.704 -10.678 -10.650 -10.611  -1.329  -1.160  -1.160  -1.004
 -0.886  -0.848  -0.825  -0.797  -0.777  -0.742  -0.722  -0.715
 -- Virtual --
 -0.390  -0.093  -0.070  -0.066  -0.064  -0.043  -0.039  -0.039
 -0.027  -0.025  -0.008   0.002   0.014   0.014   0.027   0.030
  0.039   0.043   0.057   0.063   0.067   0.075   0.079   0.082
  0.082   0.084   0.106   0.122   0.126   0.133   0.149   0.152
  0.153   0.173   0.193   0.202   0.230   0.235   0.244   0.315
  0.326   0.327   0.397   0.404   0.407   0.410   0.428   0.430
  0.481   0.492   0.494   0.500   0.511   0.520   0.523   0.538
  0.551   0.553   0.580   0.587   0.593   0.633   0.642   0.652
  0.673   0.687   0.687   0.759   0.787   0.788   0.807   0.858
  0.860   0.913   0.917   0.958   0.967   1.013   1.020   1.045
  1.085   1.093   1.103   1.107   1.138   1.148   1.201   1.224
  1.230   1.253   1.254   1.286   1.295   1.300   1.302   1.310
  1.317   1.340   1.360   1.361   1.420   1.441   1.448   1.461
  1.513   1.550   1.552   1.567   1.576   1.579   1.586   1.622
  1.636   1.683   1.685   1.690   2.409   2.417   2.523   2.555
  2.560   2.574   2.655   2.708   2.718   2.744   2.746   2.762
  2.818   2.846   2.862   2.925   2.941   2.951   2.959   2.964
  2.997   3.049   3.053   3.061   3.154   3.159   3.194   3.281
  3.292   3.294   3.300   3.346   3.361   3.381   3.394   3.423
  3.429   3.482   3.493   3.496   3.566   3.574   3.587   3.603
  3.616   3.649   3.734   3.763   3.767   3.790   3.796   3.864
  3.870   3.941   3.974   3.982   3.999   4.014   4.045   4.062
  4.077   4.110   4.113   4.222   4.237   4.242   4.247   4.278
  4.300   4.307   4.325   4.326   4.329   4.427   4.432   4.441
  4.533   4.554   4.563   4.643   4.656   4.663   4.677   4.684
  4.738   4.798   4.807   4.817   4.913   4.930   5.363   5.449
  5.472   5.642   5.736   5.754   5.763   5.776   5.791   5.804
 24.149  24.313  24.349  24.437  27.658  27.677  27.967  28.145
 28.171  28.177  28.224  28.228  28.264  28.434  28.521  28.542
 41.013  41.045  41.048  41.071  41.076  41.099  41.120  41.140
 41.220  41.223  41.232  41.247  41.253  41.263  41.289  41.297
 41.321  41.338  41.343  41.392
 --------------------------------------------------------------
 
          Ground-State Mulliken Net Atomic Charges

     Atom                 Charge (a.u.)    Spin (a.u.)
  --------------------------------------------------------
      1 C                     0.327533       0.262612
      2 H                     0.122476      -0.003005
      3 C                    -0.230372       0.198644
      4 H                     0.130461      -0.008197
      5 H                     0.126982      -0.007374
      6 H                     0.168152       0.085075
      7 C                    -0.271370       0.024853
      8 H                     0.114734      -0.001895
      9 H                     0.133435       0.048951
     10 H                     0.120597       0.020647
     11 C                    -0.199019       0.325213
     12 H                     0.141792      -0.012143
     13 H                     0.172415       0.067688
     14 H                     0.142185      -0.001068
  --------------------------------------------------------
  Sum of atomic charges =     1.000000
  Sum of spin   charges =     1.000000

 -----------------------------------------------------------------
                    Cartesian Multipole Moments
 -----------------------------------------------------------------
    Charge (ESU x 10^10)
                 4.8032
    Dipole Moment (Debye)
         X       0.0742      Y       0.9203      Z      -1.5159
       Tot       1.7749
    Quadrupole Moments (Debye-Ang)
        XX     -16.3927     XY      -2.2286     YY     -17.0744
        XZ      -0.0288     YZ      -0.5467     ZZ     -22.4144
    Octapole Moments (Debye-Ang^2)
       XXX       3.1250    XXY       1.0799    XYY      -2.8436
       YYY       3.0916    XXZ       7.4359    XYZ       0.7755
       YYZ       7.6247    XZZ       0.0811    YZZ       0.9351
       ZZZ      23.6625
    Hexadecapole Moments (Debye-Ang^3)
      XXXX    -144.0409   XXXY      -8.3994   XXYY     -48.0891
      XYYY      -5.6285   YYYY    -148.4168   XXXZ      -3.2805
      XXYZ      -0.5017   XYYZ       3.2196   YYYZ      -1.4679
      XXZZ     -41.2441   XYZZ      -1.2157   YYZZ     -41.5215
      XZZZ      -0.1338   YZZZ      -1.5975   ZZZZ     -62.0276
 -----------------------------------------------------------------
 Total job time:  408.08s(wall), 406.77s(cpu) 
 Mon Jul  8 12:40:55 2013

        *************************************************************
        *                                                           *
        *  Thank you very much for using Q-Chem.  Have a nice day.  *
        *                                                           *
        *************************************************************


0 sent ACK to 0 
now end server 0 ... 
