Process 0 of 1 is on cl085.stfx.acenet.ca - thread support 1
initial socket setup ...start
initial socket setup ...done 
now start server 0 ... 

cmd = /usr/bin/ssh clhead /usr/local/qchem/bin/get_hostid 1055298301 > /scratch/tmp/5956720.1.short.q/qchem25224/lic.dat
                  Welcome to Q-Chem
     A Quantum Leap Into The Future Of Chemistry

 Y. Shao, L. Fusti-Molnar, Y. Jung, J. Kussmann, C. Ochsenfeld,
 S. T. Brown, A. T. B. Gilbert, L. V. Slipchenko,S. V. Levchenko,
 D. P. O'Neill, R. A. DiStasio Jr., R. C. Lochan, T. Wang,
 G. J. O. Beran, N. A. Besley, J. M. Herbert, C. Y. Lin,
 T. Van Voorhis, S. H. Chien, A. Sodt, R. P. Steele, 
 V. A. Rassolov, P. E. Maslen, P. P. Korambath, R. D. Adamson,
 B. Austin, J. Baker, E. F. C. Byrd, H. Dachsel, R. J. Doerksen,
 A. Dreuw, B. D. Dunietz, A. D. Dutoi, T. R. Furlani,
 S. R. Gwaltney, A. Heyden, S. Hirata, C.-P. Hsu, G. Kedziora,
 R. Z. Khaliullin, P. Klunzinger, A. M. Lee, M. S. Lee, W. Liang,
 I. Lotan, N. Nair, B. Peters, E. I. Proynov, P. A. Pieniazek, 
 Y. M. Rhee, J. Ritchie, E. Rosta, C. D. Sherrill, 
 A. C. Simmonett, J. E. Subotnik, H. L. Woodcock III,
 W. Zhang, A. T. Bell, A. K. Chakraborty, D. M. Chipman,
 F. J. Keil, A. Warshel, W. J. Hehre, H. F. Schaefer III,
 J. Kong, A. I. Krylov, P. M. W. Gill, M. Head-Gordon,
 Q-Chem, Version 3.1, Q-Chem, Inc., Pittsburgh, PA (2007).

 Additional authors for Version 3.1: 
 Z. Gan, Y. Zhao, N. E. Schultz, D. Truhlar, E. Epifanovsky and M. Oana.

 Additional authors for Version 3.2: 
 R. Baer, B. R. Brooks, D. Casanova, J.-D. Chai, C.-L. Cheng, 
 C. Cramer, D. Crittenden, A. Ghysels, G. Hawkins, E. G. Hohenstein, 
 C. Kelley, W. Kurlancheek, D. Liotard, E. Livshits, P. Manohar, 
 A. Marenich, D. Neuhauser, R. Olson, M. A. Rohrdanz, K. S. Thanthiriwatte, 
 A. J. W. Thom, V. Vanovschi, C. F. Williams, Q. Wu and Z.-Q. You. 


 Intel X86 Linux Version

 Q-chem begins on Wed May  1 12:16:04 2013  

 Parallel job on  1  processors
Processing $rem in /usr/local/qchem/config/preferences.

theFileMan(): MAXOPENFILES=974 MAX_SUB_FILE_NUM=16
Maximum size of a physical file is 2.0 GB, maximum size of a tmp-file is 32.0 GB


--------------------------------------------------------------
User input:
--------------------------------------------------------------

$molecule
0,1
N
N,1,NN

NN=1.10549853

$end

$comment
neutral
$end

$xc_functional
C PBE   1.00
X wPBE  1.00
$end


$rem
SYMMETRY_DECOMPOSITION	0
LRC_DFT                 true
exchange 		general
BASIS                   g3large
omega			560 
JOBTYPE                 opt
mem_static              760
max_scf_cycles          200
scf_final_print         1
sym_ignore              true
$end


--------------------------------------------------------------
 Writing REM_CC_EA            2
 ----------------------------------------------------
       Standard Nuclear Orientation (Angstroms)
    I     Atom         X            Y            Z
 ----------------------------------------------------
    1      N       0.000000     0.000000     0.000000
    2      N       0.000000     0.000000     1.105499
 ----------------------------------------------------
 Nuclear Repulsion Energy =    23.4551947610 hartrees
 There are        7 alpha and        7 beta electrons
 Requested basis set is G3large
 There are 20 shells and 84 basis functions

Total QAlloc Memory Limit   2000 MB
Mega-Array Size       743 MB
MEM_STATIC part       760 MB
 A cutoff of  1.0D-11 yielded    207 shell pairs
 There are   3687 function pairs (  4845 Cartesian)
Evaluating contribution to one-electron hamiltonian from nuclear
 Smallest overlap matrix eigenvalue = 2.03E-04
 Multipole matrices computed through 2nd order

  Scale SEOQF with 1.000000e-01/1.000000e-01/1.000000e-01

 Standard Electronic Orientation quadrupole field applied
 Nucleus-field energy     =    -0.0000000009 hartrees
 Guess from superposition of atomic densities
 Warning:  Energy on first SCF cycle will be non-variational
 Long-range K will be added via erf
 Coulomb attenuation parameter = 0.56 bohr**(-1)
 A restricted Kohn-Sham SCF calculation will be
 performed using Pulay DIIS extrapolation
 Exchange:  wPBE + LR-HF      Correlation:  PBE
 Using SG-1 standard quadrature grid
 SCF converges when DIIS error is below 1.0E-08
 Requested basis set is G3large
 There are 20 shells and 84 basis functions
 A cutoff of  1.0D-11 yielded    207 shell pairs
 There are   3687 function pairs (  4845 Cartesian)
 ---------------------------------------
  Cycle       Energy         DIIS Error
 ---------------------------------------
    1    -109.5151629841      5.19E-02
    2    -109.4703782416      2.54E-03
    3    -109.4757725187      8.44E-04
    4    -109.4761063400      1.30E-04
    5    -109.4761260078      2.16E-05
    6    -109.4761266777      4.57E-06
    7    -109.4761267118      4.97E-07
    8    -109.4761267036      6.90E-08
    9    -109.4761267192      4.79E-09 Convergence criterion met
 ---------------------------------------
 One-Electron    Energy =  -194.2456016667
 Total Coulomb   Energy =    74.9230534711
 Alpha Exchange  Energy =    -1.8559025895
 Beta  Exchange  Energy =    -1.8559025895
 DFT   Exchange  Energy =    -9.4446953471
 DFT Correlation Energy =    -0.4522727577
 Nuclear Repu.   Energy =    23.4551947601
 Nuclear Attr.   Energy =  -303.3305668274
 Kinetic         Energy =   109.0849651607
 SCF time:  CPU 8.34 s  wall 9.95 s
 Final Alpha MO Eigenvalues
            1           2           3           4           5           6
    1 -14.3934816 -14.3918303  -1.3287347  -0.7329854  -0.6249668  -0.6249668
            7           8           9          10          11          12
    1  -0.6007486   0.0820580   0.0820580   0.1365200   0.1398851   0.1595963
 Analysis of SCF Wavefunction
 
 --------------------------------------------------------------
                    Orbital Energies (a.u.)
 --------------------------------------------------------------
 
 Alpha MOs
 -- Occupied --
-14.393 -14.392  -1.329  -0.733  -0.625  -0.625  -0.601
 -- Virtual --
  0.082   0.082   0.137   0.140   0.160   0.160   0.215   0.240
  0.240   0.327   0.607   0.785   0.830   0.830   0.931   0.931
  0.947   0.947   0.987   1.012   1.228   1.228   1.300   1.389
  1.389   1.875   1.875   1.954   2.135   3.350   3.380   3.380
  3.436   3.436   3.732   3.732   3.768   3.768   3.781   3.781
  3.922   3.922   4.425   4.484   4.711   4.711   4.720   4.721
  4.721   4.788   4.788   4.920   4.921   5.255   5.255   6.066
  6.458   6.458   6.876  35.131  36.165  37.240  37.240  37.626
 37.626  38.198  38.466  40.359  40.420  40.464  40.528  40.533
 40.533  40.572  40.869  40.869  41.473
 --------------------------------------------------------------
 
          Ground-State Mulliken Net Atomic Charges

     Atom                 Charge (a.u.)
  ----------------------------------------
      1 N                     0.000000
      2 N                     0.000000
  ----------------------------------------
  Sum of atomic charges =     0.000000

 -----------------------------------------------------------------
                    Cartesian Multipole Moments
 -----------------------------------------------------------------
    Charge (ESU x 10^10)
                 0.0000
    Dipole Moment (Debye)
         X       0.0000      Y       0.0000      Z       0.0000
       Tot       0.0000
    Quadrupole Moments (Debye-Ang)
        XX     -10.2581     XY       0.0000     YY     -10.2581
        XZ       0.0000     YZ       0.0000     ZZ     -11.6723
    Octapole Moments (Debye-Ang^2)
       XXX       0.0000    XXY       0.0000    XYY       0.0000
       YYY       0.0000    XXZ      -5.6702    XYZ       0.0000
       YYZ      -5.6702    XZZ       0.0000    YZZ       0.0000
       ZZZ     -19.3555
    Hexadecapole Moments (Debye-Ang^3)
      XXXX      -8.7999   XXXY       0.0000   XXYY      -2.9333
      XYYY       0.0000   YYYY      -8.7999   XXXZ       0.0000
      XXYZ       0.0000   XYYZ       0.0000   YYYZ       0.0000
      XXZZ      -9.4849   XYZZ       0.0000   YYZZ      -9.4849
      XZZZ       0.0000   YZZZ       0.0000   ZZZZ     -53.4261
 -----------------------------------------------------------------
 Calculating analytic gradient of the SCF energy
 Gradient of AOints
            1           2
    1  -0.0000000   0.0000000
    2   0.0000000  -0.0000000
    3  15.7409605 -15.7409605
 Gradient of XC Energy
            1           2
    1  -0.0000000   0.0000000
    2  -0.0000000   0.0000000
    3  -0.6132723   0.6132723
 Gradient of SCF Energy
            1           2
    1  -0.0000000   0.0000000
    2  -0.0000000   0.0000000
    3  -0.0849189   0.0849189
 Max gradient component =       8.492E-02
 RMS gradient           =       4.903E-02
 Gradient time:  CPU 3.90 s  wall 8.00 s
 Geometry Optimization Parameters
   NAtoms,    NIC,     NZ,  NCons,   NDum,   NFix, NCnnct, MaxDiis
        2       5       2       0       0       0       0       0


** GEOMETRY OPTIMIZATION IN DELOCALIZED INTERNAL COORDINATES **
   Searching for a Minimum

   Optimization Cycle:   1

                       Coordinates (Angstroms)
     ATOM              X           Y           Z
    1  N           0.000000    0.000000    0.000000
    2  N           0.000000    0.000000    1.105499
   Point Group: c1    Number of degrees of freedom:   0


   Energy is   -109.476126719


 Attempting to Generate Delocalized Internal Coordinates

  ***ERROR*** Wrong Number of Internal Coordinates
              Should be:   0  Found:   1
**WARNING** Problems with Internal Coordinates
  Switching to Cartesian Coordinates

 Translations and Rotations Projected Out of Hessian

  1 Hessian modes will be used to form the next step
  Hessian Eigenvalues:
     1.000000

 Minimum Search - Taking Simple RFO Step
 Searching for Lamda that Minimizes Along All modes
 Value Taken    Lamda =  -0.01422027
 Step Taken.  Stepsize is  0.118410

                             Maximum     Tolerance    Cnvgd?
         Gradient           0.084919      0.000300      NO
         Displacement       0.083728      0.001200      NO
         Energy change     *********      0.000001      NO

 Writing REM_CC_EA            2
 ----------------------------------------------------
       Standard Nuclear Orientation (Angstroms)
    I     Atom         X            Y            Z
 ----------------------------------------------------
    1      N       0.000000     0.000000     0.044307
    2      N       0.000000     0.000000     1.061191
 ----------------------------------------------------
 Nuclear Repulsion Energy =    25.4991468305 hartrees
 There are        7 alpha and        7 beta electrons
 Applying Cartesian multipole field
    Component          Value
    ---------          -----
     (2,0,0)        1.00000E-11
     (0,2,0)        2.00000E-11
     (0,0,2)       -3.00000E-11
 Nucleus-field energy     =    -0.0000000008 hartrees
 Requested basis set is G3large
 There are 20 shells and 84 basis functions
 A cutoff of  1.0D-11 yielded    209 shell pairs
 There are   3717 function pairs (  4881 Cartesian)
Evaluating contribution to one-electron hamiltonian from nuclear
 Smallest overlap matrix eigenvalue = 1.27E-04
 Multipole matrices computed through 2nd order
 Guess MOs from SCF MO coefficient file
Reading MOs from coefficient file
Reading MOs from coefficient file
 Long-range K will be added via erf
 Coulomb attenuation parameter = 0.56 bohr**(-1)
 A restricted Kohn-Sham SCF calculation will be
 performed using Pulay DIIS extrapolation
 Exchange:  wPBE + LR-HF      Correlation:  PBE
 Using SG-1 standard quadrature grid
 SCF converges when DIIS error is below 1.0E-08
 Requested basis set is G3large
 There are 20 shells and 84 basis functions
 A cutoff of  1.0D-11 yielded    209 shell pairs
 There are   3717 function pairs (  4881 Cartesian)
 Warning!  Inaccurate integrated density:
   Number of electrons =    14
   Numerical integral  =    14.128698672753
   Relative error      =     0.9192762340 %
 ---------------------------------------
  Cycle       Energy         DIIS Error
 ---------------------------------------
    1    -109.5260923358      1.17E-02
    2    -109.4634055598      1.17E-03
    3    -109.4643144015      4.62E-04
    4    -109.4644100935      3.86E-05
    5    -109.4644115559      9.80E-06
    6    -109.4644116592      1.09E-06
    7    -109.4644116610      1.29E-07
    8    -109.4644116611      2.16E-08
    9    -109.4644116653      3.65E-09 Convergence criterion met
 ---------------------------------------
 One-Electron    Energy =  -198.1667953843
 Total Coulomb   Energy =    76.9464168843
 Alpha Exchange  Energy =    -1.8695701029
 Beta  Exchange  Energy =    -1.8695701029
 DFT   Exchange  Energy =    -9.5471577014
 DFT Correlation Energy =    -0.4568820877
 Nuclear Repu.   Energy =    25.4991468296
 Nuclear Attr.   Energy =  -307.8837829961
 Kinetic         Energy =   109.7169876117
 SCF time:  CPU 8.72 s  wall 9.40 s
 Final Alpha MO Eigenvalues
            1           2           3           4           5           6
    1 -14.3652952 -14.3617699  -1.3769886  -0.7071205  -0.6597502  -0.6597502
            7           8           9          10          11          12
    1  -0.6070434   0.1178256   0.1178256   0.1378764   0.1408902   0.1572431
 Analysis of SCF Wavefunction
 
 --------------------------------------------------------------
                    Orbital Energies (a.u.)
 --------------------------------------------------------------
 
 Alpha MOs
 -- Occupied --
-14.365 -14.362  -1.377  -0.707  -0.660  -0.660  -0.607
 -- Virtual --
  0.118   0.118   0.138   0.141   0.157   0.157   0.217   0.254
  0.254   0.329   0.645   0.761   0.815   0.815   0.932   0.932
  0.943   0.943   1.016   1.114   1.289   1.289   1.333   1.422
  1.422   1.903   1.903   1.937   2.283   3.286   3.397   3.397
  3.435   3.435   3.714   3.714   3.807   3.807   3.905   3.905
  3.990   3.990   4.474   4.610   4.610   4.611   4.734   4.734
  4.751   4.790   4.791   5.094   5.095   5.295   5.295   6.142
  6.949   6.949   7.226  35.084  36.737  37.299  37.299  37.704
 37.704  38.077  38.810  40.439  40.485  40.510  40.516  40.516
 40.546  40.618  41.160  41.160  41.867
 --------------------------------------------------------------
 
          Ground-State Mulliken Net Atomic Charges

     Atom                 Charge (a.u.)
  ----------------------------------------
      1 N                     0.000000
      2 N                     0.000000
  ----------------------------------------
  Sum of atomic charges =     0.000000

 -----------------------------------------------------------------
                    Cartesian Multipole Moments
 -----------------------------------------------------------------
    Charge (ESU x 10^10)
                 0.0000
    Dipole Moment (Debye)
         X       0.0000      Y       0.0000      Z       0.0000
       Tot       0.0000
    Quadrupole Moments (Debye-Ang)
        XX      -9.9623     XY       0.0000     YY      -9.9623
        XZ       0.0000     YZ       0.0000     ZZ     -11.6359
    Octapole Moments (Debye-Ang^2)
       XXX       0.0000    XXY       0.0000    XYY       0.0000
       YYY       0.0000    XXZ      -5.5067    XYZ       0.0000
       YYZ      -5.5067    XZZ       0.0000    YZZ       0.0000
       ZZZ     -19.2952
    Hexadecapole Moments (Debye-Ang^3)
      XXXX      -8.3006   XXXY       0.0000   XXYY      -2.7668
      XYYY       0.0000   YYYY      -8.3006   XXXZ       0.0000
      XXYZ       0.0000   XYYZ       0.0000   YYYZ       0.0000
      XXZZ      -8.8179   XYZZ       0.0000   YYZZ      -8.8179
      XZZZ       0.0000   YZZZ       0.0000   ZZZZ     -50.2273
 -----------------------------------------------------------------
 Calculating analytic gradient of the SCF energy
 Gradient of AOints
            1           2
    1   0.0000000  -0.0000000
    2  -0.0000000   0.0000000
    3  16.5888756 -16.5888756
 Gradient of XC Energy
            1           2
    1  -0.0000000   0.0000000
    2   0.0000000  -0.0000000
    3  -0.6485168   0.6485168
 Gradient of SCF Energy
            1           2
    1  -0.0000000   0.0000000
    2   0.0000000  -0.0000000
    3   0.2579169  -0.2579169
 Max gradient component =       2.579E-01
 RMS gradient           =       1.489E-01
 Gradient time:  CPU 3.91 s  wall 4.14 s
 Geometry Optimization Parameters
   NAtoms,    NIC,     NZ,  NCons,   NDum,   NFix, NCnnct, MaxDiis
        2       5       2       0       0       0       0       0

 Cartesian Hessian Update
 Hessian Updated using BFGS Update


** GEOMETRY OPTIMIZATION IN CARTESIAN COORDINATES **
   Searching for a Minimum

   Optimization Cycle:   2

                       Coordinates (Angstroms)
     ATOM              X           Y           Z
    1  N           0.000000    0.000000    0.044307
    2  N           0.000000    0.000000    1.061191
   Point Group: c1    Number of degrees of freedom:   0


   Energy is   -109.464411665


 Translations and Rotations Projected Out of Hessian

  1 Hessian modes will be used to form the next step
  Hessian Eigenvalues:
     4.094624

 Minimum Search - Taking Simple RFO Step
 Searching for Lamda that Minimizes Along All modes
 Value Taken    Lamda =  -0.03223813
 Step Taken.  Stepsize is  0.088384

                             Maximum     Tolerance    Cnvgd?
         Gradient           0.257917      0.000300      NO
         Displacement       0.062497      0.001200      NO
         Energy change      0.011715      0.000001      NO

 Writing REM_CC_EA            2
 ----------------------------------------------------
       Standard Nuclear Orientation (Angstroms)
    I     Atom         X            Y            Z
 ----------------------------------------------------
    1      N       0.000000     0.000000     0.011235
    2      N       0.000000     0.000000     1.094263
 ----------------------------------------------------
 Nuclear Repulsion Energy =    23.9418309238 hartrees
 There are        7 alpha and        7 beta electrons
 Applying Cartesian multipole field
    Component          Value
    ---------          -----
     (2,0,0)        1.00000E-11
     (0,2,0)        2.00000E-11
     (0,0,2)       -3.00000E-11
 Nucleus-field energy     =    -0.0000000009 hartrees
 Requested basis set is G3large
 There are 20 shells and 84 basis functions
 A cutoff of  1.0D-11 yielded    207 shell pairs
 There are   3687 function pairs (  4845 Cartesian)
Evaluating contribution to one-electron hamiltonian from nuclear
 Smallest overlap matrix eigenvalue = 1.81E-04
 Multipole matrices computed through 2nd order
 Guess MOs from SCF MO coefficient file
Reading MOs from coefficient file
Reading MOs from coefficient file
 Long-range K will be added via erf
 Coulomb attenuation parameter = 0.56 bohr**(-1)
 A restricted Kohn-Sham SCF calculation will be
 performed using Pulay DIIS extrapolation
 Exchange:  wPBE + LR-HF      Correlation:  PBE
 Using SG-1 standard quadrature grid
 SCF converges when DIIS error is below 1.0E-08
 Requested basis set is G3large
 There are 20 shells and 84 basis functions
 A cutoff of  1.0D-11 yielded    207 shell pairs
 There are   3687 function pairs (  4845 Cartesian)
 Warning!  Inaccurate integrated density:
   Number of electrons =    14
   Numerical integral  =    13.900012103805
   Relative error      =    -0.7141992585 %
 ---------------------------------------
  Cycle       Energy         DIIS Error
 ---------------------------------------
    1    -109.4696493977      8.90E-03
    2    -109.4777324987      8.91E-04
    3    -109.4782562110      3.27E-04
    4    -109.4783053942      2.88E-05
    5    -109.4783062598      7.68E-06
    6    -109.4783063259      8.80E-07
    7    -109.4783063103      1.07E-07
    8    -109.4783063298      2.65E-08
    9    -109.4783063283      2.61E-08
   10    -109.4783063277      1.02E-09 Convergence criterion met
 ---------------------------------------
 One-Electron    Energy =  -195.1883241205
 Total Coulomb   Energy =    75.4089259971
 Alpha Exchange  Energy =    -1.8593690594
 Beta  Exchange  Energy =    -1.8593690594
 DFT   Exchange  Energy =    -9.4685600562
 DFT Correlation Energy =    -0.4534409523
 Nuclear Repu.   Energy =    23.9418309229
 Nuclear Attr.   Energy =  -304.4127840051
 Kinetic         Energy =   109.2244598846
 SCF time:  CPU 9.52 s  wall 11.28 s
 Final Alpha MO Eigenvalues
            1           2           3           4           5           6
    1 -14.3865708 -14.3845997  -1.3410779  -0.7265732  -0.6333040  -0.6333040
            7           8           9          10          11          12
    1  -0.6023758   0.0912524   0.0912524   0.1368880   0.1401755   0.1590166
 Analysis of SCF Wavefunction
 
 --------------------------------------------------------------
                    Orbital Energies (a.u.)
 --------------------------------------------------------------
 
 Alpha MOs
 -- Occupied --
-14.387 -14.385  -1.341  -0.727  -0.633  -0.633  -0.602
 -- Virtual --
  0.091   0.091   0.137   0.140   0.159   0.159   0.215   0.243
  0.243   0.328   0.618   0.779   0.827   0.827   0.931   0.931
  0.945   0.945   1.013   1.019   1.243   1.243   1.306   1.398
  1.398   1.883   1.883   1.954   2.167   3.328   3.393   3.393
  3.426   3.426   3.756   3.756   3.772   3.772   3.786   3.786
  3.939   3.939   4.452   4.522   4.681   4.681   4.714   4.739
  4.739   4.789   4.789   4.948   4.948   5.267   5.267   6.085
  6.579   6.579   6.958  35.114  36.295  37.253  37.253  37.648
 37.648  38.162  38.579  40.364  40.425  40.474  40.529  40.529
 40.533  40.582  40.934  40.934  41.567
 --------------------------------------------------------------
 
          Ground-State Mulliken Net Atomic Charges

     Atom                 Charge (a.u.)
  ----------------------------------------
      1 N                     0.000000
      2 N                     0.000000
  ----------------------------------------
  Sum of atomic charges =     0.000000

 -----------------------------------------------------------------
                    Cartesian Multipole Moments
 -----------------------------------------------------------------
    Charge (ESU x 10^10)
                 0.0000
    Dipole Moment (Debye)
         X       0.0000      Y       0.0000      Z       0.0000
       Tot       0.0000
    Quadrupole Moments (Debye-Ang)
        XX     -10.1855     XY       0.0000     YY     -10.1855
        XZ       0.0000     YZ       0.0000     ZZ     -11.6674
    Octapole Moments (Debye-Ang^2)
       XXX       0.0000    XXY       0.0000    XYY       0.0000
       YYY       0.0000    XXZ      -5.6300    XYZ       0.0000
       YYZ      -5.6300    XZZ       0.0000    YZZ       0.0000
       ZZZ     -19.3475
    Hexadecapole Moments (Debye-Ang^3)
      XXXX      -8.6745   XXXY       0.0000   XXYY      -2.8915
      XYYY       0.0000   YYYY      -8.6745   XXXZ       0.0000
      XXYZ       0.0000   XYYZ       0.0000   YYYZ       0.0000
      XXZZ      -9.3121   XYZZ       0.0000   YYZZ      -9.3121
      XZZZ       0.0000   YZZZ       0.0000   ZZZZ     -52.6025
 -----------------------------------------------------------------
 Calculating analytic gradient of the SCF energy
 Gradient of AOints
            1           2
    1  -0.0000000   0.0000000
    2  -0.0000000   0.0000000
    3  15.9886356 -15.9886356
 Gradient of XC Energy
            1           2
    1   0.0000000  -0.0000000
    2   0.0000000  -0.0000000
    3  -0.6241775   0.6241775
 Gradient of SCF Energy
            1           2
    1   0.0000000  -0.0000000
    2  -0.0000000   0.0000000
    3  -0.0159835   0.0159835
 Max gradient component =       1.598E-02
 RMS gradient           =       9.228E-03
 Gradient time:  CPU 3.92 s  wall 4.09 s
 Geometry Optimization Parameters
   NAtoms,    NIC,     NZ,  NCons,   NDum,   NFix, NCnnct, MaxDiis
        2       5       2       0       0       0       0       0

 Cartesian Hessian Update
 Hessian Updated using BFGS Update


** GEOMETRY OPTIMIZATION IN CARTESIAN COORDINATES **
   Searching for a Minimum

   Optimization Cycle:   3

                       Coordinates (Angstroms)
     ATOM              X           Y           Z
    1  N           0.000000    0.000000    0.011235
    2  N           0.000000    0.000000    1.094263
   Point Group: c1    Number of degrees of freedom:   0


   Energy is   -109.478306328


 Translations and Rotations Projected Out of Hessian

  1 Hessian modes will be used to form the next step
  Hessian Eigenvalues:
     4.382610

 Minimum Search - Taking Simple RFO Step
 Searching for Lamda that Minimizes Along All modes
 Value Taken    Lamda =  -0.00011658
 Step Taken.  Stepsize is  0.005158

                             Maximum     Tolerance    Cnvgd?
         Gradient           0.015983      0.000300      NO
         Displacement       0.003647      0.001200      NO
         Energy change     -0.013895      0.000001      NO

 Writing REM_CC_EA            2
 ----------------------------------------------------
       Standard Nuclear Orientation (Angstroms)
    I     Atom         X            Y            Z
 ----------------------------------------------------
    1      N       0.000000     0.000000     0.013165
    2      N       0.000000     0.000000     1.092334
 ----------------------------------------------------
 Nuclear Repulsion Energy =    24.0274610066 hartrees
 There are        7 alpha and        7 beta electrons
 Applying Cartesian multipole field
    Component          Value
    ---------          -----
     (2,0,0)        1.00000E-11
     (0,2,0)        2.00000E-11
     (0,0,2)       -3.00000E-11
 Nucleus-field energy     =    -0.0000000009 hartrees
 Requested basis set is G3large
 There are 20 shells and 84 basis functions
 A cutoff of  1.0D-11 yielded    207 shell pairs
 There are   3687 function pairs (  4845 Cartesian)
Evaluating contribution to one-electron hamiltonian from nuclear
 Smallest overlap matrix eigenvalue = 1.77E-04
 Multipole matrices computed through 2nd order
 Guess MOs from SCF MO coefficient file
Reading MOs from coefficient file
Reading MOs from coefficient file
 Long-range K will be added via erf
 Coulomb attenuation parameter = 0.56 bohr**(-1)
 A restricted Kohn-Sham SCF calculation will be
 performed using Pulay DIIS extrapolation
 Exchange:  wPBE + LR-HF      Correlation:  PBE
 Using SG-1 standard quadrature grid
 SCF converges when DIIS error is below 1.0E-08
 Requested basis set is G3large
 There are 20 shells and 84 basis functions
 A cutoff of  1.0D-11 yielded    207 shell pairs
 There are   3687 function pairs (  4845 Cartesian)
 ---------------------------------------
  Cycle       Energy         DIIS Error
 ---------------------------------------
    1    -109.4803517345      4.85E-04
    2    -109.4783737693      5.40E-05
    3    -109.4783757504      2.06E-05
    4    -109.4783759463      1.73E-06
    5    -109.4783759492      4.32E-07
    6    -109.4783759529      5.11E-08
    7    -109.4783759520      6.15E-09 Convergence criterion met
 ---------------------------------------
 One-Electron    Energy =  -195.3536392569
 Total Coulomb   Energy =    75.4941691763
 Alpha Exchange  Energy =    -1.8599644297
 Beta  Exchange  Energy =    -1.8599644297
 DFT   Exchange  Energy =    -9.4727964051
 DFT Correlation Energy =    -0.4536416126
 Nuclear Repu.   Energy =    24.0274610057
 Nuclear Attr.   Energy =  -304.6033776362
 Kinetic         Energy =   109.2497383793
 SCF time:  CPU 6.74 s  wall 7.34 s
 Final Alpha MO Eigenvalues
            1           2           3           4           5           6
    1 -14.3853640 -14.3833296  -1.3431973  -0.7254622  -0.6347673  -0.6347673
            7           8           9          10          11          12
    1  -0.6026526   0.0928310   0.0928310   0.1369494   0.1402232   0.1589159
 Analysis of SCF Wavefunction
 
 --------------------------------------------------------------
                    Orbital Energies (a.u.)
 --------------------------------------------------------------
 
 Alpha MOs
 -- Occupied --
-14.385 -14.383  -1.343  -0.725  -0.635  -0.635  -0.603
 -- Virtual --
  0.093   0.093   0.137   0.140   0.159   0.159   0.215   0.244
  0.244   0.328   0.620   0.778   0.826   0.826   0.931   0.931
  0.945   0.945   1.013   1.024   1.246   1.246   1.307   1.399
  1.399   1.884   1.884   1.954   2.173   3.325   3.395   3.395
  3.424   3.424   3.754   3.754   3.780   3.780   3.787   3.787
  3.941   3.941   4.456   4.528   4.676   4.676   4.714   4.741
  4.741   4.789   4.789   4.954   4.954   5.269   5.269   6.089
  6.600   6.600   6.973  35.111  36.319  37.256  37.256  37.651
 37.651  38.157  38.597  40.367  40.426  40.476  40.528  40.528
 40.534  40.584  40.946  40.946  41.584
 --------------------------------------------------------------
 
          Ground-State Mulliken Net Atomic Charges

     Atom                 Charge (a.u.)
  ----------------------------------------
      1 N                     0.000000
      2 N                     0.000000
  ----------------------------------------
  Sum of atomic charges =     0.000000

 -----------------------------------------------------------------
                    Cartesian Multipole Moments
 -----------------------------------------------------------------
    Charge (ESU x 10^10)
                 0.0000
    Dipole Moment (Debye)
         X       0.0000      Y       0.0000      Z       0.0000
       Tot       0.0000
    Quadrupole Moments (Debye-Ang)
        XX     -10.1729     XY       0.0000     YY     -10.1729
        XZ       0.0000     YZ       0.0000     ZZ     -11.6663
    Octapole Moments (Debye-Ang^2)
       XXX       0.0000    XXY       0.0000    XYY       0.0000
       YYY       0.0000    XXZ      -5.6231    XYZ       0.0000
       YYZ      -5.6231    XZZ       0.0000    YZZ       0.0000
       ZZZ     -19.3456
    Hexadecapole Moments (Debye-Ang^3)
      XXXX      -8.6529   XXXY       0.0000   XXYY      -2.8843
      XYYY       0.0000   YYYY      -8.6529   XXXZ       0.0000
      XXYZ       0.0000   XYYZ       0.0000   YYYZ       0.0000
      XXZZ      -9.2827   XYZZ       0.0000   YYZZ      -9.2827
      XZZZ       0.0000   YZZZ       0.0000   ZZZZ     -52.4618
 -----------------------------------------------------------------
 Calculating analytic gradient of the SCF energy
 Gradient of AOints
            1           2
    1   0.0000000  -0.0000000
    2  -0.0000000   0.0000000
    3  16.0293815 -16.0293815
 Gradient of XC Energy
            1           2
    1  -0.0000000   0.0000000
    2   0.0000000  -0.0000000
    3  -0.6259367   0.6259367
 Gradient of SCF Energy
            1           2
    1   0.0000000  -0.0000000
    2  -0.0000000   0.0000000
    3  -0.0030518   0.0030518
 Max gradient component =       3.052E-03
 RMS gradient           =       1.762E-03
 Gradient time:  CPU 3.92 s  wall 4.06 s
 Geometry Optimization Parameters
   NAtoms,    NIC,     NZ,  NCons,   NDum,   NFix, NCnnct, MaxDiis
        2       5       2       0       0       0       0       0

 Cartesian Hessian Update
 Hessian Updated using BFGS Update


** GEOMETRY OPTIMIZATION IN CARTESIAN COORDINATES **
   Searching for a Minimum

   Optimization Cycle:   4

                       Coordinates (Angstroms)
     ATOM              X           Y           Z
    1  N           0.000000    0.000000    0.013165
    2  N           0.000000    0.000000    1.092334
   Point Group: c1    Number of degrees of freedom:   0


   Energy is   -109.478375952


 Translations and Rotations Projected Out of Hessian

  1 Hessian modes will be used to form the next step
  Hessian Eigenvalues:
     3.545912

 Minimum Search - Taking Simple RFO Step
 Searching for Lamda that Minimizes Along All modes
 Value Taken    Lamda =  -0.00000525
 Step Taken.  Stepsize is  0.001217

                             Maximum     Tolerance    Cnvgd?
         Gradient           0.003052      0.000300      NO
         Displacement       0.000861      0.001200     YES
         Energy change     -0.000070      0.000001      NO

 Writing REM_CC_EA            2
 ----------------------------------------------------
       Standard Nuclear Orientation (Angstroms)
    I     Atom         X            Y            Z
 ----------------------------------------------------
    1      N       0.000000     0.000000     0.013620
    2      N       0.000000     0.000000     1.091878
 ----------------------------------------------------
 Nuclear Repulsion Energy =    24.0477585921 hartrees
 There are        7 alpha and        7 beta electrons
 Applying Cartesian multipole field
    Component          Value
    ---------          -----
     (2,0,0)        1.00000E-11
     (0,2,0)        2.00000E-11
     (0,0,2)       -3.00000E-11
 Nucleus-field energy     =    -0.0000000009 hartrees
 Requested basis set is G3large
 There are 20 shells and 84 basis functions
 A cutoff of  1.0D-11 yielded    207 shell pairs
 There are   3687 function pairs (  4845 Cartesian)
Evaluating contribution to one-electron hamiltonian from nuclear
 Smallest overlap matrix eigenvalue = 1.76E-04
 Multipole matrices computed through 2nd order
 Guess MOs from SCF MO coefficient file
Reading MOs from coefficient file
Reading MOs from coefficient file
 Long-range K will be added via erf
 Coulomb attenuation parameter = 0.56 bohr**(-1)
 A restricted Kohn-Sham SCF calculation will be
 performed using Pulay DIIS extrapolation
 Exchange:  wPBE + LR-HF      Correlation:  PBE
 Using SG-1 standard quadrature grid
 SCF converges when DIIS error is below 1.0E-08
 Requested basis set is G3large
 There are 20 shells and 84 basis functions
 A cutoff of  1.0D-11 yielded    207 shell pairs
 There are   3687 function pairs (  4845 Cartesian)
 ---------------------------------------
  Cycle       Energy         DIIS Error
 ---------------------------------------
    1    -109.4788279558      1.15E-04
    2    -109.4783784169      1.27E-05
    3    -109.4783785276      4.84E-06
    4    -109.4783785383      4.08E-07
    5    -109.4783785396      1.02E-07
    6    -109.4783785580      1.21E-08
    7    -109.4783785572      1.67E-09 Convergence criterion met
 ---------------------------------------
 One-Electron    Energy =  -195.3927992163
 Total Coulomb   Energy =    75.5143629624
 Alpha Exchange  Energy =    -1.8601049179
 Beta  Exchange  Energy =    -1.8601049179
 DFT   Exchange  Energy =    -9.4738020965
 DFT Correlation Energy =    -0.4536889621
 Nuclear Repu.   Energy =    24.0477585912
 Nuclear Attr.   Energy =  -304.6485606558
 Kinetic         Energy =   109.2557614395
 SCF time:  CPU 6.72 s  wall 7.40 s
 Final Alpha MO Eigenvalues
            1           2           3           4           5           6
    1 -14.3850784 -14.3830287  -1.3436973  -0.7251996  -0.6351141  -0.6351141
            7           8           9          10          11          12
    1  -0.6027179   0.0932034   0.0932034   0.1369638   0.1402344   0.1588921
 Analysis of SCF Wavefunction
 
 --------------------------------------------------------------
                    Orbital Energies (a.u.)
 --------------------------------------------------------------
 
 Alpha MOs
 -- Occupied --
-14.385 -14.383  -1.344  -0.725  -0.635  -0.635  -0.603
 -- Virtual --
  0.093   0.093   0.137   0.140   0.159   0.159   0.215   0.244
  0.244   0.328   0.621   0.778   0.826   0.826   0.931   0.931
  0.945   0.945   1.013   1.025   1.246   1.246   1.307   1.399
  1.399   1.884   1.884   1.953   2.174   3.324   3.396   3.396
  3.424   3.424   3.754   3.754   3.781   3.781   3.787   3.787
  3.942   3.942   4.457   4.530   4.675   4.675   4.714   4.742
  4.742   4.789   4.789   4.955   4.955   5.269   5.269   6.090
  6.605   6.605   6.976  35.111  36.324  37.256  37.256  37.652
 37.652  38.155  38.601  40.367  40.426  40.476  40.528  40.528
 40.534  40.584  40.949  40.949  41.588
 --------------------------------------------------------------
 
          Ground-State Mulliken Net Atomic Charges

     Atom                 Charge (a.u.)
  ----------------------------------------
      1 N                     0.000000
      2 N                     0.000000
  ----------------------------------------
  Sum of atomic charges =     0.000000

 -----------------------------------------------------------------
                    Cartesian Multipole Moments
 -----------------------------------------------------------------
    Charge (ESU x 10^10)
                 0.0000
    Dipole Moment (Debye)
         X       0.0000      Y       0.0000      Z       0.0000
       Tot       0.0000
    Quadrupole Moments (Debye-Ang)
        XX     -10.1699     XY       0.0000     YY     -10.1699
        XZ       0.0000     YZ       0.0000     ZZ     -11.6660
    Octapole Moments (Debye-Ang^2)
       XXX       0.0000    XXY       0.0000    XYY       0.0000
       YYY       0.0000    XXZ      -5.6214    XYZ       0.0000
       YYZ      -5.6214    XZZ       0.0000    YZZ       0.0000
       ZZZ     -19.3452
    Hexadecapole Moments (Debye-Ang^3)
      XXXX      -8.6478   XXXY       0.0000   XXYY      -2.8826
      XYYY       0.0000   YYYY      -8.6478   XXXZ       0.0000
      XXYZ       0.0000   XYYZ       0.0000   YYYZ       0.0000
      XXZZ      -9.2757   XYZZ       0.0000   YYZZ      -9.2757
      XZZZ       0.0000   YZZZ       0.0000   ZZZZ     -52.4287
 -----------------------------------------------------------------
 Calculating analytic gradient of the SCF energy
 Gradient of AOints
            1           2
    1  -0.0000000   0.0000000
    2  -0.0000000   0.0000000
    3  16.0389136 -16.0389136
 Gradient of XC Energy
            1           2
    1   0.0000000  -0.0000000
    2  -0.0000000   0.0000000
    3  -0.6263467   0.6263467
 Gradient of SCF Energy
            1           2
    1  -0.0000000   0.0000000
    2  -0.0000000   0.0000000
    3   0.0000489  -0.0000489
 Max gradient component =       4.889E-05
 RMS gradient           =       2.822E-05
 Gradient time:  CPU 3.92 s  wall 4.68 s
 Geometry Optimization Parameters
   NAtoms,    NIC,     NZ,  NCons,   NDum,   NFix, NCnnct, MaxDiis
        2       5       2       0       0       0       0       0

 Cartesian Hessian Update
 Hessian Updated using BFGS Update


** GEOMETRY OPTIMIZATION IN CARTESIAN COORDINATES **
   Searching for a Minimum

   Optimization Cycle:   5

                       Coordinates (Angstroms)
     ATOM              X           Y           Z
    1  N           0.000000    0.000000    0.013620
    2  N           0.000000    0.000000    1.091878
   Point Group: c1    Number of degrees of freedom:   0


   Energy is   -109.478378557


 Translations and Rotations Projected Out of Hessian

  1 Hessian modes will be used to form the next step
  Hessian Eigenvalues:
     3.602718

 Minimum Search - Taking Simple RFO Step
 Searching for Lamda that Minimizes Along All modes
 Value Taken    Lamda =   0.00000000
 Step Taken.  Stepsize is  0.000019

                             Maximum     Tolerance    Cnvgd?
         Gradient           0.000049      0.000300     YES
         Displacement       0.000014      0.001200     YES
         Energy change     -0.000003      0.000001      NO


                       Distance Matrix (Angstroms)
             N (  1)
   N (  2)  1.078258
 


 ******************************
 **  OPTIMIZATION CONVERGED  **
 ******************************
 Analysis of SCF Wavefunction
 
 --------------------------------------------------------------
                    Orbital Energies (a.u.)
 --------------------------------------------------------------
 
 Alpha MOs
 -- Occupied --
-14.385 -14.383  -1.344  -0.725  -0.635  -0.635  -0.603
 -- Virtual --
  0.093   0.093   0.137   0.140   0.159   0.159   0.215   0.244
  0.244   0.328   0.621   0.778   0.826   0.826   0.931   0.931
  0.945   0.945   1.013   1.025   1.246   1.246   1.307   1.399
  1.399   1.884   1.884   1.953   2.174   3.324   3.396   3.396
  3.424   3.424   3.754   3.754   3.781   3.781   3.787   3.787
  3.942   3.942   4.457   4.530   4.675   4.675   4.714   4.742
  4.742   4.789   4.789   4.955   4.955   5.269   5.269   6.090
  6.605   6.605   6.976  35.111  36.324  37.256  37.256  37.652
 37.652  38.155  38.601  40.367  40.426  40.476  40.528  40.528
 40.534  40.584  40.949  40.949  41.588
 --------------------------------------------------------------
 
          Ground-State Mulliken Net Atomic Charges

     Atom                 Charge (a.u.)
  ----------------------------------------
      1 N                     0.000000
      2 N                     0.000000
  ----------------------------------------
  Sum of atomic charges =     0.000000

 -----------------------------------------------------------------
                    Cartesian Multipole Moments
 -----------------------------------------------------------------
    Charge (ESU x 10^10)
                 0.0000
    Dipole Moment (Debye)
         X       0.0000      Y       0.0000      Z       0.0000
       Tot       0.0000
    Quadrupole Moments (Debye-Ang)
        XX     -10.1699     XY       0.0000     YY     -10.1699
        XZ       0.0000     YZ       0.0000     ZZ     -11.6660
    Octapole Moments (Debye-Ang^2)
       XXX       0.0000    XXY       0.0000    XYY       0.0000
       YYY       0.0000    XXZ      -5.6214    XYZ       0.0000
       YYZ      -5.6214    XZZ       0.0000    YZZ       0.0000
       ZZZ     -19.3452
    Hexadecapole Moments (Debye-Ang^3)
      XXXX      -8.6478   XXXY       0.0000   XXYY      -2.8826
      XYYY       0.0000   YYYY      -8.6478   XXXZ       0.0000
      XXYZ       0.0000   XYYZ       0.0000   YYYZ       0.0000
      XXZZ      -9.2757   XYZZ       0.0000   YYZZ      -9.2757
      XZZZ       0.0000   YZZZ       0.0000   ZZZZ     -52.4287
 -----------------------------------------------------------------
 Total job time:  70.72s(wall), 59.91s(cpu) 
 Wed May  1 12:17:15 2013

        *************************************************************
        *                                                           *
        *  Thank you very much for using Q-Chem.  Have a nice day.  *
        *                                                           *
        *************************************************************


0 sent ACK to 0 
now end server 0 ... 
 
**********************************************************************
Job 2 of 2 
**********************************************************************
 
Process 0 of 1 is on cl085.stfx.acenet.ca - thread support 1
initial socket setup ...start
initial socket setup ...done 
now start server 0 ... 

cmd = /usr/bin/ssh clhead /usr/local/qchem/bin/get_hostid 1405841604 > /scratch/tmp/5956720.1.short.q/qchem25224/lic.dat
                  Welcome to Q-Chem
     A Quantum Leap Into The Future Of Chemistry

 Y. Shao, L. Fusti-Molnar, Y. Jung, J. Kussmann, C. Ochsenfeld,
 S. T. Brown, A. T. B. Gilbert, L. V. Slipchenko,S. V. Levchenko,
 D. P. O'Neill, R. A. DiStasio Jr., R. C. Lochan, T. Wang,
 G. J. O. Beran, N. A. Besley, J. M. Herbert, C. Y. Lin,
 T. Van Voorhis, S. H. Chien, A. Sodt, R. P. Steele, 
 V. A. Rassolov, P. E. Maslen, P. P. Korambath, R. D. Adamson,
 B. Austin, J. Baker, E. F. C. Byrd, H. Dachsel, R. J. Doerksen,
 A. Dreuw, B. D. Dunietz, A. D. Dutoi, T. R. Furlani,
 S. R. Gwaltney, A. Heyden, S. Hirata, C.-P. Hsu, G. Kedziora,
 R. Z. Khaliullin, P. Klunzinger, A. M. Lee, M. S. Lee, W. Liang,
 I. Lotan, N. Nair, B. Peters, E. I. Proynov, P. A. Pieniazek, 
 Y. M. Rhee, J. Ritchie, E. Rosta, C. D. Sherrill, 
 A. C. Simmonett, J. E. Subotnik, H. L. Woodcock III,
 W. Zhang, A. T. Bell, A. K. Chakraborty, D. M. Chipman,
 F. J. Keil, A. Warshel, W. J. Hehre, H. F. Schaefer III,
 J. Kong, A. I. Krylov, P. M. W. Gill, M. Head-Gordon,
 Q-Chem, Version 3.1, Q-Chem, Inc., Pittsburgh, PA (2007).

 Additional authors for Version 3.1: 
 Z. Gan, Y. Zhao, N. E. Schultz, D. Truhlar, E. Epifanovsky and M. Oana.

 Additional authors for Version 3.2: 
 R. Baer, B. R. Brooks, D. Casanova, J.-D. Chai, C.-L. Cheng, 
 C. Cramer, D. Crittenden, A. Ghysels, G. Hawkins, E. G. Hohenstein, 
 C. Kelley, W. Kurlancheek, D. Liotard, E. Livshits, P. Manohar, 
 A. Marenich, D. Neuhauser, R. Olson, M. A. Rohrdanz, K. S. Thanthiriwatte, 
 A. J. W. Thom, V. Vanovschi, C. F. Williams, Q. Wu and Z.-Q. You. 


 Intel X86 Linux Version

 Q-chem begins on Wed May  1 12:17:18 2013  

 Parallel job on  1  processors
Processing $rem in /usr/local/qchem/config/preferences.

theFileMan(): MAXOPENFILES=974 MAX_SUB_FILE_NUM=16
Maximum size of a physical file is 2.0 GB, maximum size of a tmp-file is 32.0 GB


--------------------------------------------------------------
User input:
--------------------------------------------------------------

$molecule 
READ 
$end 

$xc_functional
C PBE   1.00
X wPBE  1.00
$end


$rem
SYMMETRY_DECOMPOSITION	0
LRC_DFT                 true
exchange 		general
BASIS                   g3large
omega			560 
JOBTYPE                 freq
IDERIV 1
SCF_GUESS READ
mem_static              760
max_scf_cycles          200
scf_final_print         1
sym_ignore              true
$end

--------------------------------------------------------------
 Writing REM_CC_EA            2
 ----------------------------------------------------
       Standard Nuclear Orientation (Angstroms)
    I     Atom         X            Y            Z
 ----------------------------------------------------
    1      N       0.000000     0.000000     0.013620
    2      N       0.000000     0.000000     1.091878
 ----------------------------------------------------
 Nuclear Repulsion Energy =    24.0477585921 hartrees
 There are        7 alpha and        7 beta electrons
 Requested basis set is G3large
 There are 20 shells and 84 basis functions

Total QAlloc Memory Limit   2000 MB
Mega-Array Size       759 MB
MEM_STATIC part       760 MB

                       Distance Matrix (Angstroms)
             N (  1)
   N (  2)  1.078258
 
 A cutoff of  1.0D-11 yielded    207 shell pairs
 There are   3687 function pairs (  4845 Cartesian)
Evaluating contribution to one-electron hamiltonian from nuclear
 Smallest overlap matrix eigenvalue = 1.76E-04
 Multipole matrices computed through 2nd order
 Guess MOs from SCF MO coefficient file
Reading MOs from coefficient file
Reading MOs from coefficient file
 Long-range K will be added via erf
 Coulomb attenuation parameter = 0.56 bohr**(-1)
 A restricted Kohn-Sham SCF calculation will be
 performed using Pulay DIIS extrapolation
 Exchange:  wPBE + LR-HF      Correlation:  PBE
 Using SG-1 standard quadrature grid
 SCF converges when DIIS error is below 1.0E-08
 ---------------------------------------
  Cycle       Energy         DIIS Error
 ---------------------------------------
    1    -109.4783785375      1.28E-09
    2    -109.4783785376      1.66E-09 Convergence criterion met
 ---------------------------------------
 One-Electron    Energy =  -195.3927990598
 Total Coulomb   Energy =    75.5143627801
 Alpha Exchange  Energy =    -1.8601049151
 Beta  Exchange  Energy =    -1.8601049151
 DFT   Exchange  Energy =    -9.4738020600
 DFT Correlation Energy =    -0.4536889597
 Nuclear Repu.   Energy =    24.0477585921
 Nuclear Attr.   Energy =  -304.6485603442
 Kinetic         Energy =   109.2557612843
 SCF time:  CPU 1.95 s  wall 2.23 s
 Final Alpha MO Eigenvalues
            1           2           3           4           5           6
    1 -14.3850784 -14.3830287  -1.3436973  -0.7251996  -0.6351141  -0.6351141
            7           8           9          10          11          12
    1  -0.6027179   0.0932034   0.0932034   0.1369638   0.1402344   0.1588921
 Analysis of SCF Wavefunction
 
 --------------------------------------------------------------
                    Orbital Energies (a.u.)
 --------------------------------------------------------------
 
 Alpha MOs
 -- Occupied --
-14.385 -14.383  -1.344  -0.725  -0.635  -0.635  -0.603
 -- Virtual --
  0.093   0.093   0.137   0.140   0.159   0.159   0.215   0.244
  0.244   0.328   0.621   0.778   0.826   0.826   0.931   0.931
  0.945   0.945   1.013   1.025   1.246   1.246   1.307   1.399
  1.399   1.884   1.884   1.953   2.174   3.324   3.396   3.396
  3.424   3.424   3.754   3.754   3.781   3.781   3.787   3.787
  3.942   3.942   4.457   4.530   4.675   4.675   4.714   4.742
  4.742   4.789   4.789   4.955   4.955   5.269   5.269   6.090
  6.605   6.605   6.976  35.111  36.324  37.256  37.256  37.652
 37.652  38.155  38.601  40.367  40.426  40.476  40.528  40.528
 40.534  40.584  40.949  40.949  41.588
 --------------------------------------------------------------
 
          Ground-State Mulliken Net Atomic Charges

     Atom                 Charge (a.u.)
  ----------------------------------------
      1 N                     0.000000
      2 N                     0.000000
  ----------------------------------------
  Sum of atomic charges =     0.000000

 -----------------------------------------------------------------
                    Cartesian Multipole Moments
 -----------------------------------------------------------------
    Charge (ESU x 10^10)
                 0.0000
    Dipole Moment (Debye)
         X       0.0000      Y       0.0000      Z       0.0000
       Tot       0.0000
    Quadrupole Moments (Debye-Ang)
        XX     -10.1699     XY       0.0000     YY     -10.1699
        XZ       0.0000     YZ       0.0000     ZZ     -11.6660
    Octapole Moments (Debye-Ang^2)
       XXX       0.0000    XXY       0.0000    XYY       0.0000
       YYY       0.0000    XXZ      -5.6214    XYZ       0.0000
       YYZ      -5.6214    XZZ       0.0000    YZZ       0.0000
       ZZZ     -19.3452
    Hexadecapole Moments (Debye-Ang^3)
      XXXX      -8.6478   XXXY       0.0000   XXYY      -2.8826
      XYYY       0.0000   YYYY      -8.6478   XXXZ       0.0000
      XXYZ       0.0000   XYYZ       0.0000   YYYZ       0.0000
      XXZZ      -9.2757   XYZZ       0.0000   YYZZ      -9.2757
      XZZZ       0.0000   YZZZ       0.0000   ZZZZ     -52.4287
 -----------------------------------------------------------------
 Calculating analytic gradient of the SCF energy
 Gradient of AOints
            1           2
    1   0.0000000  -0.0000000
    2   0.0000000  -0.0000000
    3  16.0389137 -16.0389137
 Gradient of XC Energy
            1           2
    1  -0.0000000   0.0000000
    2  -0.0000000   0.0000000
    3  -0.6263467   0.6263467
 Gradient of SCF Energy
            1           2
    1  -0.0000000   0.0000000
    2  -0.0000000   0.0000000
    3   0.0000489  -0.0000489
 Max gradient component =       4.889E-05
 RMS gradient           =       2.822E-05
 Gradient time:  CPU 3.92 s  wall 4.25 s
 ######################################################
 ######################################################
 # Starting finite difference calculation for IDERIV  #
 Finite diff step size: 1.89e-03 a.u.
 Writing REM_CC_EA            2
 ----------------------------------------------------
       Standard Nuclear Orientation (Angstroms)
    I     Atom         X            Y            Z
 ----------------------------------------------------
    1      N       0.001000     0.000000     0.013620
    2      N       0.000000     0.000000     1.091878
 ----------------------------------------------------
 Nuclear Repulsion Energy =    24.0477482503 hartrees
 There are        7 alpha and        7 beta electrons

                       Distance Matrix (Angstroms)
             N (  1)
   N (  2)  1.078258
 
 Requested basis set is G3large
 There are 20 shells and 84 basis functions
 A cutoff of  1.0D-11 yielded    207 shell pairs
 There are   3687 function pairs (  4845 Cartesian)
Evaluating contribution to one-electron hamiltonian from nuclear
 Smallest overlap matrix eigenvalue = 1.76E-04
 Multipole matrices computed through 2nd order
 Guess MOs from SCF MO coefficient file
Reading MOs from coefficient file
Reading MOs from coefficient file
 Long-range K will be added via erf
 Coulomb attenuation parameter = 0.56 bohr**(-1)
 A restricted Kohn-Sham SCF calculation will be
 performed using Pulay DIIS extrapolation
 Exchange:  wPBE + LR-HF      Correlation:  PBE
 Using SG-1 standard quadrature grid
 SCF converges when DIIS error is below 1.0E-08
 ---------------------------------------
  Cycle       Energy         DIIS Error
 ---------------------------------------
    1    -109.4783767110      7.16E-05
    2    -109.4783784456      6.36E-06
    3    -109.4783785385      2.43E-06
    4    -109.4783785520      7.49E-07
    5    -109.4783785566      1.61E-07
    6    -109.4783785558      1.08E-08
    7    -109.4783785565      2.13E-09 Convergence criterion met
 ---------------------------------------
 One-Electron    Energy =  -195.3927788274
 Total Coulomb   Energy =    75.5143521714
 Alpha Exchange  Energy =    -1.8601048406
 Beta  Exchange  Energy =    -1.8601048406
 DFT   Exchange  Energy =    -9.4738015331
 DFT Correlation Energy =    -0.4536889364
 Nuclear Repu.   Energy =    24.0477482503
 Nuclear Attr.   Energy =  -304.6485367231
 Kinetic         Energy =   109.2557578957
 SCF time:  CPU 6.72 s  wall 7.18 s
 Final Alpha MO Eigenvalues
            1           2           3           4           5           6
    1 -14.3850786 -14.3830289  -1.3436971  -0.7251997  -0.6351139  -0.6351139
            7           8           9          10          11          12
    1  -0.6027179   0.0932032   0.0932032   0.1369638   0.1402344   0.1588921
 Analysis of SCF Wavefunction
 
 --------------------------------------------------------------
                    Orbital Energies (a.u.)
 --------------------------------------------------------------
 
 Alpha MOs
 -- Occupied --
-14.385 -14.383  -1.344  -0.725  -0.635  -0.635  -0.603
 -- Virtual --
  0.093   0.093   0.137   0.140   0.159   0.159   0.215   0.244
  0.244   0.328   0.621   0.778   0.826   0.826   0.931   0.931
  0.945   0.945   1.013   1.025   1.246   1.246   1.307   1.399
  1.399   1.884   1.884   1.953   2.174   3.324   3.396   3.396
  3.424   3.424   3.754   3.754   3.781   3.781   3.787   3.787
  3.942   3.942   4.457   4.530   4.675   4.675   4.714   4.742
  4.742   4.789   4.789   4.955   4.955   5.269   5.269   6.090
  6.605   6.605   6.976  35.111  36.324  37.256  37.256  37.652
 37.652  38.155  38.601  40.367  40.426  40.476  40.528  40.528
 40.534  40.584  40.949  40.949  41.588
 --------------------------------------------------------------
 
          Ground-State Mulliken Net Atomic Charges

     Atom                 Charge (a.u.)
  ----------------------------------------
      1 N                     0.000000
      2 N                     0.000000
  ----------------------------------------
  Sum of atomic charges =     0.000000

 -----------------------------------------------------------------
                    Cartesian Multipole Moments
 -----------------------------------------------------------------
    Charge (ESU x 10^10)
                 0.0000
    Dipole Moment (Debye)
         X       0.0000      Y       0.0000      Z       0.0000
       Tot       0.0000
    Quadrupole Moments (Debye-Ang)
        XX     -10.1699     XY       0.0000     YY     -10.1699
        XZ       0.0014     YZ       0.0000     ZZ     -11.6660
    Octapole Moments (Debye-Ang^2)
       XXX      -0.0153    XXY       0.0000    XYY      -0.0051
       YYY       0.0000    XXZ      -5.6214    XYZ       0.0000
       YYZ      -5.6214    XZZ      -0.0043    YZZ       0.0000
       ZZZ     -19.3452
    Hexadecapole Moments (Debye-Ang^3)
      XXXX      -8.6478   XXXY       0.0000   XXYY      -2.8826
      XYYY       0.0000   YYYY      -8.6478   XXXZ       0.0007
      XXYZ       0.0000   XYYZ       0.0002   YYYZ       0.0000
      XXZZ      -9.2757   XYZZ       0.0000   YYZZ      -9.2757
      XZZZ       0.0032   YZZZ       0.0000   ZZZZ     -52.4287
 -----------------------------------------------------------------
 Calculating analytic gradient of the SCF energy
 Gradient of AOints
            1           2
    1  -0.0148753   0.0148753
    2   0.0000000  -0.0000000
    3  16.0389021 -16.0389021
 Gradient of XC Energy
            1           2
    1   0.0005807  -0.0005807
    2  -0.0000000   0.0000000
    3  -0.6263463   0.6263463
 Gradient of SCF Energy
            1           2
    1  -0.0000003   0.0000003
    2   0.0000000  -0.0000000
    3   0.0000473  -0.0000473
 Max gradient component =       4.732E-05
 RMS gradient           =       2.732E-05
 Gradient time:  CPU 4.00 s  wall 4.16 s
 Writing REM_CC_EA            2
 ----------------------------------------------------
       Standard Nuclear Orientation (Angstroms)
    I     Atom         X            Y            Z
 ----------------------------------------------------
    1      N      -0.001000     0.000000     0.013620
    2      N       0.000000     0.000000     1.091878
 ----------------------------------------------------
 Nuclear Repulsion Energy =    24.0477482503 hartrees
 There are        7 alpha and        7 beta electrons

                       Distance Matrix (Angstroms)
             N (  1)
   N (  2)  1.078258
 
 Requested basis set is G3large
 There are 20 shells and 84 basis functions
 A cutoff of  1.0D-11 yielded    207 shell pairs
 There are   3687 function pairs (  4845 Cartesian)
Evaluating contribution to one-electron hamiltonian from nuclear
 Smallest overlap matrix eigenvalue = 1.76E-04
 Multipole matrices computed through 2nd order
 Guess MOs from SCF MO coefficient file
Reading MOs from coefficient file
Reading MOs from coefficient file
 Long-range K will be added via erf
 Coulomb attenuation parameter = 0.56 bohr**(-1)
 A restricted Kohn-Sham SCF calculation will be
 performed using Pulay DIIS extrapolation
 Exchange:  wPBE + LR-HF      Correlation:  PBE
 Using SG-1 standard quadrature grid
 SCF converges when DIIS error is below 1.0E-08
 ---------------------------------------
  Cycle       Energy         DIIS Error
 ---------------------------------------
    1    -109.4783721373      1.43E-04
    2    -109.4783781171      1.27E-05
    3    -109.4783784721      4.87E-06
    4    -109.4783785234      1.50E-06
    5    -109.4783785392      3.23E-07
    6    -109.4783785363      2.63E-08
    7    -109.4783785384      1.70E-08
    8    -109.4783785380      5.54E-09 Convergence criterion met
 ---------------------------------------
 One-Electron    Energy =  -195.3927788580
 Total Coulomb   Energy =    75.5143522063
 Alpha Exchange  Energy =    -1.8601048410
 Beta  Exchange  Energy =    -1.8601048410
 DFT   Exchange  Energy =    -9.4738015197
 DFT Correlation Energy =    -0.4536889350
 Nuclear Repu.   Energy =    24.0477482503
 Nuclear Attr.   Energy =  -304.6485367916
 Kinetic         Energy =   109.2557579336
 SCF time:  CPU 7.71 s  wall 9.17 s
 Final Alpha MO Eigenvalues
            1           2           3           4           5           6
    1 -14.3850786 -14.3830289  -1.3436971  -0.7251997  -0.6351139  -0.6351139
            7           8           9          10          11          12
    1  -0.6027179   0.0932032   0.0932032   0.1369638   0.1402344   0.1588921
 Analysis of SCF Wavefunction
 
 --------------------------------------------------------------
                    Orbital Energies (a.u.)
 --------------------------------------------------------------
 
 Alpha MOs
 -- Occupied --
-14.385 -14.383  -1.344  -0.725  -0.635  -0.635  -0.603
 -- Virtual --
  0.093   0.093   0.137   0.140   0.159   0.159   0.215   0.244
  0.244   0.328   0.621   0.778   0.826   0.826   0.931   0.931
  0.945   0.945   1.013   1.025   1.246   1.246   1.307   1.399
  1.399   1.884   1.884   1.953   2.174   3.324   3.396   3.396
  3.424   3.424   3.754   3.754   3.781   3.781   3.787   3.787
  3.942   3.942   4.457   4.530   4.675   4.675   4.714   4.742
  4.742   4.789   4.789   4.955   4.955   5.269   5.269   6.090
  6.605   6.605   6.976  35.111  36.324  37.256  37.256  37.652
 37.652  38.155  38.601  40.367  40.426  40.476  40.528  40.528
 40.534  40.584  40.949  40.949  41.588
 --------------------------------------------------------------
 
          Ground-State Mulliken Net Atomic Charges

     Atom                 Charge (a.u.)
  ----------------------------------------
      1 N                     0.000000
      2 N                     0.000000
  ----------------------------------------
  Sum of atomic charges =     0.000000

 -----------------------------------------------------------------
                    Cartesian Multipole Moments
 -----------------------------------------------------------------
    Charge (ESU x 10^10)
                 0.0000
    Dipole Moment (Debye)
         X       0.0000      Y       0.0000      Z       0.0000
       Tot       0.0000
    Quadrupole Moments (Debye-Ang)
        XX     -10.1699     XY       0.0000     YY     -10.1699
        XZ      -0.0014     YZ       0.0000     ZZ     -11.6660
    Octapole Moments (Debye-Ang^2)
       XXX       0.0153    XXY       0.0000    XYY       0.0051
       YYY       0.0000    XXZ      -5.6214    XYZ       0.0000
       YYZ      -5.6214    XZZ       0.0043    YZZ       0.0000
       ZZZ     -19.3452
    Hexadecapole Moments (Debye-Ang^3)
      XXXX      -8.6478   XXXY       0.0000   XXYY      -2.8826
      XYYY       0.0000   YYYY      -8.6478   XXXZ      -0.0007
      XXYZ       0.0000   XYYZ      -0.0002   YYYZ       0.0000
      XXZZ      -9.2757   XYZZ       0.0000   YYZZ      -9.2757
      XZZZ      -0.0032   YZZZ       0.0000   ZZZZ     -52.4287
 -----------------------------------------------------------------
 Calculating analytic gradient of the SCF energy
 Gradient of AOints
            1           2
    1   0.0148752  -0.0148752
    2   0.0000000  -0.0000000
    3  16.0389021 -16.0389021
 Gradient of XC Energy
            1           2
    1  -0.0005806   0.0005806
    2  -0.0000000   0.0000000
    3  -0.6263463   0.6263463
 Gradient of SCF Energy
            1           2
    1   0.0000003  -0.0000003
    2  -0.0000000   0.0000000
    3   0.0000473  -0.0000473
 Max gradient component =       4.733E-05
 RMS gradient           =       2.732E-05
 Gradient time:  CPU 3.96 s  wall 4.07 s
 Writing REM_CC_EA            2
 ----------------------------------------------------
       Standard Nuclear Orientation (Angstroms)
    I     Atom         X            Y            Z
 ----------------------------------------------------
    1      N       0.000000     0.001000     0.013620
    2      N       0.000000     0.000000     1.091878
 ----------------------------------------------------
 Nuclear Repulsion Energy =    24.0477482503 hartrees
 There are        7 alpha and        7 beta electrons

                       Distance Matrix (Angstroms)
             N (  1)
   N (  2)  1.078258
 
 Requested basis set is G3large
 There are 20 shells and 84 basis functions
 A cutoff of  1.0D-11 yielded    207 shell pairs
 There are   3687 function pairs (  4845 Cartesian)
Evaluating contribution to one-electron hamiltonian from nuclear
 Smallest overlap matrix eigenvalue = 1.76E-04
 Multipole matrices computed through 2nd order
 Guess MOs from SCF MO coefficient file
Reading MOs from coefficient file
Reading MOs from coefficient file
 Long-range K will be added via erf
 Coulomb attenuation parameter = 0.56 bohr**(-1)
 A restricted Kohn-Sham SCF calculation will be
 performed using Pulay DIIS extrapolation
 Exchange:  wPBE + LR-HF      Correlation:  PBE
 Using SG-1 standard quadrature grid
 SCF converges when DIIS error is below 1.0E-08
 ---------------------------------------
  Cycle       Energy         DIIS Error
 ---------------------------------------
    1    -109.4783753375      1.01E-04
    2    -109.4783783275      8.99E-06
    3    -109.4783785050      3.44E-06
    4    -109.4783785306      1.06E-06
    5    -109.4783785385      2.28E-07
    6    -109.4783785371      1.59E-08
    7    -109.4783785382      5.57E-09 Convergence criterion met
 ---------------------------------------
 One-Electron    Energy =  -195.3927786535
 Total Coulomb   Energy =    75.5143519742
 Alpha Exchange  Energy =    -1.8601048389
 Beta  Exchange  Energy =    -1.8601048389
 DFT   Exchange  Energy =    -9.4738014969
 DFT Correlation Energy =    -0.4536889345
 Nuclear Repu.   Energy =    24.0477482503
 Nuclear Attr.   Energy =  -304.6485363552
 Kinetic         Energy =   109.2557577017
 SCF time:  CPU 6.76 s  wall 7.18 s
 Final Alpha MO Eigenvalues
            1           2           3           4           5           6
    1 -14.3850786 -14.3830288  -1.3436970  -0.7251997  -0.6351139  -0.6351139
            7           8           9          10          11          12
    1  -0.6027178   0.0932032   0.0932032   0.1369638   0.1402344   0.1588921
 Analysis of SCF Wavefunction
 
 --------------------------------------------------------------
                    Orbital Energies (a.u.)
 --------------------------------------------------------------
 
 Alpha MOs
 -- Occupied --
-14.385 -14.383  -1.344  -0.725  -0.635  -0.635  -0.603
 -- Virtual --
  0.093   0.093   0.137   0.140   0.159   0.159   0.215   0.244
  0.244   0.328   0.621   0.778   0.826   0.826   0.931   0.931
  0.945   0.945   1.013   1.025   1.246   1.246   1.307   1.399
  1.399   1.884   1.884   1.953   2.174   3.324   3.396   3.396
  3.424   3.424   3.754   3.754   3.781   3.781   3.787   3.787
  3.942   3.942   4.457   4.530   4.675   4.675   4.714   4.742
  4.742   4.789   4.789   4.955   4.955   5.269   5.269   6.090
  6.605   6.605   6.976  35.111  36.324  37.256  37.256  37.652
 37.652  38.155  38.601  40.367  40.426  40.476  40.528  40.528
 40.534  40.584  40.949  40.949  41.588
 --------------------------------------------------------------
 
          Ground-State Mulliken Net Atomic Charges

     Atom                 Charge (a.u.)
  ----------------------------------------
      1 N                     0.000000
      2 N                     0.000000
  ----------------------------------------
  Sum of atomic charges =     0.000000

 -----------------------------------------------------------------
                    Cartesian Multipole Moments
 -----------------------------------------------------------------
    Charge (ESU x 10^10)
                 0.0000
    Dipole Moment (Debye)
         X       0.0000      Y       0.0000      Z       0.0000
       Tot       0.0000
    Quadrupole Moments (Debye-Ang)
        XX     -10.1699     XY       0.0000     YY     -10.1699
        XZ       0.0000     YZ       0.0014     ZZ     -11.6660
    Octapole Moments (Debye-Ang^2)
       XXX       0.0000    XXY      -0.0051    XYY       0.0000
       YYY      -0.0153    XXZ      -5.6214    XYZ       0.0000
       YYZ      -5.6214    XZZ       0.0000    YZZ      -0.0043
       ZZZ     -19.3452
    Hexadecapole Moments (Debye-Ang^3)
      XXXX      -8.6478   XXXY       0.0000   XXYY      -2.8826
      XYYY       0.0000   YYYY      -8.6478   XXXZ       0.0000
      XXYZ       0.0002   XYYZ       0.0000   YYYZ       0.0007
      XXZZ      -9.2757   XYZZ       0.0000   YYZZ      -9.2757
      XZZZ       0.0000   YZZZ       0.0032   ZZZZ     -52.4287
 -----------------------------------------------------------------
 Calculating analytic gradient of the SCF energy
 Gradient of AOints
            1           2
    1   0.0000006  -0.0000006
    2  -0.0148751   0.0148751
    3  16.0389021 -16.0389021
 Gradient of XC Energy
            1           2
    1  -0.0000000   0.0000000
    2   0.0005806  -0.0005806
    3  -0.6263463   0.6263463
 Gradient of SCF Energy
            1           2
    1  -0.0000000   0.0000000
    2  -0.0000003   0.0000003
    3   0.0000473  -0.0000473
 Max gradient component =       4.732E-05
 RMS gradient           =       2.732E-05
 Gradient time:  CPU 3.99 s  wall 4.09 s
 Writing REM_CC_EA            2
 ----------------------------------------------------
       Standard Nuclear Orientation (Angstroms)
    I     Atom         X            Y            Z
 ----------------------------------------------------
    1      N       0.000000    -0.001000     0.013620
    2      N       0.000000     0.000000     1.091878
 ----------------------------------------------------
 Nuclear Repulsion Energy =    24.0477482503 hartrees
 There are        7 alpha and        7 beta electrons

                       Distance Matrix (Angstroms)
             N (  1)
   N (  2)  1.078258
 
 Requested basis set is G3large
 There are 20 shells and 84 basis functions
 A cutoff of  1.0D-11 yielded    207 shell pairs
 There are   3687 function pairs (  4845 Cartesian)
Evaluating contribution to one-electron hamiltonian from nuclear
 Smallest overlap matrix eigenvalue = 1.76E-04
 Multipole matrices computed through 2nd order
 Guess MOs from SCF MO coefficient file
Reading MOs from coefficient file
Reading MOs from coefficient file
 Long-range K will be added via erf
 Coulomb attenuation parameter = 0.56 bohr**(-1)
 A restricted Kohn-Sham SCF calculation will be
 performed using Pulay DIIS extrapolation
 Exchange:  wPBE + LR-HF      Correlation:  PBE
 Using SG-1 standard quadrature grid
 SCF converges when DIIS error is below 1.0E-08
 ---------------------------------------
  Cycle       Energy         DIIS Error
 ---------------------------------------
    1    -109.4783721372      1.43E-04
    2    -109.4783781170      1.27E-05
    3    -109.4783784720      4.87E-06
    4    -109.4783785234      1.50E-06
    5    -109.4783785391      3.23E-07
    6    -109.4783785363      4.47E-08
    7    -109.4783785380      3.64E-08
    8    -109.4783785381      3.32E-09 Convergence criterion met
 ---------------------------------------
 One-Electron    Energy =  -195.3927787334
 Total Coulomb   Energy =    75.5143520648
 Alpha Exchange  Energy =    -1.8601048397
 Beta  Exchange  Energy =    -1.8601048397
 DFT   Exchange  Energy =    -9.4738015056
 DFT Correlation Energy =    -0.4536889347
 Nuclear Repu.   Energy =    24.0477482503
 Nuclear Attr.   Energy =  -304.6485365231
 Kinetic         Energy =   109.2557577897
 SCF time:  CPU 7.69 s  wall 8.18 s
 Final Alpha MO Eigenvalues
            1           2           3           4           5           6
    1 -14.3850786 -14.3830289  -1.3436971  -0.7251997  -0.6351139  -0.6351139
            7           8           9          10          11          12
    1  -0.6027179   0.0932032   0.0932032   0.1369638   0.1402344   0.1588921
 Analysis of SCF Wavefunction
 
 --------------------------------------------------------------
                    Orbital Energies (a.u.)
 --------------------------------------------------------------
 
 Alpha MOs
 -- Occupied --
-14.385 -14.383  -1.344  -0.725  -0.635  -0.635  -0.603
 -- Virtual --
  0.093   0.093   0.137   0.140   0.159   0.159   0.215   0.244
  0.244   0.328   0.621   0.778   0.826   0.826   0.931   0.931
  0.945   0.945   1.013   1.025   1.246   1.246   1.307   1.399
  1.399   1.884   1.884   1.953   2.174   3.324   3.396   3.396
  3.424   3.424   3.754   3.754   3.781   3.781   3.787   3.787
  3.942   3.942   4.457   4.530   4.675   4.675   4.714   4.742
  4.742   4.789   4.789   4.955   4.955   5.269   5.269   6.090
  6.605   6.605   6.976  35.111  36.324  37.256  37.256  37.652
 37.652  38.155  38.601  40.367  40.426  40.476  40.528  40.528
 40.534  40.584  40.949  40.949  41.588
 --------------------------------------------------------------
 
          Ground-State Mulliken Net Atomic Charges

     Atom                 Charge (a.u.)
  ----------------------------------------
      1 N                     0.000000
      2 N                     0.000000
  ----------------------------------------
  Sum of atomic charges =     0.000000

 -----------------------------------------------------------------
                    Cartesian Multipole Moments
 -----------------------------------------------------------------
    Charge (ESU x 10^10)
                 0.0000
    Dipole Moment (Debye)
         X       0.0000      Y       0.0000      Z       0.0000
       Tot       0.0000
    Quadrupole Moments (Debye-Ang)
        XX     -10.1699     XY       0.0000     YY     -10.1699
        XZ       0.0000     YZ      -0.0014     ZZ     -11.6660
    Octapole Moments (Debye-Ang^2)
       XXX       0.0000    XXY       0.0051    XYY       0.0000
       YYY       0.0153    XXZ      -5.6214    XYZ       0.0000
       YYZ      -5.6214    XZZ       0.0000    YZZ       0.0043
       ZZZ     -19.3452
    Hexadecapole Moments (Debye-Ang^3)
      XXXX      -8.6478   XXXY       0.0000   XXYY      -2.8826
      XYYY       0.0000   YYYY      -8.6478   XXXZ       0.0000
      XXYZ      -0.0002   XYYZ       0.0000   YYYZ      -0.0007
      XXZZ      -9.2757   XYZZ       0.0000   YYZZ      -9.2757
      XZZZ       0.0000   YZZZ      -0.0032   ZZZZ     -52.4287
 -----------------------------------------------------------------
 Calculating analytic gradient of the SCF energy
 Gradient of AOints
            1           2
    1   0.0000000  -0.0000000
    2   0.0148752  -0.0148752
    3  16.0389021 -16.0389021
 Gradient of XC Energy
            1           2
    1  -0.0000000   0.0000000
    2  -0.0005807   0.0005807
    3  -0.6263463   0.6263463
 Gradient of SCF Energy
            1           2
    1  -0.0000000   0.0000000
    2   0.0000003  -0.0000003
    3   0.0000473  -0.0000473
 Max gradient component =       4.733E-05
 RMS gradient           =       2.732E-05
 Gradient time:  CPU 3.95 s  wall 4.05 s
 Writing REM_CC_EA            2
 ----------------------------------------------------
       Standard Nuclear Orientation (Angstroms)
    I     Atom         X            Y            Z
 ----------------------------------------------------
    1      N       0.000000     0.000000     0.014620
    2      N       0.000000     0.000000     1.091878
 ----------------------------------------------------
 Nuclear Repulsion Energy =    24.0700817153 hartrees
 There are        7 alpha and        7 beta electrons

                       Distance Matrix (Angstroms)
             N (  1)
   N (  2)  1.077258
 
 Requested basis set is G3large
 There are 20 shells and 84 basis functions
 A cutoff of  1.0D-11 yielded    207 shell pairs
 There are   3687 function pairs (  4845 Cartesian)
Evaluating contribution to one-electron hamiltonian from nuclear
 Smallest overlap matrix eigenvalue = 1.75E-04
 Multipole matrices computed through 2nd order
 Guess MOs from SCF MO coefficient file
Reading MOs from coefficient file
Reading MOs from coefficient file
 Long-range K will be added via erf
 Coulomb attenuation parameter = 0.56 bohr**(-1)
 A restricted Kohn-Sham SCF calculation will be
 performed using Pulay DIIS extrapolation
 Exchange:  wPBE + LR-HF      Correlation:  PBE
 Using SG-1 standard quadrature grid
 SCF converges when DIIS error is below 1.0E-08
 ---------------------------------------
  Cycle       Energy         DIIS Error
 ---------------------------------------
    1    -109.4788635017      1.46E-04
    2    -109.4783749686      1.53E-05
    3    -109.4783751808      5.91E-06
    4    -109.4783752056      1.38E-06
    5    -109.4783752025      4.54E-07
    6    -109.4783752277      9.98E-08
    7    -109.4783752190      1.13E-08
    8    -109.4783752197      1.28E-09 Convergence criterion met
 ---------------------------------------
 One-Electron    Energy =  -195.4358560308
 Total Coulomb   Energy =    75.5365671936
 Alpha Exchange  Energy =    -1.8602591568
 Beta  Exchange  Energy =    -1.8602591568
 DFT   Exchange  Energy =    -9.4749088401
 DFT Correlation Energy =    -0.4537409441
 Nuclear Repu.   Energy =    24.0700817153
 Nuclear Attr.   Energy =  -304.6982558449
 Kinetic         Energy =   109.2623998141
 SCF time:  CPU 7.73 s  wall 8.25 s
 Final Alpha MO Eigenvalues
            1           2           3           4           5           6
    1 -14.3847646 -14.3826978  -1.3442462  -0.7249111  -0.6354953  -0.6354953
            7           8           9          10          11          12
    1  -0.6027895   0.0936121   0.0936121   0.1369796   0.1402467   0.1588659
 Analysis of SCF Wavefunction
 
 --------------------------------------------------------------
                    Orbital Energies (a.u.)
 --------------------------------------------------------------
 
 Alpha MOs
 -- Occupied --
-14.385 -14.383  -1.344  -0.725  -0.635  -0.635  -0.603
 -- Virtual --
  0.094   0.094   0.137   0.140   0.159   0.159   0.215   0.244
  0.244   0.328   0.621   0.777   0.826   0.826   0.931   0.931
  0.945   0.945   1.013   1.027   1.247   1.247   1.308   1.400
  1.400   1.885   1.885   1.953   2.176   3.323   3.396   3.396
  3.423   3.423   3.753   3.753   3.783   3.783   3.787   3.787
  3.943   3.943   4.458   4.531   4.674   4.674   4.714   4.742
  4.742   4.789   4.789   4.957   4.957   5.270   5.270   6.091
  6.610   6.610   6.980  35.110  36.330  37.257  37.257  37.653
 37.653  38.154  38.605  40.368  40.426  40.477  40.528  40.528
 40.534  40.584  40.952  40.952  41.592
 --------------------------------------------------------------
 
          Ground-State Mulliken Net Atomic Charges

     Atom                 Charge (a.u.)
  ----------------------------------------
      1 N                     0.000000
      2 N                     0.000000
  ----------------------------------------
  Sum of atomic charges =     0.000000

 -----------------------------------------------------------------
                    Cartesian Multipole Moments
 -----------------------------------------------------------------
    Charge (ESU x 10^10)
                 0.0000
    Dipole Moment (Debye)
         X       0.0000      Y       0.0000      Z       0.0000
       Tot       0.0000
    Quadrupole Moments (Debye-Ang)
        XX     -10.1666     XY       0.0000     YY     -10.1666
        XZ       0.0000     YZ       0.0000     ZZ     -11.6657
    Octapole Moments (Debye-Ang^2)
       XXX       0.0000    XXY       0.0000    XYY       0.0000
       YYY       0.0000    XXZ      -5.6247    XYZ       0.0000
       YYZ      -5.6247    XZZ       0.0000    YZZ       0.0000
       ZZZ     -19.3622
    Hexadecapole Moments (Debye-Ang^3)
      XXXX      -8.6421   XXXY       0.0000   XXYY      -2.8807
      XYYY       0.0000   YYYY      -8.6421   XXXZ       0.0000
      XXYZ       0.0000   XYYZ       0.0000   YYYZ       0.0000
      XXZZ      -9.2737   XYZZ       0.0000   YYZZ      -9.2737
      XZZZ       0.0000   YZZZ       0.0000   ZZZZ     -52.4310
 -----------------------------------------------------------------
 Calculating analytic gradient of the SCF energy
 Gradient of AOints
            1           2
    1  -0.0000000   0.0000000
    2   0.0000001  -0.0000001
    3  16.0493402 -16.0493402
 Gradient of XC Energy
            1           2
    1   0.0000000  -0.0000000
    2  -0.0000000   0.0000000
    3  -0.6267947   0.6267947
 Gradient of SCF Energy
            1           2
    1   0.0000000  -0.0000000
    2   0.0000000  -0.0000000
    3   0.0034747  -0.0034747
 Max gradient component =       3.475E-03
 RMS gradient           =       2.006E-03
 Gradient time:  CPU 4.11 s  wall 4.21 s
 Writing REM_CC_EA            2
 ----------------------------------------------------
       Standard Nuclear Orientation (Angstroms)
    I     Atom         X            Y            Z
 ----------------------------------------------------
    1      N       0.000000     0.000000     0.012620
    2      N       0.000000     0.000000     1.091878
 ----------------------------------------------------
 Nuclear Repulsion Energy =    24.0254768365 hartrees
 There are        7 alpha and        7 beta electrons

                       Distance Matrix (Angstroms)
             N (  1)
   N (  2)  1.079258
 
 Requested basis set is G3large
 There are 20 shells and 84 basis functions
 A cutoff of  1.0D-11 yielded    207 shell pairs
[...]
 SCF time:  CPU 6.91 s  wall 7.78 s
 Final Alpha MO Eigenvalues
            1           2           3           4           5           6
    1 -14.3850786 -14.3830289  -1.3436971  -0.7251997  -0.6351139  -0.6351139
            7           8           9          10          11          12
    1  -0.6027179   0.0932032   0.0932032   0.1369638   0.1402344   0.1588921
 Analysis of SCF Wavefunction
 
 --------------------------------------------------------------
                    Orbital Energies (a.u.)
 --------------------------------------------------------------
 
 Alpha MOs
 -- Occupied --
-14.385 -14.383  -1.344  -0.725  -0.635  -0.635  -0.603
 -- Virtual --
  0.093   0.093   0.137   0.140   0.159   0.159   0.215   0.244
  0.244   0.328   0.621   0.778   0.826   0.826   0.931   0.931
  0.945   0.945   1.013   1.025   1.246   1.246   1.307   1.399
  1.399   1.884   1.884   1.953   2.174   3.324   3.396   3.396
  3.424   3.424   3.754   3.754   3.781   3.781   3.787   3.787
  3.942   3.942   4.457   4.530   4.675   4.675   4.714   4.742
  4.742   4.789   4.789   4.955   4.955   5.269   5.269   6.090
  6.605   6.605   6.976  35.111  36.324  37.256  37.256  37.652
 37.652  38.155  38.601  40.367  40.426  40.476  40.528  40.528
 40.534  40.584  40.949  40.949  41.588
 --------------------------------------------------------------
 
          Ground-State Mulliken Net Atomic Charges

     Atom                 Charge (a.u.)
  ----------------------------------------
      1 N                     0.000000
      2 N                     0.000000
  ----------------------------------------
  Sum of atomic charges =     0.000000

 -----------------------------------------------------------------
                    Cartesian Multipole Moments
 -----------------------------------------------------------------
    Charge (ESU x 10^10)
                 0.0000
    Dipole Moment (Debye)
         X       0.0000      Y       0.0000      Z       0.0000
       Tot       0.0000
    Quadrupole Moments (Debye-Ang)
        XX     -10.1699     XY       0.0000     YY     -10.1699
        XZ       0.0000     YZ       0.0014     ZZ     -11.6660
    Octapole Moments (Debye-Ang^2)
       XXX       0.0000    XXY       0.0051    XYY       0.0000
       YYY       0.0153    XXZ      -5.6214    XYZ       0.0000
       YYZ      -5.6214    XZZ       0.0000    YZZ       0.0074
       ZZZ     -19.3452
    Hexadecapole Moments (Debye-Ang^3)
      XXXX      -8.6478   XXXY       0.0000   XXYY      -2.8826
      XYYY       0.0000   YYYY      -8.6478   XXXZ       0.0000
      XXYZ       0.0059   XYYZ       0.0000   YYYZ       0.0176
      XXZZ      -9.2757   XYZZ       0.0000   YYZZ      -9.2757
      XZZZ       0.0000   YZZZ       0.0226   ZZZZ     -52.4287
 -----------------------------------------------------------------
 Calculating analytic gradient of the SCF energy
 Gradient of AOints
            1           2
    1  -0.0000000   0.0000000
    2  -0.0148748   0.0148748
    3  16.0389021 -16.0389021
 Gradient of XC Energy
            1           2
    1   0.0000000  -0.0000000
    2   0.0005806  -0.0005806
    3  -0.6263463   0.6263463
 Gradient of SCF Energy
            1           2
    1  -0.0000000   0.0000000
    2  -0.0000003   0.0000003
    3   0.0000473  -0.0000473
 Max gradient component =       4.733E-05
 RMS gradient           =       2.732E-05
 Gradient time:  CPU 4.26 s  wall 4.37 s
 Writing REM_CC_EA            2
 ----------------------------------------------------
       Standard Nuclear Orientation (Angstroms)
    I     Atom         X            Y            Z
 ----------------------------------------------------
    1      N       0.000000     0.000000     0.013620
    2      N       0.000000     0.000000     1.092878
 ----------------------------------------------------
 Nuclear Repulsion Energy =    24.0254768365 hartrees
 There are        7 alpha and        7 beta electrons

                       Distance Matrix (Angstroms)
             N (  1)
   N (  2)  1.079258
 
 Requested basis set is G3large
 There are 20 shells and 84 basis functions
 A cutoff of  1.0D-11 yielded    207 shell pairs
 There are   3687 function pairs (  4845 Cartesian)
Evaluating contribution to one-electron hamiltonian from nuclear
 Smallest overlap matrix eigenvalue = 1.77E-04
 Multipole matrices computed through 2nd order
 Guess MOs from SCF MO coefficient file
Reading MOs from coefficient file
Reading MOs from coefficient file
 Long-range K will be added via erf
 Coulomb attenuation parameter = 0.56 bohr**(-1)
 A restricted Kohn-Sham SCF calculation will be
 performed using Pulay DIIS extrapolation
 Exchange:  wPBE + LR-HF      Correlation:  PBE
 Using SG-1 standard quadrature grid
 SCF converges when DIIS error is below 1.0E-08
 ---------------------------------------
  Cycle       Energy         DIIS Error
 ---------------------------------------
    1    -109.4778861121      1.45E-04
    2    -109.4783751661      1.54E-05
    3    -109.4783753797      5.93E-06
    4    -109.4783754050      1.39E-06
    5    -109.4783754178      4.56E-07
    6    -109.4783753944      1.01E-07
    7    -109.4783754030      2.39E-08
    8    -109.4783754026      1.81E-08
    9    -109.4783754024      8.24E-10 Convergence criterion met
 ---------------------------------------
 One-Electron    Energy =  -195.3498100781
 Total Coulomb   Energy =    75.4921942048
 Alpha Exchange  Energy =    -1.8599506715
 Beta  Exchange  Energy =    -1.8599506715
 DFT   Exchange  Energy =    -9.4726980484
 DFT Correlation Energy =    -0.4536369743
 Nuclear Repu.   Energy =    24.0254768365
 Nuclear Attr.   Energy =  -304.5989597257
 Kinetic         Energy =   109.2491496475
 SCF time:  CPU 8.70 s  wall 9.22 s
 Final Alpha MO Eigenvalues
            1           2           3           4           5           6
    1 -14.3853919 -14.3833590  -1.3431484  -0.7254879  -0.6347335  -0.6347335
            7           8           9          10          11          12
    1  -0.6026463   0.0927946   0.0927946   0.1369480   0.1402221   0.1589182
 Analysis of SCF Wavefunction
 
 --------------------------------------------------------------
                    Orbital Energies (a.u.)
 --------------------------------------------------------------
 
 Alpha MOs
 -- Occupied --
-14.385 -14.383  -1.343  -0.725  -0.635  -0.635  -0.603
 -- Virtual --
  0.093   0.093   0.137   0.140   0.159   0.159   0.215   0.244
  0.244   0.328   0.620   0.778   0.826   0.826   0.931   0.931
  0.945   0.945   1.013   1.024   1.246   1.246   1.307   1.399
  1.399   1.884   1.884   1.954   2.173   3.325   3.395   3.395
  3.424   3.424   3.754   3.754   3.780   3.780   3.787   3.787
  3.941   3.941   4.456   4.528   4.676   4.676   4.714   4.741
  4.741   4.789   4.789   4.954   4.954   5.269   5.269   6.089
  6.599   6.599   6.972  35.112  36.318  37.255  37.255  37.651
 37.651  38.157  38.596  40.366  40.426  40.476  40.528  40.528
 40.534  40.584  40.945  40.945  41.584
 --------------------------------------------------------------
 
          Ground-State Mulliken Net Atomic Charges

     Atom                 Charge (a.u.)
  ----------------------------------------
      1 N                     0.000000
      2 N                     0.000000
  ----------------------------------------
  Sum of atomic charges =     0.000000

 -----------------------------------------------------------------
                    Cartesian Multipole Moments
 -----------------------------------------------------------------
    Charge (ESU x 10^10)
                 0.0000
    Dipole Moment (Debye)
         X       0.0000      Y       0.0000      Z       0.0000
       Tot       0.0000
    Quadrupole Moments (Debye-Ang)
        XX     -10.1732     XY       0.0000     YY     -10.1732
        XZ       0.0000     YZ       0.0000     ZZ     -11.6663
    Octapole Moments (Debye-Ang^2)
       XXX       0.0000    XXY       0.0000    XYY       0.0000
       YYY       0.0000    XXZ      -5.6283    XYZ       0.0000
       YYZ      -5.6283    XZZ       0.0000    YZZ       0.0000
       ZZZ     -19.3632
    Hexadecapole Moments (Debye-Ang^3)
      XXXX      -8.6534   XXXY       0.0000   XXYY      -2.8844
      XYYY       0.0000   YYYY      -8.6534   XXXZ       0.0000
      XXYZ       0.0000   XYYZ       0.0000   YYYZ       0.0000
      XXZZ      -9.2890   XYZZ       0.0000   YYZZ      -9.2890
      XZZZ       0.0000   YZZZ       0.0000   ZZZZ     -52.5038
 -----------------------------------------------------------------
 Calculating analytic gradient of the SCF energy
 Gradient of AOints
            1           2
    1  -0.0000000   0.0000000
    2  -0.0000000   0.0000000
    3  16.0284477 -16.0284477
 Gradient of XC Energy
            1           2
    1   0.0000000  -0.0000000
    2   0.0000000  -0.0000000
    3  -0.6258965   0.6258965
 Gradient of SCF Energy
            1           2
    1   0.0000000  -0.0000000
    2  -0.0000000   0.0000000
    3  -0.0033542   0.0033542
 Max gradient component =       3.354E-03
 RMS gradient           =       1.937E-03
 Gradient time:  CPU 4.23 s  wall 4.33 s
 Writing REM_CC_EA            2
 ----------------------------------------------------
       Standard Nuclear Orientation (Angstroms)
    I     Atom         X            Y            Z
 ----------------------------------------------------
    1      N       0.000000     0.000000     0.013620
    2      N       0.000000     0.000000     1.090878
 ----------------------------------------------------
 Nuclear Repulsion Energy =    24.0700817153 hartrees
 There are        7 alpha and        7 beta electrons

                       Distance Matrix (Angstroms)
             N (  1)
   N (  2)  1.077258
 
 Requested basis set is G3large
 There are 20 shells and 84 basis functions
 A cutoff of  1.0D-11 yielded    207 shell pairs
 There are   3687 function pairs (  4845 Cartesian)
Evaluating contribution to one-electron hamiltonian from nuclear
 Smallest overlap matrix eigenvalue = 1.75E-04
 Multipole matrices computed through 2nd order
 Guess MOs from SCF MO coefficient file
Reading MOs from coefficient file
Reading MOs from coefficient file
 Long-range K will be added via erf
 Coulomb attenuation parameter = 0.56 bohr**(-1)
 A restricted Kohn-Sham SCF calculation will be
 performed using Pulay DIIS extrapolation
 Exchange:  wPBE + LR-HF      Correlation:  PBE
 Using SG-1 standard quadrature grid
 SCF converges when DIIS error is below 1.0E-08
 ---------------------------------------
  Cycle       Energy         DIIS Error
 ---------------------------------------
    1    -109.4793646512      2.53E-04
    2    -109.4783746320      2.79E-05
    3    -109.4783751587      1.06E-05
    4    -109.4783752105      8.96E-07
    5    -109.4783752285      2.24E-07
    6    -109.4783752132      2.64E-08
    7    -109.4783752127      3.18E-09 Convergence criterion met
 ---------------------------------------
 One-Electron    Energy =  -195.4358564073
 Total Coulomb   Energy =    75.5365676324
 Alpha Exchange  Energy =    -1.8602591640
 Beta  Exchange  Energy =    -1.8602591640
 DFT   Exchange  Energy =    -9.4749088786
 DFT Correlation Energy =    -0.4537409464
 Nuclear Repu.   Energy =    24.0700817153
 Nuclear Attr.   Energy =  -304.6982566073
 Kinetic         Energy =   109.2624002000
 SCF time:  CPU 6.76 s  wall 7.58 s
 Final Alpha MO Eigenvalues
            1           2           3           4           5           6
    1 -14.3847645 -14.3826978  -1.3442462  -0.7249111  -0.6354953  -0.6354953
            7           8           9          10          11          12
    1  -0.6027895   0.0936121   0.0936121   0.1369796   0.1402467   0.1588659
 Analysis of SCF Wavefunction
 
 --------------------------------------------------------------
                    Orbital Energies (a.u.)
 --------------------------------------------------------------
 
 Alpha MOs
 -- Occupied --
-14.385 -14.383  -1.344  -0.725  -0.635  -0.635  -0.603
 -- Virtual --
  0.094   0.094   0.137   0.140   0.159   0.159   0.215   0.244
  0.244   0.328   0.621   0.777   0.826   0.826   0.931   0.931
  0.945   0.945   1.013   1.027   1.247   1.247   1.308   1.400
  1.400   1.885   1.885   1.953   2.176   3.323   3.396   3.396
  3.423   3.423   3.753   3.753   3.783   3.783   3.787   3.787
  3.943   3.943   4.458   4.531   4.674   4.674   4.714   4.742
  4.742   4.789   4.789   4.957   4.957   5.270   5.270   6.091
  6.610   6.610   6.980  35.110  36.330  37.257  37.257  37.653
 37.653  38.154  38.605  40.368  40.426  40.477  40.528  40.528
 40.534  40.584  40.952  40.952  41.592
 --------------------------------------------------------------
 
          Ground-State Mulliken Net Atomic Charges

     Atom                 Charge (a.u.)
  ----------------------------------------
      1 N                     0.000000
      2 N                     0.000000
  ----------------------------------------
  Sum of atomic charges =     0.000000

 -----------------------------------------------------------------
                    Cartesian Multipole Moments
 -----------------------------------------------------------------
    Charge (ESU x 10^10)
                 0.0000
    Dipole Moment (Debye)
         X       0.0000      Y       0.0000      Z       0.0000
       Tot       0.0000
    Quadrupole Moments (Debye-Ang)
        XX     -10.1666     XY       0.0000     YY     -10.1666
        XZ       0.0000     YZ       0.0000     ZZ     -11.6657
    Octapole Moments (Debye-Ang^2)
       XXX       0.0000    XXY       0.0000    XYY       0.0000
       YYY       0.0000    XXZ      -5.6145    XYZ       0.0000
       YYZ      -5.6145    XZZ       0.0000    YZZ       0.0000
       ZZZ     -19.3272
    Hexadecapole Moments (Debye-Ang^3)
      XXXX      -8.6421   XXXY       0.0000   XXYY      -2.8807
      XYYY       0.0000   YYYY      -8.6421   XXXZ       0.0000
      XXYZ       0.0000   XYYZ       0.0000   YYYZ       0.0000
      XXZZ      -9.2625   XYZZ       0.0000   YYZZ      -9.2625
      XZZZ       0.0000   YZZZ       0.0000   ZZZZ     -52.3536
 -----------------------------------------------------------------
 Calculating analytic gradient of the SCF energy
 Gradient of AOints
            1           2
    1  -0.0000000   0.0000000
    2  -0.0000000   0.0000000
    3  16.0493398 -16.0493398
 Gradient of XC Energy
            1           2
    1   0.0000000  -0.0000000
    2   0.0000000  -0.0000000
    3  -0.6267946   0.6267946
 Gradient of SCF Energy
            1           2
    1   0.0000000  -0.0000000
    2  -0.0000000   0.0000000
    3   0.0034747  -0.0034747
 Max gradient component =       3.475E-03
 RMS gradient           =       2.006E-03
 Gradient time:  CPU 4.23 s  wall 4.36 s
Dipole drv :
gprntSymmMtrx error report: 
 Final Hessian.
            1           2           3           4           5           6
    1  -0.0001590  -0.0000004   0.0000000   0.0001590   0.0000001   0.0000000
    2  -0.0000004  -0.0001593  -0.0000012   0.0000004   0.0001594   0.0000013
    3   0.0000000  -0.0000012   1.8068378  -0.0000010  -0.0000002  -1.8068375
    4   0.0001590   0.0000004  -0.0000010  -0.0001590  -0.0000001   0.0000000
    5   0.0000001   0.0001594  -0.0000002  -0.0000001  -0.0001594   0.0000001
    6   0.0000000   0.0000013  -1.8068375   0.0000000   0.0000001   1.8068371
 Writing REM_CC_EA            2
 ----------------------------------------------------
       Standard Nuclear Orientation (Angstroms)
    I     Atom         X            Y            Z
 ----------------------------------------------------
    1      N       0.000000     0.000000     0.013620
    2      N       0.000000     0.000000     1.091878
 ----------------------------------------------------
 Nuclear Repulsion Energy =    24.0477585921 hartrees
 There are        7 alpha and        7 beta electrons
 old dipole drv.
            1           2           3           4           5           6
    1   0.0000002  -0.0000000  -0.0000001  -0.0000002   0.0000000  -0.0000002
    2  -0.0000004   0.0000002  -0.0000001   0.0000002   0.0000001  -0.0000005
    3   0.0000120  -0.0000532  -0.0001089  -0.0000172   0.0000409   0.0000042
 New transposed dipole drv.
            1           2           3
    1   0.0000002  -0.0000004   0.0000120
    2  -0.0000000   0.0000002  -0.0000532
    3  -0.0000001  -0.0000001  -0.0001089
    4  -0.0000002   0.0000002  -0.0000172
    5   0.0000000   0.0000001   0.0000409
    6  -0.0000002  -0.0000005   0.0000042
FINAL TENSOR RESULT:
Order 2, Length 6
Order 1, Length 6
  -0.0001590  -0.0000004   0.0000000   0.0001590   0.0000001   0.0000000
Order 1, Length 6
  -0.0000004  -0.0001593  -0.0000012   0.0000004   0.0001594   0.0000013
Order 1, Length 6
   0.0000000  -0.0000012   1.8068378  -0.0000010  -0.0000002  -1.8068375
Order 1, Length 6
   0.0001590   0.0000004  -0.0000010  -0.0001590  -0.0000001   0.0000000
Order 1, Length 6
   0.0000001   0.0001594  -0.0000002  -0.0000001  -0.0001594   0.0000001
Order 1, Length 6
   0.0000000   0.0000013  -1.8068375   0.0000000   0.0000001   1.8068371


 # Finishing finite difference calculation for IDERIV #
 ######################################################
 ######################################################
 Requested basis set is G3large
 There are 20 shells and 84 basis functions
 **********************************************************************
 **                                                                  **
 **                       VIBRATIONAL ANALYSIS                       **
 **                       --------------------                       **
 **                                                                  **
 **        VIBRATIONAL FREQUENCIES (CM**-1) AND NORMAL MODES         **
 **     FORCE CONSTANTS (mDYN/ANGSTROM) AND REDUCED MASSES (AMU)     **
 **                  INFRARED INTENSITIES (KM/MOL)                   **
 **                                                                  **
 **********************************************************************
 

 Mode:                 1
 Frequency:      2611.37
 Force Cnst:     56.2614
 Red. Mass:      14.0031
 IR Active:          YES
 IR Intens:        0.000
 Raman Active:       YES
               X      Y      Z
 N          0.000  0.000  0.707
 N          0.000  0.000 -0.707
 TransDip   0.000  0.000  0.000

 STANDARD THERMODYNAMIC QUANTITIES AT   298.18 K  AND     1.00 ATM

   This Molecule has  0 Imaginary Frequencies
   Zero point vibrational energy:        3.733 kcal/mol

   Atom    1 Element N  Has Mass   14.00307
   Atom    2 Element N  Has Mass   14.00307
   Molecular Mass:    28.006140 amu
   Principal axes and moments of inertia in atomic units:
                             1           2           3
    Eigenvalues --        0.00000    29.06941    29.06941
          X               0.00000     0.00000     1.00000
          Y               0.00000     1.00000     0.00000
          Z               1.00000     0.00000     0.00000
   Rotational Symmetry Number is   1
   The Molecule is a Symmetric Top
   Translational Enthalpy:        0.889 kcal/mol
   Rotational Enthalpy:           0.889 kcal/mol
   Vibrational Enthalpy:          3.733 kcal/mol
   gas constant (RT):             0.593 kcal/mol
   Translational Entropy:        35.925  cal/mol.K
   Rotational Entropy:          -42.776  cal/mol.K
   Vibrational Entropy:           0.000  cal/mol.K

   Total Enthalpy:                6.103 kcal/mol
   Total Entropy:                -6.851  cal/mol.K
 Total job time:  154.09s(wall), 144.01s(cpu) 
 Wed May  1 12:19:52 2013

        *************************************************************
        *                                                           *
        *  Thank you very much for using Q-Chem.  Have a nice day.  *
        *                                                           *
        *************************************************************


0 sent ACK to 0 
now end server 0 ... 
