Process 0 of 1 is on cl153.stfx.acenet.ca - thread support 1
initial socket setup ...start
initial socket setup ...done 
now start server 0 ... 

cmd = /usr/bin/ssh clhead /usr/local/qchem/bin/get_hostid 1866680296 > /globalscratch/itamblyn/bnl/g297_b3lyp_neut_g03Large_worked/g2g71070/omega300/qchem18383/lic.dat
                  Welcome to Q-Chem
     A Quantum Leap Into The Future Of Chemistry

 Y. Shao, L. Fusti-Molnar, Y. Jung, J. Kussmann, C. Ochsenfeld,
 S. T. Brown, A. T. B. Gilbert, L. V. Slipchenko,S. V. Levchenko,
 D. P. O'Neill, R. A. DiStasio Jr., R. C. Lochan, T. Wang,
 G. J. O. Beran, N. A. Besley, J. M. Herbert, C. Y. Lin,
 T. Van Voorhis, S. H. Chien, A. Sodt, R. P. Steele, 
 V. A. Rassolov, P. E. Maslen, P. P. Korambath, R. D. Adamson,
 B. Austin, J. Baker, E. F. C. Byrd, H. Dachsel, R. J. Doerksen,
 A. Dreuw, B. D. Dunietz, A. D. Dutoi, T. R. Furlani,
 S. R. Gwaltney, A. Heyden, S. Hirata, C.-P. Hsu, G. Kedziora,
 R. Z. Khaliullin, P. Klunzinger, A. M. Lee, M. S. Lee, W. Liang,
 I. Lotan, N. Nair, B. Peters, E. I. Proynov, P. A. Pieniazek, 
 Y. M. Rhee, J. Ritchie, E. Rosta, C. D. Sherrill, 
 A. C. Simmonett, J. E. Subotnik, H. L. Woodcock III,
 W. Zhang, A. T. Bell, A. K. Chakraborty, D. M. Chipman,
 F. J. Keil, A. Warshel, W. J. Hehre, H. F. Schaefer III,
 J. Kong, A. I. Krylov, P. M. W. Gill, M. Head-Gordon,
 Q-Chem, Version 3.1, Q-Chem, Inc., Pittsburgh, PA (2007).

 Additional authors for Version 3.1: 
 Z. Gan, Y. Zhao, N. E. Schultz, D. Truhlar, E. Epifanovsky and M. Oana.

 Additional authors for Version 3.2: 
 R. Baer, B. R. Brooks, D. Casanova, J.-D. Chai, C.-L. Cheng, 
 C. Cramer, D. Crittenden, A. Ghysels, G. Hawkins, E. G. Hohenstein, 
 C. Kelley, W. Kurlancheek, D. Liotard, E. Livshits, P. Manohar, 
 A. Marenich, D. Neuhauser, R. Olson, M. A. Rohrdanz, K. S. Thanthiriwatte, 
 A. J. W. Thom, V. Vanovschi, C. F. Williams, Q. Wu and Z.-Q. You. 


 Intel X86 Linux Version

 Q-chem begins on Tue Apr 12 22:16:15 2011  

 Parallel job on  1  processors
Processing $rem in /usr/local/qchem/config/preferences.

theFileMan(): MAXOPENFILES=974 MAX_SUB_FILE_NUM=16
Maximum size of a physical file is 2.0 GB, maximum size of a tmp-file is 32.0 GB


--------------------------------------------------------------
User input:
--------------------------------------------------------------

$molecule
-1,2
F
O,1,r1
X,2,1.,1,90.
F,2,r1,3,a,1,180.,0

 r1=1.40891796
 a=166.07508234

$end

$comment
negative
$end

$xc_functional
   X HF 1.0
   X BNL 1.0
   C LYP 1.0
$end

$rem
SYMMETRY_DECOMPOSITION	0
exchange 		general
BASIS                   g3large
omega			300
separate_jk		true
mem_static              760
max_scf_cycles          200
scf_final_print         1
sym_ignore              true
$end

--------------------------------------------------------------
 Writing REM_CC_EA            3
 ----------------------------------------------------
       Standard Nuclear Orientation (Angstroms)
    I     Atom         X            Y            Z
 ----------------------------------------------------
    1      F       0.000000     0.000000     0.000000
    2      O       0.000000     0.000000     1.408918
    3      F      -1.367513     0.000000     1.747974
 ----------------------------------------------------
 Nuclear Repulsion Energy =    73.3986260111 hartrees
 There are       14 alpha and       13 beta electrons
 Requested basis set is G3large
 There are 30 shells and 126 basis functions

Total QAlloc Memory Limit   2000 MB
Mega-Array Size       743 MB
MEM_STATIC part       760 MB

                       Distance Matrix (Angstroms)
             F (  1)   O (  2)
   O (  2)  1.408918
   F (  3)  2.219348  1.408918
 
 A cutoff of  1.0D-08 yielded    420 shell pairs
 There are   7635 function pairs ( 10005 Cartesian)
Evaluating contribution to one-electron hamiltonian from nuclear
 Smallest overlap matrix eigenvalue = 2.64E-03
 Multipole matrices computed through 2nd order

  Scale SEOQF with 1.000000e-01/1.000000e+00/1.000000e-01

 Standard Electronic Orientation quadrupole field applied
 Nucleus-field energy     =    -0.0000000040 hartrees
 Guess from superposition of atomic densities
 Warning:  Energy on first SCF cycle will be non-variational
 An unrestricted hybrid HF-DFT SCF calculation will be
 performed using Pulay DIIS extrapolation
 Exchange:     1.0000 Hartree-Fock + 1.0000 BNL
 Correlation:  1.0000 LYP
 Using SG-1 standard quadrature grid
 SCF converges when DIIS error is below 1.0E-05
 Warning!  Inaccurate integrated density:
   Number of electrons =    27
   Numerical integral  =    26.000004176689
   Relative error      =    -3.7036882345 %
 ---------------------------------------
  Cycle       Energy         DIIS Error
 ---------------------------------------
    1    -272.5152271318      3.08E-02
    2    -272.2828379131      6.46E-03
    3    -272.2998180619      6.88E-03
    4    -272.3483783418      1.59E-03
    5    -272.3515689769      5.12E-04
    6    -272.3525914367      2.83E-04
    7    -272.3534640361      1.64E-04
    8    -272.3542843936      1.71E-04
    9    -272.3542674978      1.71E-04
   10    -272.3553655830      1.70E-04
   11    -272.3560001746      1.71E-04
   12    -272.3508813070      2.44E-04
   13    -272.3497339174      3.22E-04
   14    -272.3495910601      4.59E-04
   15    -272.3491876659      4.49E-04
   16    -272.3487847742      3.62E-04
   17    -272.3479589531      2.10E-04
   18    -272.3479315715      1.75E-04
   19    -272.3477191656      2.53E-04
   20    -272.3477120661      2.56E-04
   21    -272.3477108837      2.56E-04
   22    -272.3477112830      2.56E-04
   23    -272.3477791015      2.22E-04
   24    -272.3478326920      8.09E-05
   25    -272.3478521269      3.97E-05
   26    -272.3478653576      2.88E-05
   27    -272.3478807493      3.12E-05
   28    -272.3478369198      2.92E-05
   29    -272.3478079744      2.24E-05
   30    -272.3477488484      1.20E-05
   31    -272.3477454802      3.87E-06 Convergence criterion met
 ---------------------------------------
 One-Electron    Energy =  -535.3919300724
 Total Coulomb   Energy =   216.8018164228
 Alpha Exchange  Energy =    -2.2372880941
 Beta  Exchange  Energy =    -2.0826433889
 DFT   Exchange  Energy =   -21.8331237146
 DFT Correlation Energy =    -1.0032026401
 Nuclear Repu.   Energy =    73.3986260071
 Nuclear Attr.   Energy =  -808.0131401352
 Kinetic         Energy =   272.6212100628
 <S^2> = 0.7536
 SCF time:  CPU 82.08 s  wall 125.49 s
 Final Alpha MO Eigenvalues
            1           2           3           4           5           6
    1 -23.9672142 -23.9671804 -18.5577074  -1.0733735  -0.9700346  -0.6905537
            7           8           9          10          11          12
    1  -0.4083125  -0.3519203  -0.3239670  -0.2441477  -0.2358779  -0.2259655
           13          14          15          16          17          18
    1  -0.0987061   0.0636043   0.2778859   0.3494984   0.3906287   0.4035039
           19
    1   0.4162463
 Final Beta MO Eigenvalues
            1           2           3           4           5           6
    1 -23.9596714 -23.9596457 -18.5382946  -1.0556671  -0.9550471  -0.6670965
            7           8           9          10          11          12
    1  -0.3688431  -0.3372480  -0.3135870  -0.2364626  -0.2188884  -0.2085234
           13          14          15          16          17          18
    1  -0.0816531   0.2963854   0.3302115   0.3503086   0.4076241   0.4165961
 Analysis of SCF Wavefunction
 
 --------------------------------------------------------------
                    Orbital Energies (a.u.)
 --------------------------------------------------------------
 
 Alpha MOs
 -- Occupied --
-23.967 -23.967 -18.558  -1.073  -0.970  -0.691  -0.408  -0.352
 -0.324  -0.244  -0.236  -0.226  -0.099   0.064
 -- Virtual --
  0.278   0.349   0.391   0.404   0.416   0.475   0.502   0.512
  0.512   0.517   0.578   0.673   0.731   1.294   1.299   1.310
  1.450   1.543   1.558   1.590   1.596   1.677   1.715   1.757
  1.760   1.777   2.089   2.219   2.254   2.298   2.325   2.342
  2.405   2.408   2.511   2.731   2.766   2.998   3.299   3.312
  5.026   5.144   5.219   5.241   5.246   5.259   5.288   5.336
  5.363   5.375   6.364   6.414   6.428   6.491   6.587   6.666
  6.843   6.860   6.882   6.925   6.939   6.940   6.940   6.944
  6.944   7.001   7.081   7.339   7.389   7.457   7.586   7.608
  7.614   8.253   8.466   9.320   9.324   9.329   9.345   9.559
  9.596   9.616   9.711  10.228  10.284  43.882  43.888  43.898
 43.935  44.016  45.806  46.032  46.263  50.078  50.216  50.223
 50.278  50.279  50.333  50.350  50.368  50.385  50.544  50.559
 55.848  55.876  55.880  55.931  56.099  56.210  67.097  67.125
 
 Beta MOs
 -- Occupied --
-23.960 -23.960 -18.538  -1.056  -0.955  -0.667  -0.369  -0.337
 -0.314  -0.236  -0.219  -0.209  -0.082
 -- Virtual --
  0.296   0.330   0.350   0.408   0.417   0.435   0.475   0.501
  0.511   0.511   0.518   0.577   0.672   0.730   1.304   1.320
  1.322   1.456   1.555   1.565   1.598   1.600   1.691   1.719
  1.766   1.771   1.786   2.105   2.226   2.271   2.305   2.330
  2.344   2.413   2.424   2.517   2.747   2.772   3.012   3.323
  3.326   5.050   5.160   5.255   5.272   5.275   5.278   5.311
  5.348   5.396   5.399   6.373   6.422   6.436   6.502   6.610
  6.687   6.870   6.874   6.915   6.936   6.945   6.945   6.946
  6.949   6.954   7.029   7.096   7.363   7.422   7.474   7.623
  7.635   7.643   8.288   8.500   9.330   9.336   9.339   9.356
  9.579   9.614   9.633   9.730  10.249  10.306  43.902  43.905
 43.949  43.993  44.066  45.819  46.045  46.301  50.103  50.224
 50.231  50.286  50.287  50.350  50.366  50.383  50.403  50.562
 50.577  55.855  55.882  55.886  55.938  56.112  56.222  67.106
 67.135
 --------------------------------------------------------------
 
          Ground-State Mulliken Net Atomic Charges

     Atom                 Charge (a.u.)    Spin (a.u.)
  --------------------------------------------------------
      1 F                    -0.113704       0.069392
      2 O                    -0.772362       0.861190
      3 F                    -0.113934       0.069417
  --------------------------------------------------------
  Sum of atomic charges =    -1.000000
  Sum of spin   charges =     1.000000

 -----------------------------------------------------------------
                    Cartesian Multipole Moments
 -----------------------------------------------------------------
    Charge (ESU x 10^10)
                -4.8032
    Dipole Moment (Debye)
         X       2.0593      Y      -0.0001      Z      -5.1568
       Tot       5.5527
    Quadrupole Moments (Debye-Ang)
        XX     -22.6856     XY       0.0001     YY     -18.4393
        XZ       4.0522     YZ      -0.0001     ZZ     -28.2539
    Octapole Moments (Debye-Ang^2)
       XXX      31.0164    XXY      -0.0001    XYY       7.7562
       YYY      -0.0001    XXZ     -27.1404    XYZ       0.0001
       YYZ     -19.9118    XZZ      15.9255    YZZ      -0.0003
       ZZZ     -75.9794
    Hexadecapole Moments (Debye-Ang^3)
      XXXX     -99.5279   XXXY       0.0003   XXYY     -17.7793
      XYYY       0.0001   YYYY     -17.3798   XXXZ      54.8445
      XXYZ      -0.0002   XYYZ      13.9865   YYYZ      -0.0002
      XXZZ     -62.4983   XYZZ       0.0002   YYZZ     -38.8027
      XZZZ      57.1318   YZZZ      -0.0007   ZZZZ    -239.5764
 -----------------------------------------------------------------
 Total job time:  126.70s(wall), 82.20s(cpu) 
 Tue Apr 12 22:18:21 2011

        *************************************************************
        *                                                           *
        *  Thank you very much for using Q-Chem.  Have a nice day.  *
        *                                                           *
        *************************************************************


0 sent ACK to 0 
now end server 0 ... 
 
**********************************************************************
Job 2 of 3 
**********************************************************************
 
Process 0 of 1 is on cl153.stfx.acenet.ca - thread support 1
initial socket setup ...start
initial socket setup ...done 
now start server 0 ... 

cmd = /usr/bin/ssh clhead /usr/local/qchem/bin/get_hostid 1142112188 > /globalscratch/itamblyn/bnl/g297_b3lyp_neut_g03Large_worked/g2g71070/omega300/qchem18383/lic.dat
                  Welcome to Q-Chem
     A Quantum Leap Into The Future Of Chemistry

 Y. Shao, L. Fusti-Molnar, Y. Jung, J. Kussmann, C. Ochsenfeld,
 S. T. Brown, A. T. B. Gilbert, L. V. Slipchenko,S. V. Levchenko,
 D. P. O'Neill, R. A. DiStasio Jr., R. C. Lochan, T. Wang,
 G. J. O. Beran, N. A. Besley, J. M. Herbert, C. Y. Lin,
 T. Van Voorhis, S. H. Chien, A. Sodt, R. P. Steele, 
 V. A. Rassolov, P. E. Maslen, P. P. Korambath, R. D. Adamson,
 B. Austin, J. Baker, E. F. C. Byrd, H. Dachsel, R. J. Doerksen,
 A. Dreuw, B. D. Dunietz, A. D. Dutoi, T. R. Furlani,
 S. R. Gwaltney, A. Heyden, S. Hirata, C.-P. Hsu, G. Kedziora,
 R. Z. Khaliullin, P. Klunzinger, A. M. Lee, M. S. Lee, W. Liang,
 I. Lotan, N. Nair, B. Peters, E. I. Proynov, P. A. Pieniazek, 
 Y. M. Rhee, J. Ritchie, E. Rosta, C. D. Sherrill, 
 A. C. Simmonett, J. E. Subotnik, H. L. Woodcock III,
 W. Zhang, A. T. Bell, A. K. Chakraborty, D. M. Chipman,
 F. J. Keil, A. Warshel, W. J. Hehre, H. F. Schaefer III,
 J. Kong, A. I. Krylov, P. M. W. Gill, M. Head-Gordon,
 Q-Chem, Version 3.1, Q-Chem, Inc., Pittsburgh, PA (2007).

 Additional authors for Version 3.1: 
 Z. Gan, Y. Zhao, N. E. Schultz, D. Truhlar, E. Epifanovsky and M. Oana.

 Additional authors for Version 3.2: 
 R. Baer, B. R. Brooks, D. Casanova, J.-D. Chai, C.-L. Cheng, 
 C. Cramer, D. Crittenden, A. Ghysels, G. Hawkins, E. G. Hohenstein, 
 C. Kelley, W. Kurlancheek, D. Liotard, E. Livshits, P. Manohar, 
 A. Marenich, D. Neuhauser, R. Olson, M. A. Rohrdanz, K. S. Thanthiriwatte, 
 A. J. W. Thom, V. Vanovschi, C. F. Williams, Q. Wu and Z.-Q. You. 


 Intel X86 Linux Version

 Q-chem begins on Tue Apr 12 22:18:24 2011  

 Parallel job on  1  processors
Processing $rem in /usr/local/qchem/config/preferences.

theFileMan(): MAXOPENFILES=974 MAX_SUB_FILE_NUM=16
Maximum size of a physical file is 2.0 GB, maximum size of a tmp-file is 32.0 GB


--------------------------------------------------------------
User input:
--------------------------------------------------------------

$molecule
0,1
F
O,1,r1
X,2,1.,1,90.
F,2,r1,3,a,1,180.,0

 r1=1.40891796
 a=166.07508234

$end

$comment
neutral
$end

$xc_functional
   X HF 1.0
   X BNL 1.0
   C LYP 1.0
$end

$rem
SYMMETRY_DECOMPOSITION	0
exchange 		general
BASIS                   g3large
omega			300
separate_jk		true
mem_static              760
max_scf_cycles          200
scf_final_print         1
sym_ignore              true
$end

--------------------------------------------------------------
 Writing REM_CC_EA            3
 ----------------------------------------------------
       Standard Nuclear Orientation (Angstroms)
    I     Atom         X            Y            Z
 ----------------------------------------------------
    1      F       0.000000     0.000000     0.000000
    2      O       0.000000     0.000000     1.408918
    3      F      -1.367513     0.000000     1.747974
 ----------------------------------------------------
 Nuclear Repulsion Energy =    73.3986260111 hartrees
 There are       13 alpha and       13 beta electrons
 Requested basis set is G3large
 There are 30 shells and 126 basis functions

Total QAlloc Memory Limit   2000 MB
Mega-Array Size       743 MB
MEM_STATIC part       760 MB

                       Distance Matrix (Angstroms)
             F (  1)   O (  2)
   O (  2)  1.408918
   F (  3)  2.219348  1.408918
 
 A cutoff of  1.0D-08 yielded    420 shell pairs
 There are   7635 function pairs ( 10005 Cartesian)
Evaluating contribution to one-electron hamiltonian from nuclear
 Smallest overlap matrix eigenvalue = 2.64E-03
 Multipole matrices computed through 2nd order

  Scale SEOQF with 1.000000e-01/1.000000e+00/1.000000e-01

 Standard Electronic Orientation quadrupole field applied
 Nucleus-field energy     =    -0.0000000040 hartrees
 Guess from superposition of atomic densities
 Warning:  Energy on first SCF cycle will be non-variational
 A restricted hybrid HF-DFT SCF calculation will be
 performed using Pulay DIIS extrapolation
 Exchange:     1.0000 Hartree-Fock + 1.0000 BNL
 Correlation:  1.0000 LYP
 Using SG-1 standard quadrature grid
 SCF converges when DIIS error is below 1.0E-05
 ---------------------------------------
  Cycle       Energy         DIIS Error
 ---------------------------------------
    1    -272.5152271318      3.08E-02
    2    -272.2928668089      8.04E-03
    3    -272.2528557786      1.05E-02
    4    -272.3706893367      2.63E-03
    5    -272.3780654477      4.95E-04
    6    -272.3784499493      1.61E-04
    7    -272.3785213234      1.04E-04
    8    -272.3785448122      4.26E-05
    9    -272.3785537571      8.85E-06 Convergence criterion met
 ---------------------------------------
 One-Electron    Energy =  -526.5608989131
 Total Coulomb   Energy =   207.5314823991
 Alpha Exchange  Energy =    -2.0913320141
 Beta  Exchange  Energy =    -2.0913320141
 DFT   Exchange  Energy =   -21.5933431986
 DFT Correlation Energy =    -0.9717560234
 Nuclear Repu.   Energy =    73.3986260071
 Nuclear Attr.   Energy =  -798.2644900377
 Kinetic         Energy =   271.7035911247
 SCF time:  CPU 20.33 s  wall 32.10 s
 Final Alpha MO Eigenvalues
            1           2           3           4           5           6
    1 -24.3199658 -24.3199170 -18.9719869  -1.4130511  -1.2992400  -1.0250542
            7           8           9          10          11          12
    1  -0.7312516  -0.6815223  -0.6488950  -0.5595160  -0.5512431  -0.5433410
           13          14          15          16          17          18
    1  -0.4362088  -0.0387543  -0.0076378   0.1328736   0.1773102   0.1833977
 Analysis of SCF Wavefunction
 
 --------------------------------------------------------------
                    Orbital Energies (a.u.)
 --------------------------------------------------------------
 
 Alpha MOs
 -- Occupied --
-24.320 -24.320 -18.972  -1.413  -1.299  -1.025  -0.731  -0.682
 -0.649  -0.560  -0.551  -0.543  -0.436
 -- Virtual --
 -0.039  -0.008   0.133   0.177   0.183   0.198   0.268   0.286
  0.295   0.300   0.302   0.374   0.438   0.501   0.999   1.006
  1.009   1.155   1.255   1.262   1.304   1.319   1.373   1.438
  1.451   1.453   1.470   1.766   1.922   1.928   1.998   2.018
  2.037   2.090   2.095   2.197   2.413   2.451   2.678   2.983
  2.997   4.668   4.792   4.869   4.893   4.899   4.910   4.942
  4.991   5.014   5.030   6.040   6.092   6.107   6.169   6.255
  6.333   6.502   6.516   6.535   6.598   6.617   6.625   6.625
  6.628   6.628   6.666   6.747   7.001   7.040   7.117   7.238
  7.264   7.272   7.903   8.117   8.995   8.999   9.004   9.020
  9.228   9.266   9.287   9.381   9.898   9.954  43.481  43.486
 43.499  43.537  43.617  45.397  45.623  45.851  49.672  49.872
 49.879  49.934  49.935  49.986  50.003  50.021  50.038  50.196
 50.211  55.500  55.528  55.532  55.582  55.745  55.857  66.747
 66.775
 --------------------------------------------------------------
 
          Ground-State Mulliken Net Atomic Charges

     Atom                 Charge (a.u.)
  ----------------------------------------
      1 F                     0.030118
      2 O                    -0.059910
      3 F                     0.029791
  ----------------------------------------
  Sum of atomic charges =     0.000000

 -----------------------------------------------------------------
                    Cartesian Multipole Moments
 -----------------------------------------------------------------
    Charge (ESU x 10^10)
                 0.0000
    Dipole Moment (Debye)
         X       0.2389      Y       0.0000      Z       0.1865
       Tot       0.3031
    Quadrupole Moments (Debye-Ang)
        XX     -15.2681     XY      -0.0001     YY     -15.5754
        XZ       0.3392     YZ       0.0000     ZZ     -14.7427
    Octapole Moments (Debye-Ang^2)
       XXX      20.2546    XXY      -0.0004    XYY       6.8645
       YYY       0.0000    XXZ     -15.9919    XYZ       0.0000
       YYZ     -16.5743    XZZ       7.3597    YZZ       0.0004
       ZZZ     -47.7190
    Hexadecapole Moments (Debye-Ang^3)
      XXXX     -63.0577   XXXY       0.0007   XXYY     -13.1229
      XYYY       0.0001   YYYY     -10.9320   XXXZ      34.3990
      XXYZ      -0.0008   XYYZ      12.0106   YYYZ      -0.0001
      XXZZ     -37.9523   XYZZ       0.0002   YYZZ     -30.0679
      XZZZ      36.5184   YZZZ       0.0008   ZZZZ    -160.5636
 -----------------------------------------------------------------
 Total job time:  34.45s(wall), 20.47s(cpu) 
 Tue Apr 12 22:18:59 2011

        *************************************************************
        *                                                           *
        *  Thank you very much for using Q-Chem.  Have a nice day.  *
        *                                                           *
        *************************************************************


0 sent ACK to 0 
now end server 0 ... 
 
**********************************************************************
Job 3 of 3 
**********************************************************************
 
Process 0 of 1 is on cl153.stfx.acenet.ca - thread support 1
initial socket setup ...start
initial socket setup ...done 
now start server 0 ... 

cmd = /usr/bin/ssh clhead /usr/local/qchem/bin/get_hostid 1694201760 > /globalscratch/itamblyn/bnl/g297_b3lyp_neut_g03Large_worked/g2g71070/omega300/qchem18383/lic.dat
                  Welcome to Q-Chem
     A Quantum Leap Into The Future Of Chemistry

 Y. Shao, L. Fusti-Molnar, Y. Jung, J. Kussmann, C. Ochsenfeld,
 S. T. Brown, A. T. B. Gilbert, L. V. Slipchenko,S. V. Levchenko,
 D. P. O'Neill, R. A. DiStasio Jr., R. C. Lochan, T. Wang,
 G. J. O. Beran, N. A. Besley, J. M. Herbert, C. Y. Lin,
 T. Van Voorhis, S. H. Chien, A. Sodt, R. P. Steele, 
 V. A. Rassolov, P. E. Maslen, P. P. Korambath, R. D. Adamson,
 B. Austin, J. Baker, E. F. C. Byrd, H. Dachsel, R. J. Doerksen,
 A. Dreuw, B. D. Dunietz, A. D. Dutoi, T. R. Furlani,
 S. R. Gwaltney, A. Heyden, S. Hirata, C.-P. Hsu, G. Kedziora,
 R. Z. Khaliullin, P. Klunzinger, A. M. Lee, M. S. Lee, W. Liang,
 I. Lotan, N. Nair, B. Peters, E. I. Proynov, P. A. Pieniazek, 
 Y. M. Rhee, J. Ritchie, E. Rosta, C. D. Sherrill, 
 A. C. Simmonett, J. E. Subotnik, H. L. Woodcock III,
 W. Zhang, A. T. Bell, A. K. Chakraborty, D. M. Chipman,
 F. J. Keil, A. Warshel, W. J. Hehre, H. F. Schaefer III,
 J. Kong, A. I. Krylov, P. M. W. Gill, M. Head-Gordon,
 Q-Chem, Version 3.1, Q-Chem, Inc., Pittsburgh, PA (2007).

 Additional authors for Version 3.1: 
 Z. Gan, Y. Zhao, N. E. Schultz, D. Truhlar, E. Epifanovsky and M. Oana.

 Additional authors for Version 3.2: 
 R. Baer, B. R. Brooks, D. Casanova, J.-D. Chai, C.-L. Cheng, 
 C. Cramer, D. Crittenden, A. Ghysels, G. Hawkins, E. G. Hohenstein, 
 C. Kelley, W. Kurlancheek, D. Liotard, E. Livshits, P. Manohar, 
 A. Marenich, D. Neuhauser, R. Olson, M. A. Rohrdanz, K. S. Thanthiriwatte, 
 A. J. W. Thom, V. Vanovschi, C. F. Williams, Q. Wu and Z.-Q. You. 


 Intel X86 Linux Version

 Q-chem begins on Tue Apr 12 22:19:02 2011  

 Parallel job on  1  processors
Processing $rem in /usr/local/qchem/config/preferences.

theFileMan(): MAXOPENFILES=974 MAX_SUB_FILE_NUM=16
Maximum size of a physical file is 2.0 GB, maximum size of a tmp-file is 32.0 GB


--------------------------------------------------------------
User input:
--------------------------------------------------------------

$molecule
1,2
F
O,1,r1
X,2,1.,1,90.
F,2,r1,3,a,1,180.,0

 r1=1.40891796
 a=166.07508234

$end

$comment
positive
$end

$xc_functional
   X HF 1.0
   X BNL 1.0
   C LYP 1.0
$end

$rem
SYMMETRY_DECOMPOSITION	0
exchange 		general
BASIS                   g3large
omega			300
separate_jk		true
mem_static              760
max_scf_cycles          200
scf_final_print         1
sym_ignore              true
$end

--------------------------------------------------------------
 Writing REM_CC_EA            3
 ----------------------------------------------------
       Standard Nuclear Orientation (Angstroms)
    I     Atom         X            Y            Z
 ----------------------------------------------------
    1      F       0.000000     0.000000     0.000000
    2      O       0.000000     0.000000     1.408918
    3      F      -1.367513     0.000000     1.747974
 ----------------------------------------------------
 Nuclear Repulsion Energy =    73.3986260111 hartrees
 There are       13 alpha and       12 beta electrons
 Requested basis set is G3large
 There are 30 shells and 126 basis functions

Total QAlloc Memory Limit   2000 MB
Mega-Array Size       743 MB
MEM_STATIC part       760 MB

                       Distance Matrix (Angstroms)
             F (  1)   O (  2)
   O (  2)  1.408918
   F (  3)  2.219348  1.408918
 
 A cutoff of  1.0D-08 yielded    420 shell pairs
 There are   7635 function pairs ( 10005 Cartesian)
Evaluating contribution to one-electron hamiltonian from nuclear
 Smallest overlap matrix eigenvalue = 2.64E-03
 Multipole matrices computed through 2nd order

  Scale SEOQF with 1.000000e-01/1.000000e+00/1.000000e-01

 Standard Electronic Orientation quadrupole field applied
 Nucleus-field energy     =    -0.0000000040 hartrees
 Guess from superposition of atomic densities
 Warning:  Energy on first SCF cycle will be non-variational
 An unrestricted hybrid HF-DFT SCF calculation will be
 performed using Pulay DIIS extrapolation
 Exchange:     1.0000 Hartree-Fock + 1.0000 BNL
 Correlation:  1.0000 LYP
 Using SG-1 standard quadrature grid
 SCF converges when DIIS error is below 1.0E-05
 Warning!  Inaccurate integrated density:
   Number of electrons =    25
   Numerical integral  =    26.000004176689
   Relative error      =     4.0000167068 %
 ---------------------------------------
  Cycle       Energy         DIIS Error
 ---------------------------------------
    1    -272.5152271318      3.08E-02
    2    -271.6215495212      1.28E-02
    3    -271.3341849193      2.11E-02
    4    -271.8621809046      5.18E-03
    5    -271.8897014334      8.41E-04
    6    -271.8906094278      6.30E-04
    7    -271.8911820089      1.31E-04
    8    -271.8913790287      6.18E-05
    9    -271.8914718950      2.82E-05
   10    -271.8915079115      1.05E-05
   11    -271.8915139688      3.49E-06 Convergence criterion met
 ---------------------------------------
 One-Electron    Energy =  -516.4285130960
 Total Coulomb   Energy =   197.3901854091
 Alpha Exchange  Energy =    -2.0983403577
 Beta  Exchange  Energy =    -1.9206697428
 DFT   Exchange  Energy =   -21.3002592494
 DFT Correlation Energy =    -0.9325429391
 Nuclear Repu.   Energy =    73.3986260071
 Nuclear Attr.   Energy =  -787.4200860444
 Kinetic         Energy =   270.9915729485
 <S^2> = 0.7528
 SCF time:  CPU 29.64 s  wall 46.31 s
 Final Alpha MO Eigenvalues
            1           2           3           4           5           6
    1 -24.7278045 -24.7277942 -19.4557003  -1.8139882  -1.6818879  -1.4322915
            7           8           9          10          11          12
    1  -1.1190567  -1.0711515  -1.0667798  -0.9437816  -0.9231370  -0.9081887
           13          14          15          16          17          18
    1  -0.8677901  -0.4375501  -0.4077917  -0.1066524  -0.0423285  -0.0419959
 Final Beta MO Eigenvalues
            1           2           3           4           5           6
    1 -24.7206065 -24.7205975 -19.4341517  -1.7939172  -1.6686448  -1.3982879
            7           8           9          10          11          12
    1  -1.1046460  -1.0532057  -1.0087723  -0.9126884  -0.9004263  -0.8981181
           13          14          15          16          17
    1  -0.5402750  -0.4166531  -0.3874249  -0.1046038  -0.0407627
 Analysis of SCF Wavefunction
 
 --------------------------------------------------------------
                    Orbital Energies (a.u.)
 --------------------------------------------------------------
 
 Alpha MOs
 -- Occupied --
-24.728 -24.728 -19.456  -1.814  -1.682  -1.432  -1.119  -1.071
 -1.067  -0.944  -0.923  -0.908  -0.868
 -- Virtual --
 -0.438  -0.408  -0.107  -0.042  -0.042  -0.040   0.051   0.059
  0.063   0.073   0.080   0.164   0.192   0.259   0.648   0.669
  0.687   0.824   0.891   0.937   0.951   1.025   1.032   1.108
  1.111   1.135   1.139   1.385   1.546   1.598   1.651   1.665
  1.684   1.730   1.743   1.843   2.039   2.078   2.319   2.627
  2.639   4.211   4.380   4.467   4.481   4.488   4.504   4.528
  4.558   4.584   4.595   5.669   5.703   5.717   5.800   5.869
  5.932   6.073   6.079   6.129   6.213   6.244   6.250   6.252
  6.255   6.255   6.272   6.355   6.609   6.622   6.710   6.835
  6.863   6.868   7.501   7.715   8.601   8.605   8.610   8.626
  8.847   8.867   8.888   9.000   9.514   9.569  42.973  42.986
 42.999  43.063  43.146  44.896  45.151  45.379  49.193  49.460
 49.467  49.523  49.523  49.584  49.588  49.606  49.635  49.789
 49.805  55.098  55.115  55.118  55.181  55.340  55.452  66.340
 66.369
 
 Beta MOs
 -- Occupied --
-24.721 -24.721 -19.434  -1.794  -1.669  -1.398  -1.105  -1.053
 -1.009  -0.913  -0.900  -0.898
 -- Virtual --
 -0.540  -0.417  -0.387  -0.105  -0.041  -0.038  -0.037   0.052
  0.060   0.065   0.076   0.083   0.164   0.193   0.261   0.678
  0.680   0.695   0.830   0.912   0.952   0.973   1.028   1.045
  1.125   1.126   1.139   1.144   1.410   1.555   1.603   1.664
  1.677   1.695   1.742   1.755   1.848   2.058   2.096   2.326
  2.637   2.650   4.271   4.401   4.484   4.508   4.519   4.521
  4.557   4.601   4.625   4.639   5.677   5.729   5.744   5.808
  5.882   5.959   6.118   6.128   6.148   6.232   6.255   6.268
  6.269   6.271   6.272   6.294   6.376   6.630   6.653   6.738
  6.853   6.882   6.892   7.517   7.729   8.626   8.630   8.635
  8.651   8.854   8.890   8.911   9.007   9.524   9.579  43.036
 43.041  43.054  43.089  43.169  44.938  45.167  45.395  49.219
 49.482  49.488  49.544  49.544  49.590  49.608  49.626  49.641
 49.799  49.814  55.104  55.131  55.135  55.187  55.344  55.456
 66.349  66.378
 --------------------------------------------------------------
 
          Ground-State Mulliken Net Atomic Charges

     Atom                 Charge (a.u.)    Spin (a.u.)
  --------------------------------------------------------
      1 F                     0.335227       0.185454
      2 O                     0.329898       0.629377
      3 F                     0.334875       0.185169
  --------------------------------------------------------
  Sum of atomic charges =     1.000000
  Sum of spin   charges =     1.000000

 -----------------------------------------------------------------
                    Cartesian Multipole Moments
 -----------------------------------------------------------------
    Charge (ESU x 10^10)
                 4.8032
    Dipole Moment (Debye)
         X      -1.7159      Y       0.0001      Z       5.4241
       Tot       5.6890
    Quadrupole Moments (Debye-Ang)
        XX     -10.2774     XY       0.0003     YY     -13.0700
        XZ      -3.2838     YZ       0.0001     ZZ      -4.0967
    Octapole Moments (Debye-Ang^2)
       XXX      13.0288    XXY       0.0001    XYY       6.0071
       YYY       0.0001    XXZ      -8.2222    XYZ       0.0003
       YYZ     -13.7156    XZZ       0.0240    YZZ       0.0000
       ZZZ     -27.6584
    Hexadecapole Moments (Debye-Ang^3)
      XXXX     -46.6531   XXXY      -0.0001   XXYY     -10.6885
      XYYY       0.0001   YYYY      -7.6166   XXXZ      21.5407
      XXYZ       0.0001   XYYZ      10.4522   YYYZ       0.0001
      XXZZ     -22.2883   XYZZ       0.0007   YYZZ     -24.3770
      XZZZ      20.6053   YZZZ      -0.0001   ZZZZ    -116.4020
 -----------------------------------------------------------------
 Total job time:  47.73s(wall), 29.78s(cpu) 
 Tue Apr 12 22:19:50 2011

        *************************************************************
        *                                                           *
        *  Thank you very much for using Q-Chem.  Have a nice day.  *
        *                                                           *
        *************************************************************


0 sent ACK to 0 
now end server 0 ... 
