Process 0 of 1 is on cl101.stfx.acenet.ca - thread support 1
initial socket setup ...start
initial socket setup ...done 
now start server 0 ... 

cmd = /usr/bin/ssh clhead /usr/local/qchem/bin/get_hostid 319897740 > /scratch/tmp/5954245.1.short.q/qchem2725/lic.dat
                  Welcome to Q-Chem
     A Quantum Leap Into The Future Of Chemistry

 Y. Shao, L. Fusti-Molnar, Y. Jung, J. Kussmann, C. Ochsenfeld,
 S. T. Brown, A. T. B. Gilbert, L. V. Slipchenko,S. V. Levchenko,
 D. P. O'Neill, R. A. DiStasio Jr., R. C. Lochan, T. Wang,
 G. J. O. Beran, N. A. Besley, J. M. Herbert, C. Y. Lin,
 T. Van Voorhis, S. H. Chien, A. Sodt, R. P. Steele, 
 V. A. Rassolov, P. E. Maslen, P. P. Korambath, R. D. Adamson,
 B. Austin, J. Baker, E. F. C. Byrd, H. Dachsel, R. J. Doerksen,
 A. Dreuw, B. D. Dunietz, A. D. Dutoi, T. R. Furlani,
 S. R. Gwaltney, A. Heyden, S. Hirata, C.-P. Hsu, G. Kedziora,
 R. Z. Khaliullin, P. Klunzinger, A. M. Lee, M. S. Lee, W. Liang,
 I. Lotan, N. Nair, B. Peters, E. I. Proynov, P. A. Pieniazek, 
 Y. M. Rhee, J. Ritchie, E. Rosta, C. D. Sherrill, 
 A. C. Simmonett, J. E. Subotnik, H. L. Woodcock III,
 W. Zhang, A. T. Bell, A. K. Chakraborty, D. M. Chipman,
 F. J. Keil, A. Warshel, W. J. Hehre, H. F. Schaefer III,
 J. Kong, A. I. Krylov, P. M. W. Gill, M. Head-Gordon,
 Q-Chem, Version 3.1, Q-Chem, Inc., Pittsburgh, PA (2007).

 Additional authors for Version 3.1: 
 Z. Gan, Y. Zhao, N. E. Schultz, D. Truhlar, E. Epifanovsky and M. Oana.

 Additional authors for Version 3.2: 
 R. Baer, B. R. Brooks, D. Casanova, J.-D. Chai, C.-L. Cheng, 
 C. Cramer, D. Crittenden, A. Ghysels, G. Hawkins, E. G. Hohenstein, 
 C. Kelley, W. Kurlancheek, D. Liotard, E. Livshits, P. Manohar, 
 A. Marenich, D. Neuhauser, R. Olson, M. A. Rohrdanz, K. S. Thanthiriwatte, 
 A. J. W. Thom, V. Vanovschi, C. F. Williams, Q. Wu and Z.-Q. You. 


 Intel X86 Linux Version

 Q-chem begins on Wed Apr 24 14:59:34 2013  

 Parallel job on  1  processors
Processing $rem in /usr/local/qchem/config/preferences.

theFileMan(): MAXOPENFILES=974 MAX_SUB_FILE_NUM=16
Maximum size of a physical file is 2.0 GB, maximum size of a tmp-file is 32.0 GB


--------------------------------------------------------------
User input:
--------------------------------------------------------------

$molecule
-1,2
O
O,1,r

r=1.21453434

$end

$comment
negative
$end

$xc_functional
C PBE   1.00
X wPBE  1.00
$end

$rem
SYMMETRY_DECOMPOSITION	0
exchange 		general
LRC_DFT                 true
BASIS                   g3large
omega			800
mem_static              760
max_scf_cycles          200
scf_final_print         1
sym_ignore              true
$end

--------------------------------------------------------------
 Writing REM_CC_EA            2
 ----------------------------------------------------
       Standard Nuclear Orientation (Angstroms)
    I     Atom         X            Y            Z
 ----------------------------------------------------
    1      O       0.000000     0.000000     0.000000
    2      O       0.000000     0.000000     1.214534
 ----------------------------------------------------
 Nuclear Repulsion Energy =    27.8850423375 hartrees
 There are        9 alpha and        8 beta electrons
 Requested basis set is G3large
 There are 20 shells and 84 basis functions

Total QAlloc Memory Limit   2000 MB
Mega-Array Size       743 MB
MEM_STATIC part       760 MB

                       Distance Matrix (Angstroms)
             O (  1)
   O (  2)  1.214534
 
 A cutoff of  1.0D-08 yielded    206 shell pairs
 There are   3662 function pairs (  4809 Cartesian)
Evaluating contribution to one-electron hamiltonian from nuclear
 Smallest overlap matrix eigenvalue = 7.25E-04
 Multipole matrices computed through 2nd order

  Scale SEOQF with 1.000000e+00/1.000000e+00/1.000000e-01

 Standard Electronic Orientation quadrupole field applied
 Nucleus-field energy     =    -0.0000000013 hartrees
 Guess from superposition of atomic densities
 Warning:  Energy on first SCF cycle will be non-variational
 Long-range K will be added via erf
 Coulomb attenuation parameter = 0.8 bohr**(-1)
 An unrestricted Kohn-Sham SCF calculation will be
 performed using Pulay DIIS extrapolation
 Exchange:  wPBE + LR-HF      Correlation:  PBE
 Using SG-1 standard quadrature grid
 SCF converges when DIIS error is below 1.0E-05
 Requested basis set is G3large
 There are 20 shells and 84 basis functions
 A cutoff of  1.0D-08 yielded    206 shell pairs
 There are   3662 function pairs (  4809 Cartesian)
 Warning!  Inaccurate integrated density:
   Number of electrons =    17
   Numerical integral  =    15.999958016249
   Relative error      =    -5.8825999044 %
 ---------------------------------------
  Cycle       Energy         DIIS Error
 ---------------------------------------
    1    -150.3245555836      4.60E-02
    2    -150.2158243631      8.04E-03
    3    -150.2687404139      4.39E-03
    4    -150.2800648118      8.36E-04
    5    -150.2814698016      3.43E-04
    6    -150.2820003095      1.22E-04
    7    -150.2821363727      4.97E-05
    8    -150.2821723320      1.30E-05
    9    -150.2821747408      3.51E-06 Convergence criterion met
 ---------------------------------------
 One-Electron    Energy =  -268.0163116086
 Total Coulomb   Energy =   107.1658702023
 Alpha Exchange  Energy =    -3.1688062317
 Beta  Exchange  Energy =    -2.7664908459
 DFT   Exchange  Energy =   -10.8148590086
 DFT Correlation Energy =    -0.5666195844
 Nuclear Repu.   Energy =    27.8850423362
 Nuclear Attr.   Energy =  -418.2811100785
 Kinetic         Energy =   150.2647984698
 <S^2> = 0.7589
 SCF time:  CPU 9.55 s  wall 10.52 s
 Final Alpha MO Eigenvalues
            1           2           3           4           5           6
    1 -18.8933093 -18.8929991  -1.1772209  -0.6909740  -0.4009481  -0.3563050
            7           8           9          10          11          12
    1  -0.3554625  -0.1201873  -0.0702031   0.3730133   0.4074688   0.4390741
           13          14
    1   0.4474742   0.4928200
 Final Beta MO Eigenvalues
            1           2           3           4           5           6
    1 -18.8796043 -18.8790364  -1.1432298  -0.6277135  -0.3420742  -0.3342939
            7           8           9          10          11          12
    1  -0.2509311  -0.0505111   0.3634412   0.3749858   0.4097645   0.4483605
           13
    1   0.4487145
 Analysis of SCF Wavefunction
 
 --------------------------------------------------------------
                    Orbital Energies (a.u.)
 --------------------------------------------------------------
 
 Alpha MOs
 -- Occupied --
-18.893 -18.893  -1.177  -0.691  -0.401  -0.356  -0.355  -0.120
 -0.070
 -- Virtual --
  0.373   0.407   0.439   0.447   0.493   0.501   0.518   0.646
  0.793   1.366   1.418   1.420   1.447   1.486   1.512   1.676
  1.759   1.760   1.821   1.848   1.986   2.164   2.164   2.767
  2.775   2.803   3.012   4.991   5.020   5.100   5.101   5.262
  5.369   5.411   5.433   5.434   5.501   5.540   5.623   5.680
  5.680   5.798   6.246   6.247   7.187   7.187   7.291   7.326
  7.334   7.358   7.372   7.480   7.518   7.836   7.868   8.443
  8.589  44.148  44.199  44.206  44.257  44.283  44.308  44.312
 44.337  44.380  44.456  45.997  46.021  46.160  46.224  46.248
 47.503  50.301  50.602
 
 Beta MOs
 -- Occupied --
-18.880 -18.879  -1.143  -0.628  -0.342  -0.334  -0.251  -0.051
 -- Virtual --
  0.363   0.375   0.410   0.448   0.449   0.503   0.517   0.539
  0.650   0.818   1.374   1.423   1.453   1.462   1.520   1.539
  1.690   1.781   1.782   1.850   1.868   2.006   2.204   2.205
  2.785   2.807   2.811   3.023   5.027   5.031   5.121   5.122
  5.275   5.427   5.435   5.469   5.469   5.551   5.552   5.643
  5.715   5.715   5.819   6.272   6.272   7.243   7.246   7.337
  7.342   7.370   7.413   7.417   7.530   7.535   7.872   7.874
  8.457   8.609  44.183  44.235  44.242  44.294  44.312  44.318
 44.341  44.346  44.392  44.470  46.030  46.033  46.168  46.257
 46.260  47.513  50.315  50.616
 --------------------------------------------------------------
 
          Ground-State Mulliken Net Atomic Charges

     Atom                 Charge (a.u.)    Spin (a.u.)
  --------------------------------------------------------
      1 O                    -0.500027       0.499988
      2 O                    -0.499973       0.500012
  --------------------------------------------------------
  Sum of atomic charges =    -1.000000
  Sum of spin   charges =     1.000000

 -----------------------------------------------------------------
                    Cartesian Multipole Moments
 -----------------------------------------------------------------
    Charge (ESU x 10^10)
                -4.8032
    Dipole Moment (Debye)
         X       0.0000      Y       0.0000      Z      -2.9167
       Tot       2.9167
    Quadrupole Moments (Debye-Ang)
        XX     -12.6653     XY      -0.5892     YY     -13.1902
        XZ       0.0008     YZ       0.0002     ZZ     -17.7190
    Octapole Moments (Debye-Ang^2)
       XXX       0.0000    XXY       0.0000    XYY       0.0000
       YYY       0.0000    XXZ      -7.6913    XYZ      -0.3578
       YYZ      -8.0100    XZZ       0.0010    YZZ       0.0003
       ZZZ     -30.1295
    Hexadecapole Moments (Debye-Ang^3)
      XXXX     -12.1187   XXXY      -0.5699   XXYY      -4.2088
      XYYY      -0.5700   YYYY     -13.1342   XXXZ       0.0016
      XXYZ       0.0003   XYYZ       0.0005   YYYZ       0.0008
      XXZZ     -14.4004   XYZZ      -0.9856   YYZZ     -15.2784
      XZZZ       0.0029   YZZZ       0.0009   ZZZZ     -78.1550
 -----------------------------------------------------------------
 Total job time:  10.63s(wall), 9.64s(cpu) 
 Wed Apr 24 14:59:45 2013

        *************************************************************
        *                                                           *
        *  Thank you very much for using Q-Chem.  Have a nice day.  *
        *                                                           *
        *************************************************************


0 sent ACK to 0 
now end server 0 ... 
 
**********************************************************************
Job 2 of 3 
**********************************************************************
 
Process 0 of 1 is on cl101.stfx.acenet.ca - thread support 1
initial socket setup ...start
initial socket setup ...done 
now start server 0 ... 

cmd = /usr/bin/ssh clhead /usr/local/qchem/bin/get_hostid 660525797 > /scratch/tmp/5954245.1.short.q/qchem2725/lic.dat
                  Welcome to Q-Chem
     A Quantum Leap Into The Future Of Chemistry

 Y. Shao, L. Fusti-Molnar, Y. Jung, J. Kussmann, C. Ochsenfeld,
 S. T. Brown, A. T. B. Gilbert, L. V. Slipchenko,S. V. Levchenko,
 D. P. O'Neill, R. A. DiStasio Jr., R. C. Lochan, T. Wang,
 G. J. O. Beran, N. A. Besley, J. M. Herbert, C. Y. Lin,
 T. Van Voorhis, S. H. Chien, A. Sodt, R. P. Steele, 
 V. A. Rassolov, P. E. Maslen, P. P. Korambath, R. D. Adamson,
 B. Austin, J. Baker, E. F. C. Byrd, H. Dachsel, R. J. Doerksen,
 A. Dreuw, B. D. Dunietz, A. D. Dutoi, T. R. Furlani,
 S. R. Gwaltney, A. Heyden, S. Hirata, C.-P. Hsu, G. Kedziora,
 R. Z. Khaliullin, P. Klunzinger, A. M. Lee, M. S. Lee, W. Liang,
 I. Lotan, N. Nair, B. Peters, E. I. Proynov, P. A. Pieniazek, 
 Y. M. Rhee, J. Ritchie, E. Rosta, C. D. Sherrill, 
 A. C. Simmonett, J. E. Subotnik, H. L. Woodcock III,
 W. Zhang, A. T. Bell, A. K. Chakraborty, D. M. Chipman,
 F. J. Keil, A. Warshel, W. J. Hehre, H. F. Schaefer III,
 J. Kong, A. I. Krylov, P. M. W. Gill, M. Head-Gordon,
 Q-Chem, Version 3.1, Q-Chem, Inc., Pittsburgh, PA (2007).

 Additional authors for Version 3.1: 
 Z. Gan, Y. Zhao, N. E. Schultz, D. Truhlar, E. Epifanovsky and M. Oana.

 Additional authors for Version 3.2: 
 R. Baer, B. R. Brooks, D. Casanova, J.-D. Chai, C.-L. Cheng, 
 C. Cramer, D. Crittenden, A. Ghysels, G. Hawkins, E. G. Hohenstein, 
 C. Kelley, W. Kurlancheek, D. Liotard, E. Livshits, P. Manohar, 
 A. Marenich, D. Neuhauser, R. Olson, M. A. Rohrdanz, K. S. Thanthiriwatte, 
 A. J. W. Thom, V. Vanovschi, C. F. Williams, Q. Wu and Z.-Q. You. 


 Intel X86 Linux Version

 Q-chem begins on Wed Apr 24 14:59:47 2013  

 Parallel job on  1  processors
Processing $rem in /usr/local/qchem/config/preferences.

theFileMan(): MAXOPENFILES=974 MAX_SUB_FILE_NUM=16
Maximum size of a physical file is 2.0 GB, maximum size of a tmp-file is 32.0 GB


--------------------------------------------------------------
User input:
--------------------------------------------------------------

$molecule
0,3
O
O,1,r

r=1.21453434

$end

$comment
neutral
$end

$xc_functional
C PBE   1.00
X wPBE  1.00
$end


$rem
SYMMETRY_DECOMPOSITION	0
LRC_DFT                 true
exchange 		general
BASIS                   g3large
omega			800
mem_static              760
max_scf_cycles          200
scf_final_print         1
sym_ignore              true
$end

--------------------------------------------------------------
 Writing REM_CC_EA            2
 ----------------------------------------------------
       Standard Nuclear Orientation (Angstroms)
    I     Atom         X            Y            Z
 ----------------------------------------------------
    1      O       0.000000     0.000000     0.000000
    2      O       0.000000     0.000000     1.214534
 ----------------------------------------------------
 Nuclear Repulsion Energy =    27.8850423375 hartrees
 There are        9 alpha and        7 beta electrons
 Requested basis set is G3large
 There are 20 shells and 84 basis functions

Total QAlloc Memory Limit   2000 MB
Mega-Array Size       743 MB
MEM_STATIC part       760 MB

                       Distance Matrix (Angstroms)
             O (  1)
   O (  2)  1.214534
 
 A cutoff of  1.0D-08 yielded    206 shell pairs
 There are   3662 function pairs (  4809 Cartesian)
Evaluating contribution to one-electron hamiltonian from nuclear
 Smallest overlap matrix eigenvalue = 7.25E-04
 Multipole matrices computed through 2nd order

  Scale SEOQF with 1.000000e+00/1.000000e+00/1.000000e-01

 Standard Electronic Orientation quadrupole field applied
 Nucleus-field energy     =    -0.0000000013 hartrees
 Guess from superposition of atomic densities
 Warning:  Energy on first SCF cycle will be non-variational
 Long-range K will be added via erf
 Coulomb attenuation parameter = 0.8 bohr**(-1)
 An unrestricted Kohn-Sham SCF calculation will be
 performed using Pulay DIIS extrapolation
 Exchange:  wPBE + LR-HF      Correlation:  PBE
 Using SG-1 standard quadrature grid
 SCF converges when DIIS error is below 1.0E-05
 Requested basis set is G3large
 There are 20 shells and 84 basis functions
 A cutoff of  1.0D-08 yielded    206 shell pairs
 There are   3662 function pairs (  4809 Cartesian)
 ---------------------------------------
  Cycle       Energy         DIIS Error
 ---------------------------------------
    1    -150.3245555836      4.60E-02
    2    -150.2115028706      6.51E-03
    3    -150.2575234985      2.79E-03
    4    -150.2655049607      7.81E-04
    5    -150.2693644623      3.67E-04
    6    -150.2705213579      1.50E-04
    7    -150.2708355570      4.48E-05
    8    -150.2708767638      9.84E-06 Convergence criterion met
 ---------------------------------------
 One-Electron    Energy =  -261.5479091045
 Total Coulomb   Energy =   100.3283929538
 Alpha Exchange  Energy =    -3.2455854159
 Beta  Exchange  Energy =    -2.4269082796
 DFT   Exchange  Energy =   -10.7343424479
 DFT Correlation Energy =    -0.5295668060
 Nuclear Repu.   Energy =    27.8850423362
 Nuclear Attr.   Energy =  -411.3850472930
 Kinetic         Energy =   149.8371381885
 <S^2> = 2.0167
 SCF time:  CPU 8.68 s  wall 9.68 s
 Final Alpha MO Eigenvalues
            1           2           3           4           5           6
    1 -19.3425396 -19.3422286  -1.6022294  -1.1129638  -0.8043609  -0.8043551
            7           8           9          10          11          12
    1  -0.7593277  -0.5298946  -0.5298896   0.1647889   0.1750500   0.2110142
           13          14
    1   0.2110142   0.2785340
 Final Beta MO Eigenvalues
            1           2           3           4           5           6
    1 -19.3134726 -19.3125859  -1.5342473  -0.9848816  -0.7164808  -0.6320947
            7           8           9          10          11          12
    1  -0.6320889   0.0208654   0.0208862   0.1711895   0.1784892   0.2193904
 Analysis of SCF Wavefunction
 
 --------------------------------------------------------------
                    Orbital Energies (a.u.)
 --------------------------------------------------------------
 
 Alpha MOs
 -- Occupied --
-19.343 -19.342  -1.602  -1.113  -0.804  -0.804  -0.759  -0.530
 -0.530
 -- Virtual --
  0.165   0.175   0.211   0.211   0.279   0.279   0.279   0.404
  0.420   1.048   1.087   1.087   1.095   1.162   1.162   1.323
  1.377   1.377   1.451   1.451   1.637   1.779   1.779   2.379
  2.414   2.414   2.654   4.592   4.592   4.692   4.692   4.852
  4.963   4.963   5.016   5.016   5.098   5.098   5.210   5.259
  5.259   5.387   5.831   5.831   6.736   6.736   6.879   6.879
  6.911   6.911   6.941   7.068   7.068   7.443   7.443   8.029
  8.173  43.685  43.737  43.744  43.796  43.846  43.846  43.875
 43.875  43.932  44.010  45.557  45.557  45.718  45.783  45.783
 47.062  49.855  50.156
 
 Beta MOs
 -- Occupied --
-19.313 -19.313  -1.534  -0.985  -0.716  -0.632  -0.632
 -- Virtual --
  0.021   0.021   0.171   0.178   0.219   0.219   0.278   0.299
  0.299   0.425   0.455   1.061   1.104   1.134   1.134   1.220
  1.220   1.348   1.421   1.421   1.498   1.498   1.675   1.859
  1.859   2.416   2.453   2.453   2.676   4.640   4.640   4.733
  4.733   4.880   5.047   5.047   5.084   5.084   5.165   5.165
  5.250   5.332   5.332   5.427   5.883   5.883   6.857   6.857
  6.943   6.943   6.987   7.030   7.030   7.136   7.136   7.486
  7.486   8.058   8.212  43.760  43.812  43.819  43.871  43.887
 43.887  43.915  43.915  43.962  44.041  45.604  45.604  45.735
 45.831  45.831  47.081  49.884  50.185
 --------------------------------------------------------------
 
          Ground-State Mulliken Net Atomic Charges

     Atom                 Charge (a.u.)    Spin (a.u.)
  --------------------------------------------------------
      1 O                     0.000046       1.000029
      2 O                    -0.000046       0.999971
  --------------------------------------------------------
  Sum of atomic charges =     0.000000
  Sum of spin   charges =     2.000000

 -----------------------------------------------------------------
                    Cartesian Multipole Moments
 -----------------------------------------------------------------
    Charge (ESU x 10^10)
                 0.0000
    Dipole Moment (Debye)
         X       0.0000      Y       0.0000      Z      -0.0002
       Tot       0.0003
    Quadrupole Moments (Debye-Ang)
        XX      -9.9838     XY       0.0000     YY      -9.9838
        XZ       0.0003     YZ       0.0001     ZZ     -10.3695
    Octapole Moments (Debye-Ang^2)
       XXX       0.0000    XXY       0.0000    XYY       0.0000
       YYY       0.0000    XXZ      -6.0628    XYZ       0.0000
       YYZ      -6.0628    XZZ       0.0003    YZZ       0.0002
       ZZZ     -18.8910
    Hexadecapole Moments (Debye-Ang^3)
      XXXX      -7.0445   XXXY       0.0000   XXYY      -2.3481
      XYYY       0.0000   YYYY      -7.0444   XXXZ       0.0003
      XXYZ       0.0001   XYYZ       0.0001   YYYZ       0.0002
      XXZZ      -9.8584   XYZZ       0.0000   YYZZ      -9.8583
      XZZZ       0.0008   YZZZ       0.0004   ZZZZ     -51.5450
 -----------------------------------------------------------------
 Total job time:  9.77s(wall), 8.76s(cpu) 
 Wed Apr 24 14:59:57 2013

        *************************************************************
        *                                                           *
        *  Thank you very much for using Q-Chem.  Have a nice day.  *
        *                                                           *
        *************************************************************


0 sent ACK to 0 
now end server 0 ... 
 
**********************************************************************
Job 3 of 3 
**********************************************************************
 
Process 0 of 1 is on cl101.stfx.acenet.ca - thread support 1
initial socket setup ...start
initial socket setup ...done 
now start server 0 ... 

cmd = /usr/bin/ssh clhead /usr/local/qchem/bin/get_hostid 1007797120 > /scratch/tmp/5954245.1.short.q/qchem2725/lic.dat
                  Welcome to Q-Chem
     A Quantum Leap Into The Future Of Chemistry

 Y. Shao, L. Fusti-Molnar, Y. Jung, J. Kussmann, C. Ochsenfeld,
 S. T. Brown, A. T. B. Gilbert, L. V. Slipchenko,S. V. Levchenko,
 D. P. O'Neill, R. A. DiStasio Jr., R. C. Lochan, T. Wang,
 G. J. O. Beran, N. A. Besley, J. M. Herbert, C. Y. Lin,
 T. Van Voorhis, S. H. Chien, A. Sodt, R. P. Steele, 
 V. A. Rassolov, P. E. Maslen, P. P. Korambath, R. D. Adamson,
 B. Austin, J. Baker, E. F. C. Byrd, H. Dachsel, R. J. Doerksen,
 A. Dreuw, B. D. Dunietz, A. D. Dutoi, T. R. Furlani,
 S. R. Gwaltney, A. Heyden, S. Hirata, C.-P. Hsu, G. Kedziora,
 R. Z. Khaliullin, P. Klunzinger, A. M. Lee, M. S. Lee, W. Liang,
 I. Lotan, N. Nair, B. Peters, E. I. Proynov, P. A. Pieniazek, 
 Y. M. Rhee, J. Ritchie, E. Rosta, C. D. Sherrill, 
 A. C. Simmonett, J. E. Subotnik, H. L. Woodcock III,
 W. Zhang, A. T. Bell, A. K. Chakraborty, D. M. Chipman,
 F. J. Keil, A. Warshel, W. J. Hehre, H. F. Schaefer III,
 J. Kong, A. I. Krylov, P. M. W. Gill, M. Head-Gordon,
 Q-Chem, Version 3.1, Q-Chem, Inc., Pittsburgh, PA (2007).

 Additional authors for Version 3.1: 
 Z. Gan, Y. Zhao, N. E. Schultz, D. Truhlar, E. Epifanovsky and M. Oana.

 Additional authors for Version 3.2: 
 R. Baer, B. R. Brooks, D. Casanova, J.-D. Chai, C.-L. Cheng, 
 C. Cramer, D. Crittenden, A. Ghysels, G. Hawkins, E. G. Hohenstein, 
 C. Kelley, W. Kurlancheek, D. Liotard, E. Livshits, P. Manohar, 
 A. Marenich, D. Neuhauser, R. Olson, M. A. Rohrdanz, K. S. Thanthiriwatte, 
 A. J. W. Thom, V. Vanovschi, C. F. Williams, Q. Wu and Z.-Q. You. 


 Intel X86 Linux Version

 Q-chem begins on Wed Apr 24 15:00:00 2013  

 Parallel job on  1  processors
Processing $rem in /usr/local/qchem/config/preferences.

theFileMan(): MAXOPENFILES=974 MAX_SUB_FILE_NUM=16
Maximum size of a physical file is 2.0 GB, maximum size of a tmp-file is 32.0 GB


--------------------------------------------------------------
User input:
--------------------------------------------------------------

$molecule
1,2
O
O,1,r

r=1.21453434

$end

$comment
positive
$end

$xc_functional
C PBE   1.00
X wPBE  1.00
$end

$rem
SYMMETRY_DECOMPOSITION	0
LRC_DFT                 true
exchange 		general
BASIS                   g3large
omega			800
mem_static              760
max_scf_cycles          200
scf_final_print         1
sym_ignore              true
$end

--------------------------------------------------------------
 Writing REM_CC_EA            2
 ----------------------------------------------------
       Standard Nuclear Orientation (Angstroms)
    I     Atom         X            Y            Z
 ----------------------------------------------------
    1      O       0.000000     0.000000     0.000000
    2      O       0.000000     0.000000     1.214534
 ----------------------------------------------------
 Nuclear Repulsion Energy =    27.8850423375 hartrees
 There are        8 alpha and        7 beta electrons
 Requested basis set is G3large
 There are 20 shells and 84 basis functions

Total QAlloc Memory Limit   2000 MB
Mega-Array Size       743 MB
MEM_STATIC part       760 MB

                       Distance Matrix (Angstroms)
             O (  1)
   O (  2)  1.214534
 
 A cutoff of  1.0D-08 yielded    206 shell pairs
 There are   3662 function pairs (  4809 Cartesian)
Evaluating contribution to one-electron hamiltonian from nuclear
 Smallest overlap matrix eigenvalue = 7.25E-04
 Multipole matrices computed through 2nd order

  Scale SEOQF with 1.000000e+00/1.000000e+00/1.000000e-01

 Standard Electronic Orientation quadrupole field applied
 Nucleus-field energy     =    -0.0000000013 hartrees
 Guess from superposition of atomic densities
 Warning:  Energy on first SCF cycle will be non-variational
 Long-range K will be added via erf
 Coulomb attenuation parameter = 0.8 bohr**(-1)
 An unrestricted Kohn-Sham SCF calculation will be
 performed using Pulay DIIS extrapolation
 Exchange:  wPBE + LR-HF      Correlation:  PBE
 Using SG-1 standard quadrature grid
 SCF converges when DIIS error is below 1.0E-05
 Requested basis set is G3large
 There are 20 shells and 84 basis functions
 A cutoff of  1.0D-08 yielded    206 shell pairs
 There are   3662 function pairs (  4809 Cartesian)
 Warning!  Inaccurate integrated density:
   Number of electrons =    15
   Numerical integral  =    15.999958016249
   Relative error      =     6.6663867750 %
 ---------------------------------------
  Cycle       Energy         DIIS Error
 ---------------------------------------
    1    -150.3245555836      4.60E-02
    2    -149.6080513571      1.27E-02
    3    -149.7391859301      4.63E-03
    4    -149.7526328264      9.46E-04
    5    -149.7565484687      4.82E-04
    6    -149.7582685914      1.42E-04
    7    -149.7585051598      3.86E-05
    8    -149.7585331136      2.26E-05
    9    -149.7585376463      2.03E-05
   10    -149.7585402167      7.54E-06 Convergence criterion met
 ---------------------------------------
 One-Electron    Energy =  -253.9992118711
 Total Coulomb   Energy =    92.7371576373
 Alpha Exchange  Energy =    -2.8792023548
 Beta  Exchange  Energy =    -2.4618392429
 DFT   Exchange  Energy =   -10.5446290185
 DFT Correlation Energy =    -0.4958577028
 Nuclear Repu.   Energy =    27.8850423362
 Nuclear Attr.   Energy =  -402.9635403529
 Kinetic         Energy =   148.9643284817
 <S^2> = 0.7558
 SCF time:  CPU 10.49 s  wall 11.40 s
 Final Alpha MO Eigenvalues
            1           2           3           4           5           6
    1 -19.8756401 -19.8749785  -2.0627557  -1.5328119  -1.2575519  -1.2049662
            7           8           9          10          11          12
    1  -1.1533320  -0.9863768  -0.4969457  -0.1037222  -0.0811667  -0.0308705
           13
    1  -0.0293222
 Final Beta MO Eigenvalues
            1           2           3           4           5           6
    1 -19.8600214 -19.8590391  -2.0285677  -1.4676162  -1.1828022  -1.1385926
            7           8           9          10          11          12
    1  -1.0896696  -0.4774196  -0.4244078  -0.0859099  -0.0797989  -0.0299380
 Analysis of SCF Wavefunction
 
 --------------------------------------------------------------
                    Orbital Energies (a.u.)
 --------------------------------------------------------------
 
 Alpha MOs
 -- Occupied --
-19.876 -19.875  -2.063  -1.533  -1.258  -1.205  -1.153  -0.986
 -- Virtual --
 -0.497  -0.104  -0.081  -0.031  -0.029   0.015   0.038   0.058
  0.061   0.190   0.720   0.730   0.738   0.751   0.821   0.834
  0.947   0.973   0.975   1.040   1.052   1.273   1.392   1.393
  1.960   2.017   2.020   2.271   4.137   4.141   4.247   4.248
  4.391   4.507   4.514   4.573   4.573   4.648   4.649   4.753
  4.818   4.818   4.934   5.383   5.384   6.269   6.272   6.409
  6.412   6.448   6.451   6.494   6.598   6.600   6.995   7.000
  7.561   7.709  43.164  43.216  43.224  43.276  43.320  43.326
 43.349  43.355  43.408  43.486  45.029  45.031  45.189  45.256
 45.257  46.536  49.329  49.630
 
 Beta MOs
 -- Occupied --
-19.860 -19.859  -2.029  -1.468  -1.183  -1.139  -1.090
 -- Virtual --
 -0.477  -0.424  -0.086  -0.080  -0.030  -0.023   0.028   0.037
  0.062   0.068   0.192   0.726   0.744   0.754   0.770   0.841
  0.865   0.959   0.995   0.996   1.054   1.081   1.290   1.432
  1.432   1.979   2.023   2.051   2.282   4.148   4.181   4.267
  4.268   4.406   4.530   4.577   4.604   4.606   4.665   4.707
  4.774   4.856   4.856   4.954   5.411   5.412   6.333   6.334
  6.423   6.464   6.492   6.512   6.537   6.612   6.656   7.002
  7.037   7.575   7.729  43.205  43.257  43.263  43.314  43.330
 43.358  43.360  43.389  43.426  43.504  45.041  45.070  45.198
 45.267  45.297  46.546  49.344  49.645
 --------------------------------------------------------------
 
          Ground-State Mulliken Net Atomic Charges

     Atom                 Charge (a.u.)    Spin (a.u.)
  --------------------------------------------------------
      1 O                     0.500004       0.500011
      2 O                     0.499996       0.499989
  --------------------------------------------------------
  Sum of atomic charges =     1.000000
  Sum of spin   charges =     1.000000

 -----------------------------------------------------------------
                    Cartesian Multipole Moments
 -----------------------------------------------------------------
    Charge (ESU x 10^10)
                 4.8032
    Dipole Moment (Debye)
         X       0.0000      Y       0.0000      Z       2.9168
       Tot       2.9168
    Quadrupole Moments (Debye-Ang)
        XX      -7.9253     XY      -0.3222     YY      -8.2134
        XZ      -0.0001     YZ       0.0002     ZZ      -4.4200
    Octapole Moments (Debye-Ang^2)
       XXX       0.0000    XXY       0.0000    XYY       0.0000
       YYY       0.0000    XXZ      -4.8128    XYZ      -0.1957
       YYZ      -4.9878    XZZ      -0.0001    YZZ       0.0002
       ZZZ     -10.2037
    Hexadecapole Moments (Debye-Ang^3)
      XXXX      -4.6129   XXXY      -0.1279   XXYY      -1.5757
      XYYY      -0.1279   YYYY      -4.8416   XXXZ      -0.0001
      XXYZ       0.0000   XYYZ       0.0000   YYYZ       0.0001
      XXZZ      -7.2630   XYZZ      -0.3470   YYZZ      -7.5733
      XZZZ      -0.0003   YZZZ       0.0004   ZZZZ     -34.2996
 -----------------------------------------------------------------
 Total job time:  11.50s(wall), 10.57s(cpu) 
 Wed Apr 24 15:00:12 2013

        *************************************************************
        *                                                           *
        *  Thank you very much for using Q-Chem.  Have a nice day.  *
        *                                                           *
        *************************************************************


0 sent ACK to 0 
now end server 0 ... 
