Process 0 of 1 is on cl245.stfx.acenet.ca - thread support 1
initial socket setup ...start
initial socket setup ...done 
now start server 0 ... 

cmd = /usr/bin/ssh clhead /usr/local/qchem/bin/get_hostid 1794722479 > /scratch/tmp/6022055.1.long.q/qchem10391/lic.dat
                  Welcome to Q-Chem
     A Quantum Leap Into The Future Of Chemistry

 Y. Shao, L. Fusti-Molnar, Y. Jung, J. Kussmann, C. Ochsenfeld,
 S. T. Brown, A. T. B. Gilbert, L. V. Slipchenko,S. V. Levchenko,
 D. P. O'Neill, R. A. DiStasio Jr., R. C. Lochan, T. Wang,
 G. J. O. Beran, N. A. Besley, J. M. Herbert, C. Y. Lin,
 T. Van Voorhis, S. H. Chien, A. Sodt, R. P. Steele, 
 V. A. Rassolov, P. E. Maslen, P. P. Korambath, R. D. Adamson,
 B. Austin, J. Baker, E. F. C. Byrd, H. Dachsel, R. J. Doerksen,
 A. Dreuw, B. D. Dunietz, A. D. Dutoi, T. R. Furlani,
 S. R. Gwaltney, A. Heyden, S. Hirata, C.-P. Hsu, G. Kedziora,
 R. Z. Khaliullin, P. Klunzinger, A. M. Lee, M. S. Lee, W. Liang,
 I. Lotan, N. Nair, B. Peters, E. I. Proynov, P. A. Pieniazek, 
 Y. M. Rhee, J. Ritchie, E. Rosta, C. D. Sherrill, 
 A. C. Simmonett, J. E. Subotnik, H. L. Woodcock III,
 W. Zhang, A. T. Bell, A. K. Chakraborty, D. M. Chipman,
 F. J. Keil, A. Warshel, W. J. Hehre, H. F. Schaefer III,
 J. Kong, A. I. Krylov, P. M. W. Gill, M. Head-Gordon,
 Q-Chem, Version 3.1, Q-Chem, Inc., Pittsburgh, PA (2007).

 Additional authors for Version 3.1: 
 Z. Gan, Y. Zhao, N. E. Schultz, D. Truhlar, E. Epifanovsky and M. Oana.

 Additional authors for Version 3.2: 
 R. Baer, B. R. Brooks, D. Casanova, J.-D. Chai, C.-L. Cheng, 
 C. Cramer, D. Crittenden, A. Ghysels, G. Hawkins, E. G. Hohenstein, 
 C. Kelley, W. Kurlancheek, D. Liotard, E. Livshits, P. Manohar, 
 A. Marenich, D. Neuhauser, R. Olson, M. A. Rohrdanz, K. S. Thanthiriwatte, 
 A. J. W. Thom, V. Vanovschi, C. F. Williams, Q. Wu and Z.-Q. You. 


 Intel X86 Linux Version

 Q-chem begins on Wed May 29 17:02:51 2013  

 Parallel job on  1  processors
Processing $rem in /usr/local/qchem/config/preferences.

theFileMan(): MAXOPENFILES=974 MAX_SUB_FILE_NUM=16
Maximum size of a physical file is 2.0 GB, maximum size of a tmp-file is 32.0 GB


--------------------------------------------------------------
User input:
--------------------------------------------------------------

$molecule
-1,2
Cl         0.00000        0.00000        0.04188
Cl         0.00000        0.00000        2.00043
$end

$comment
negative
$end

$xc_functional
C PBE   1.00
X wPBE  1.00
$end

$rem
SYMMETRY_DECOMPOSITION	0
exchange 		general
LRC_DFT                 true
BASIS                   g3large
omega			470
mem_static              760
max_scf_cycles          200
scf_final_print         1
sym_ignore              true
$end

--------------------------------------------------------------
 Writing REM_CC_EA            2
 ----------------------------------------------------
       Standard Nuclear Orientation (Angstroms)
    I     Atom         X            Y            Z
 ----------------------------------------------------
    1      Cl      0.000000     0.000000     0.041880
    2      Cl      0.000000     0.000000     2.000430
 ----------------------------------------------------
 Nuclear Repulsion Energy =    78.0844062808 hartrees
 There are       18 alpha and       17 beta electrons
 Requested basis set is G3large
 There are 38 shells and 132 basis functions

Total QAlloc Memory Limit   2000 MB
Mega-Array Size       743 MB
MEM_STATIC part       760 MB

                       Distance Matrix (Angstroms)
             Cl(  1)
   Cl(  2)  1.958550
 
 A cutoff of  1.0D-08 yielded    669 shell pairs
 There are   8378 function pairs ( 12069 Cartesian)
Evaluating contribution to one-electron hamiltonian from nuclear
 Smallest overlap matrix eigenvalue = 1.51E-03
 Multipole matrices computed through 2nd order

  Scale SEOQF with 1.000000e-01/1.000000e-01/1.000000e-01

 Standard Electronic Orientation quadrupole field applied
 Nucleus-field energy     =    -0.0000000073 hartrees
 Guess from superposition of atomic densities
 Warning:  Energy on first SCF cycle will be non-variational
 Long-range K will be added via erf
 Coulomb attenuation parameter = 0.47 bohr**(-1)
 An unrestricted Kohn-Sham SCF calculation will be
 performed using Pulay DIIS extrapolation
 Exchange:  wPBE + LR-HF      Correlation:  PBE
 Using SG-1 standard quadrature grid
 SCF converges when DIIS error is below 1.0E-05
 Requested basis set is G3large
 There are 38 shells and 132 basis functions
 A cutoff of  1.0D-08 yielded    669 shell pairs
 There are   8378 function pairs ( 12069 Cartesian)
 Warning!  Inaccurate integrated density:
   Number of electrons =    35
   Numerical integral  =    33.999886058379
   Relative error      =    -2.8574684046 %
 ---------------------------------------
  Cycle       Energy         DIIS Error
 ---------------------------------------
    1    -920.2691622654      2.44E-02
    2    -920.0979006917      3.38E-03
    3    -920.1314069081      2.07E-03
    4    -920.1361441068      3.38E-04
    5    -920.1365687738      1.23E-04
    6    -920.1366854979      4.45E-05
    7    -920.1367136959      1.62E-05
    8    -920.1367197901      3.98E-06 Convergence criterion met
 ---------------------------------------
 One-Electron    Energy = -1435.6207154773
 Total Coulomb   Energy =   493.9192557874
 Alpha Exchange  Energy =    -4.2695428871
 Beta  Exchange  Energy =    -4.0600160411
 DFT   Exchange  Energy =   -46.8303587937
 DFT Correlation Energy =    -1.3597486517
 Nuclear Repu.   Energy =    78.0844062735
 Nuclear Attr.   Energy = -2355.1805440504
 Kinetic         Energy =   919.5598285730
 <S^2> = 0.7575
 SCF time:  CPU 35.58 s  wall 36.06 s
 Final Alpha MO Eigenvalues
            1           2           3           4           5           6
    1-100.6655820-100.6655779  -9.1908531  -9.1908140  -7.0079064  -7.0077278
            7           8           9          10          11          12
    1  -6.9963334  -6.9963330  -6.9962901  -6.9962897  -0.8529722  -0.6706145
           13          14          15          16          17          18
    1  -0.3664522  -0.2953606  -0.2953598  -0.1708890  -0.1708877  -0.0343996
           19          20          21          22          23
    1   0.2560009   0.2616220   0.2784580   0.2784582   0.3037489
 Final Beta MO Eigenvalues
            1           2           3           4           5           6
    1-100.6623637-100.6623610  -9.1876956  -9.1876934  -7.0000513  -6.9998995
            7           8           9          10          11          12
    1  -6.9940817  -6.9940813  -6.9940719  -6.9940715  -0.8307735  -0.6411401
           13          14          15          16          17          18
    1  -0.3069975  -0.2853952  -0.2853941  -0.1613327  -0.1613300   0.2265969
           19          20          21          22
    1   0.2652165   0.2798201   0.2798205   0.3069503
 Analysis of SCF Wavefunction
 
 --------------------------------------------------------------
                    Orbital Energies (a.u.)
 --------------------------------------------------------------
 
 Alpha MOs
 -- Occupied --
*******-100.666  -9.191  -9.191  -7.008  -7.008  -6.996  -6.996
 -6.996  -6.996  -0.853  -0.671  -0.366  -0.295  -0.295  -0.171
 -0.171  -0.034
 -- Virtual --
  0.256   0.262   0.278   0.278   0.304   0.304   0.320   0.380
  0.545   0.546   0.550   0.550   0.611   0.673   0.673   0.680
  0.771   0.771   0.785   0.785   0.857   0.905   0.908   0.908
  1.120   1.326   1.326   1.364   1.364   1.377   1.411   1.411
  1.442   1.442   1.473   1.473   1.494   1.510   1.510   1.553
  1.553   1.689   1.740   1.740   1.805   1.805   1.878   2.051
  2.051   2.167   2.487   2.487   2.583   2.656   2.656   3.129
  4.706   4.706   4.720   4.721   4.753   4.753   4.800   4.802
  4.802   4.850   4.850   4.859   4.859   4.915   5.375   5.379
  5.381   5.410   5.412   5.420   5.420   5.495   5.495   6.056
  9.894  10.118  20.829  20.829  20.914  20.914  20.992  21.271
 27.375  27.381  27.390  27.455  27.465  27.465  27.470  27.504
 27.504  27.684  37.108  37.108  37.108  37.108  37.109  37.114
 37.114  37.121  37.121  37.125  37.125  37.126  37.126  37.141
215.706 216.039
 
 Beta MOs
 -- Occupied --
*******-100.662  -9.188  -9.188  -7.000  -7.000  -6.994  -6.994
 -6.994  -6.994  -0.831  -0.641  -0.307  -0.285  -0.285  -0.161
 -0.161
 -- Virtual --
  0.227   0.265   0.280   0.280   0.307   0.307   0.322   0.323
  0.382   0.547   0.547   0.562   0.562   0.643   0.675   0.675
  0.692   0.788   0.788   0.791   0.791   0.889   0.917   0.917
  0.919   1.140   1.340   1.340   1.371   1.371   1.395   1.413
  1.413   1.447   1.447   1.481   1.482   1.517   1.529   1.529
  1.554   1.554   1.710   1.753   1.753   1.813   1.813   1.888
  2.065   2.065   2.179   2.493   2.493   2.605   2.666   2.666
  3.153   4.715   4.715   4.739   4.740   4.761   4.761   4.822
  4.822   4.828   4.876   4.876   4.884   4.884   4.942   5.382
  5.383   5.384   5.413   5.415   5.427   5.427   5.503   5.503
  6.065   9.900  10.124  20.832  20.832  20.916  20.916  21.004
 21.283  27.378  27.390  27.392  27.458  27.472  27.472  27.473
 27.511  27.511  27.693  37.109  37.109  37.110  37.111  37.111
 37.114  37.114  37.123  37.123  37.128  37.128  37.129  37.129
 37.144 215.710 216.043
 --------------------------------------------------------------
 
          Ground-State Mulliken Net Atomic Charges

     Atom                 Charge (a.u.)    Spin (a.u.)
  --------------------------------------------------------
      1 Cl                   -0.500000       0.500000
      2 Cl                   -0.500000       0.500000
  --------------------------------------------------------
  Sum of atomic charges =    -1.000000
  Sum of spin   charges =     1.000000

 -----------------------------------------------------------------
                    Cartesian Multipole Moments
 -----------------------------------------------------------------
    Charge (ESU x 10^10)
                -4.8032
    Dipole Moment (Debye)
         X       0.0000      Y       0.0000      Z      -4.9048
       Tot       4.9048
    Quadrupole Moments (Debye-Ang)
        XX     -29.2335     XY      -0.0001     YY     -29.2335
        XZ       0.0006     YZ      -0.0013     ZZ     -44.6832
    Octapole Moments (Debye-Ang^2)
       XXX       0.0000    XXY       0.0000    XYY       0.0000
       YYY       0.0000    XXZ     -29.8519    XYZ      -0.0001
       YYZ     -29.8519    XZZ       0.0013    YZZ      -0.0027
       ZZZ    -126.6564
    Hexadecapole Moments (Debye-Ang^3)
      XXXX     -40.0918   XXXY      -0.0003   XXYY     -13.3644
      XYYY      -0.0003   YYYY     -40.0917   XXXZ       0.0023
      XXYZ      -0.0016   XYYZ       0.0008   YYYZ      -0.0047
      XXZZ     -78.8360   XYZZ      -0.0003   YYZZ     -78.8360
      XZZZ       0.0071   YZZZ      -0.0147   ZZZZ    -520.5640
 -----------------------------------------------------------------
 Total job time:  36.24s(wall), 35.75s(cpu) 
 Wed May 29 17:03:27 2013

        *************************************************************
        *                                                           *
        *  Thank you very much for using Q-Chem.  Have a nice day.  *
        *                                                           *
        *************************************************************


0 sent ACK to 0 
now end server 0 ... 
 
**********************************************************************
Job 2 of 3 
**********************************************************************
 
Process 0 of 1 is on cl245.stfx.acenet.ca - thread support 1
initial socket setup ...start
initial socket setup ...done 
now start server 0 ... 

cmd = /usr/bin/ssh clhead /usr/local/qchem/bin/get_hostid 2048343045 > /scratch/tmp/6022055.1.long.q/qchem10391/lic.dat
                  Welcome to Q-Chem
     A Quantum Leap Into The Future Of Chemistry

 Y. Shao, L. Fusti-Molnar, Y. Jung, J. Kussmann, C. Ochsenfeld,
 S. T. Brown, A. T. B. Gilbert, L. V. Slipchenko,S. V. Levchenko,
 D. P. O'Neill, R. A. DiStasio Jr., R. C. Lochan, T. Wang,
 G. J. O. Beran, N. A. Besley, J. M. Herbert, C. Y. Lin,
 T. Van Voorhis, S. H. Chien, A. Sodt, R. P. Steele, 
 V. A. Rassolov, P. E. Maslen, P. P. Korambath, R. D. Adamson,
 B. Austin, J. Baker, E. F. C. Byrd, H. Dachsel, R. J. Doerksen,
 A. Dreuw, B. D. Dunietz, A. D. Dutoi, T. R. Furlani,
 S. R. Gwaltney, A. Heyden, S. Hirata, C.-P. Hsu, G. Kedziora,
 R. Z. Khaliullin, P. Klunzinger, A. M. Lee, M. S. Lee, W. Liang,
 I. Lotan, N. Nair, B. Peters, E. I. Proynov, P. A. Pieniazek, 
 Y. M. Rhee, J. Ritchie, E. Rosta, C. D. Sherrill, 
 A. C. Simmonett, J. E. Subotnik, H. L. Woodcock III,
 W. Zhang, A. T. Bell, A. K. Chakraborty, D. M. Chipman,
 F. J. Keil, A. Warshel, W. J. Hehre, H. F. Schaefer III,
 J. Kong, A. I. Krylov, P. M. W. Gill, M. Head-Gordon,
 Q-Chem, Version 3.1, Q-Chem, Inc., Pittsburgh, PA (2007).

 Additional authors for Version 3.1: 
 Z. Gan, Y. Zhao, N. E. Schultz, D. Truhlar, E. Epifanovsky and M. Oana.

 Additional authors for Version 3.2: 
 R. Baer, B. R. Brooks, D. Casanova, J.-D. Chai, C.-L. Cheng, 
 C. Cramer, D. Crittenden, A. Ghysels, G. Hawkins, E. G. Hohenstein, 
 C. Kelley, W. Kurlancheek, D. Liotard, E. Livshits, P. Manohar, 
 A. Marenich, D. Neuhauser, R. Olson, M. A. Rohrdanz, K. S. Thanthiriwatte, 
 A. J. W. Thom, V. Vanovschi, C. F. Williams, Q. Wu and Z.-Q. You. 


 Intel X86 Linux Version

 Q-chem begins on Wed May 29 17:03:30 2013  

 Parallel job on  1  processors
Processing $rem in /usr/local/qchem/config/preferences.

theFileMan(): MAXOPENFILES=974 MAX_SUB_FILE_NUM=16
Maximum size of a physical file is 2.0 GB, maximum size of a tmp-file is 32.0 GB


--------------------------------------------------------------
User input:
--------------------------------------------------------------

$molecule
0,1
Cl         0.00000        0.00000        0.04188
Cl         0.00000        0.00000        2.00043
$end

$comment
neutral
$end

$xc_functional
C PBE   1.00
X wPBE  1.00
$end


$rem
SYMMETRY_DECOMPOSITION	0
LRC_DFT                 true
exchange 		general
BASIS                   g3large
omega			470
mem_static              760
max_scf_cycles          200
scf_final_print         1
sym_ignore              true
$end

--------------------------------------------------------------
 Writing REM_CC_EA            2
 ----------------------------------------------------
       Standard Nuclear Orientation (Angstroms)
    I     Atom         X            Y            Z
 ----------------------------------------------------
    1      Cl      0.000000     0.000000     0.041880
    2      Cl      0.000000     0.000000     2.000430
 ----------------------------------------------------
 Nuclear Repulsion Energy =    78.0844062808 hartrees
 There are       17 alpha and       17 beta electrons
 Requested basis set is G3large
 There are 38 shells and 132 basis functions

Total QAlloc Memory Limit   2000 MB
Mega-Array Size       743 MB
MEM_STATIC part       760 MB

                       Distance Matrix (Angstroms)
             Cl(  1)
   Cl(  2)  1.958550
 
 A cutoff of  1.0D-08 yielded    669 shell pairs
 There are   8378 function pairs ( 12069 Cartesian)
Evaluating contribution to one-electron hamiltonian from nuclear
 Smallest overlap matrix eigenvalue = 1.51E-03
 Multipole matrices computed through 2nd order

  Scale SEOQF with 1.000000e-01/1.000000e-01/1.000000e-01

 Standard Electronic Orientation quadrupole field applied
 Nucleus-field energy     =    -0.0000000073 hartrees
 Guess from superposition of atomic densities
 Warning:  Energy on first SCF cycle will be non-variational
 Long-range K will be added via erf
 Coulomb attenuation parameter = 0.47 bohr**(-1)
 A restricted Kohn-Sham SCF calculation will be
 performed using Pulay DIIS extrapolation
 Exchange:  wPBE + LR-HF      Correlation:  PBE
 Using SG-1 standard quadrature grid
 SCF converges when DIIS error is below 1.0E-05
 Requested basis set is G3large
 There are 38 shells and 132 basis functions
 A cutoff of  1.0D-08 yielded    669 shell pairs
 There are   8378 function pairs ( 12069 Cartesian)
 ---------------------------------------
  Cycle       Energy         DIIS Error
 ---------------------------------------
    1    -920.2691622654      2.44E-02
    2    -920.0932073786      3.29E-03
    3    -920.1089479869      2.13E-03
    4    -920.1143436431      2.08E-04
    5    -920.1145942631      7.16E-05
    6    -920.1146424806      2.52E-05
    7    -920.1146483932      6.12E-06 Convergence criterion met
 ---------------------------------------
 One-Electron    Energy = -1425.7746073266
 Total Coulomb   Energy =   483.7829206600
 Alpha Exchange  Energy =    -4.0820362199
 Beta  Exchange  Energy =    -4.0820362199
 DFT   Exchange  Energy =   -46.7132028301
 DFT Correlation Energy =    -1.3300927303
 Nuclear Repu.   Energy =    78.0844062735
 Nuclear Attr.   Energy = -2344.6982299073
 Kinetic         Energy =   918.9236225808
 SCF time:  CPU 27.51 s  wall 29.15 s
 Final Alpha MO Eigenvalues
            1           2           3           4           5           6
    1-100.9719769-100.9719746  -9.4927334  -9.4927317  -7.3127713  -7.3126188
            7           8           9          10          11          12
    1  -7.2965503  -7.2965487  -7.2965401  -7.2965384  -1.1278781  -0.9305843
           13          14          15          16          17          18
    1  -0.6027426  -0.5613200  -0.5613163  -0.4349774  -0.4349764  -0.0112045
           19          20          21          22
    1   0.0956915   0.1117164   0.1203151   0.1203154
 Analysis of SCF Wavefunction
 
 --------------------------------------------------------------
                    Orbital Energies (a.u.)
 --------------------------------------------------------------
 
 Alpha MOs
 -- Occupied --
*******-100.972  -9.493  -9.493  -7.313  -7.313  -7.297  -7.297
 -7.297  -7.297  -1.128  -0.931  -0.603  -0.561  -0.561  -0.435
 -0.435
 -- Virtual --
 -0.011   0.096   0.112   0.120   0.120   0.142   0.153   0.153
  0.222   0.306   0.306   0.310   0.311   0.400   0.438   0.438
  0.484   0.554   0.554   0.569   0.569   0.636   0.683   0.687
  0.687   0.880   1.072   1.072   1.117   1.117   1.129   1.170
  1.170   1.177   1.178   1.215   1.215   1.238   1.254   1.254
  1.311   1.311   1.445   1.476   1.476   1.559   1.559   1.629
  1.809   1.809   1.915   2.227   2.227   2.308   2.394   2.394
  2.863   4.431   4.431   4.442   4.443   4.478   4.478   4.520
  4.526   4.526   4.573   4.573   4.579   4.579   4.636   5.082
  5.093   5.095   5.125   5.127   5.129   5.129   5.202   5.202
  5.759   9.601   9.827  20.531  20.531  20.615  20.615  20.692
 20.971  27.077  27.079  27.092  27.157  27.163  27.163  27.172
 27.203  27.203  27.382  36.802  36.806  36.807  36.810  36.810
 36.815  36.815  36.818  36.819  36.821  36.821  36.821  36.821
 36.835 215.401 215.734
 --------------------------------------------------------------
 
          Ground-State Mulliken Net Atomic Charges

     Atom                 Charge (a.u.)
  ----------------------------------------
      1 Cl                   -0.000019
      2 Cl                    0.000019
  ----------------------------------------
  Sum of atomic charges =     0.000000

 -----------------------------------------------------------------
                    Cartesian Multipole Moments
 -----------------------------------------------------------------
    Charge (ESU x 10^10)
                 0.0000
    Dipole Moment (Debye)
         X       0.0000      Y       0.0000      Z       0.0000
       Tot       0.0000
    Quadrupole Moments (Debye-Ang)
        XX     -25.1453     XY      -0.0001     YY     -25.1453
        XZ       0.0002     YZ      -0.0003     ZZ     -22.1464
    Octapole Moments (Debye-Ang^2)
       XXX       0.0000    XXY       0.0000    XYY       0.0000
       YYY       0.0000    XXZ     -25.6773    XYZ      -0.0001
       YYZ     -25.6772    XZZ       0.0003    YZZ      -0.0006
       ZZZ     -67.8448
    Hexadecapole Moments (Debye-Ang^3)
      XXXX     -27.8520   XXXY      -0.0002   XXYY      -9.2845
      XYYY      -0.0002   YYYY     -27.8519   XXXZ       0.0001
      XXYZ      -0.0001   XYYZ       0.0000   YYYZ      -0.0002
      XXZZ     -59.4690   XYZZ      -0.0002   YYZZ     -59.4690
      XZZZ       0.0016   YZZZ      -0.0032   ZZZZ    -284.0891
 -----------------------------------------------------------------
 Total job time:  29.31s(wall), 27.66s(cpu) 
 Wed May 29 17:03:59 2013

        *************************************************************
        *                                                           *
        *  Thank you very much for using Q-Chem.  Have a nice day.  *
        *                                                           *
        *************************************************************


0 sent ACK to 0 
now end server 0 ... 
 
**********************************************************************
Job 3 of 3 
**********************************************************************
 
Process 0 of 1 is on cl245.stfx.acenet.ca - thread support 1
initial socket setup ...start
initial socket setup ...done 
now start server 0 ... 

cmd = /usr/bin/ssh clhead /usr/local/qchem/bin/get_hostid 899532125 > /scratch/tmp/6022055.1.long.q/qchem10391/lic.dat
                  Welcome to Q-Chem
     A Quantum Leap Into The Future Of Chemistry

 Y. Shao, L. Fusti-Molnar, Y. Jung, J. Kussmann, C. Ochsenfeld,
 S. T. Brown, A. T. B. Gilbert, L. V. Slipchenko,S. V. Levchenko,
 D. P. O'Neill, R. A. DiStasio Jr., R. C. Lochan, T. Wang,
 G. J. O. Beran, N. A. Besley, J. M. Herbert, C. Y. Lin,
 T. Van Voorhis, S. H. Chien, A. Sodt, R. P. Steele, 
 V. A. Rassolov, P. E. Maslen, P. P. Korambath, R. D. Adamson,
 B. Austin, J. Baker, E. F. C. Byrd, H. Dachsel, R. J. Doerksen,
 A. Dreuw, B. D. Dunietz, A. D. Dutoi, T. R. Furlani,
 S. R. Gwaltney, A. Heyden, S. Hirata, C.-P. Hsu, G. Kedziora,
 R. Z. Khaliullin, P. Klunzinger, A. M. Lee, M. S. Lee, W. Liang,
 I. Lotan, N. Nair, B. Peters, E. I. Proynov, P. A. Pieniazek, 
 Y. M. Rhee, J. Ritchie, E. Rosta, C. D. Sherrill, 
 A. C. Simmonett, J. E. Subotnik, H. L. Woodcock III,
 W. Zhang, A. T. Bell, A. K. Chakraborty, D. M. Chipman,
 F. J. Keil, A. Warshel, W. J. Hehre, H. F. Schaefer III,
 J. Kong, A. I. Krylov, P. M. W. Gill, M. Head-Gordon,
 Q-Chem, Version 3.1, Q-Chem, Inc., Pittsburgh, PA (2007).

 Additional authors for Version 3.1: 
 Z. Gan, Y. Zhao, N. E. Schultz, D. Truhlar, E. Epifanovsky and M. Oana.

 Additional authors for Version 3.2: 
 R. Baer, B. R. Brooks, D. Casanova, J.-D. Chai, C.-L. Cheng, 
 C. Cramer, D. Crittenden, A. Ghysels, G. Hawkins, E. G. Hohenstein, 
 C. Kelley, W. Kurlancheek, D. Liotard, E. Livshits, P. Manohar, 
 A. Marenich, D. Neuhauser, R. Olson, M. A. Rohrdanz, K. S. Thanthiriwatte, 
 A. J. W. Thom, V. Vanovschi, C. F. Williams, Q. Wu and Z.-Q. You. 


 Intel X86 Linux Version

 Q-chem begins on Wed May 29 17:04:02 2013  

 Parallel job on  1  processors
Processing $rem in /usr/local/qchem/config/preferences.

theFileMan(): MAXOPENFILES=974 MAX_SUB_FILE_NUM=16
Maximum size of a physical file is 2.0 GB, maximum size of a tmp-file is 32.0 GB


--------------------------------------------------------------
User input:
--------------------------------------------------------------

$molecule
1,2
Cl         0.00000        0.00000        0.04188
Cl         0.00000        0.00000        2.00043
$end

$comment
positive
$end

$xc_functional
C PBE   1.00
X wPBE  1.00
$end

$rem
SYMMETRY_DECOMPOSITION	0
LRC_DFT                 true
exchange 		general
BASIS                   g3large
omega			470
mem_static              760
max_scf_cycles          200
scf_final_print         1
sym_ignore              true
$end

--------------------------------------------------------------
 Writing REM_CC_EA            2
 ----------------------------------------------------
       Standard Nuclear Orientation (Angstroms)
    I     Atom         X            Y            Z
 ----------------------------------------------------
    1      Cl      0.000000     0.000000     0.041880
    2      Cl      0.000000     0.000000     2.000430
 ----------------------------------------------------
 Nuclear Repulsion Energy =    78.0844062808 hartrees
 There are       17 alpha and       16 beta electrons
 Requested basis set is G3large
 There are 38 shells and 132 basis functions

Total QAlloc Memory Limit   2000 MB
Mega-Array Size       743 MB
MEM_STATIC part       760 MB

                       Distance Matrix (Angstroms)
             Cl(  1)
   Cl(  2)  1.958550
 
 A cutoff of  1.0D-08 yielded    669 shell pairs
 There are   8378 function pairs ( 12069 Cartesian)
Evaluating contribution to one-electron hamiltonian from nuclear
 Smallest overlap matrix eigenvalue = 1.51E-03
 Multipole matrices computed through 2nd order

  Scale SEOQF with 1.000000e-01/1.000000e-01/1.000000e-01

 Standard Electronic Orientation quadrupole field applied
 Nucleus-field energy     =    -0.0000000073 hartrees
 Guess from superposition of atomic densities
 Warning:  Energy on first SCF cycle will be non-variational
 Long-range K will be added via erf
 Coulomb attenuation parameter = 0.47 bohr**(-1)
 An unrestricted Kohn-Sham SCF calculation will be
 performed using Pulay DIIS extrapolation
 Exchange:  wPBE + LR-HF      Correlation:  PBE
 Using SG-1 standard quadrature grid
 SCF converges when DIIS error is below 1.0E-05
 Requested basis set is G3large
 There are 38 shells and 132 basis functions
 A cutoff of  1.0D-08 yielded    669 shell pairs
 There are   8378 function pairs ( 12069 Cartesian)
 Warning!  Inaccurate integrated density:
   Number of electrons =    33
   Numerical integral  =    33.999886058379
   Relative error      =     3.0299577527 %
 ---------------------------------------
  Cycle       Energy         DIIS Error
 ---------------------------------------
    1    -920.2691622654      2.44E-02
    2    -919.6107615154      5.11E-03
    3    -919.6688077855      3.24E-03
    4    -919.6810689844      3.42E-04
    5    -919.6817212870      1.15E-04
    6    -919.6819063906      5.84E-05
    7    -919.6819816048      3.01E-05
    8    -919.6820251668      1.13E-05
    9    -919.6820393692      4.84E-06 Convergence criterion met
 ---------------------------------------
 One-Electron    Energy = -1414.4924614775
 Total Coulomb   Energy =   472.5431184188
 Alpha Exchange  Energy =    -4.1035971154
 Beta  Exchange  Energy =    -3.8530320841
 DFT   Exchange  Energy =   -46.5702332651
 DFT Correlation Energy =    -1.2902401193
 Nuclear Repu.   Energy =    78.0844062735
 Nuclear Attr.   Energy = -2332.8457318748
 Kinetic         Energy =   918.3532703973
 <S^2> = 0.7602
 SCF time:  CPU 39.75 s  wall 40.28 s
 Final Alpha MO Eigenvalues
            1           2           3           4           5           6
    1-101.3253296-101.3253000  -9.8398740  -9.8398498  -7.6575912  -7.6574413
            7           8           9          10          11          12
    1  -7.6539472  -7.6539196  -7.6399285  -7.6399018  -1.4531384  -1.2618506
           13          14          15          16          17          18
    1  -0.9162006  -0.8976369  -0.8659374  -0.7798848  -0.7430201  -0.3083713
           19          20          21          22
    1  -0.1003385  -0.0557967  -0.0553858  -0.0501515
 Final Beta MO Eigenvalues
            1           2           3           4           5           6
    1-101.3216913-101.3216620  -9.8366018  -9.8365297  -7.6557918  -7.6556363
            7           8           9          10          11          12
    1  -7.6443224  -7.6442983  -7.6374272  -7.6374011  -1.4327066  -1.2196065
           13          14          15          16          17          18
    1  -0.9037408  -0.8593319  -0.8036967  -0.7333342  -0.4304196  -0.2970797
           19          20          21
    1  -0.0994598  -0.0544095  -0.0532044
 Analysis of SCF Wavefunction
 
 --------------------------------------------------------------
                    Orbital Energies (a.u.)
 --------------------------------------------------------------
 
 Alpha MOs
 -- Occupied --
*******-101.325  -9.840  -9.840  -7.658  -7.657  -7.654  -7.654
 -7.640  -7.640  -1.453  -1.262  -0.916  -0.898  -0.866  -0.780
 -0.743
 -- Virtual --
 -0.308  -0.100  -0.056  -0.055  -0.050  -0.043  -0.010  -0.006
  0.014   0.033   0.035   0.035   0.053   0.154   0.159   0.159
  0.274   0.288   0.304   0.324   0.338   0.376   0.428   0.435
  0.443   0.603   0.780   0.796   0.834   0.839   0.847   0.859
  0.865   0.888   0.889   0.904   0.907   0.947   0.952   0.970
  1.029   1.029   1.164   1.170   1.184   1.276   1.276   1.347
  1.524   1.543   1.629   1.906   1.931   2.000   2.075   2.099
  2.563   4.085   4.085   4.105   4.106   4.133   4.134   4.175
  4.192   4.207   4.234   4.238   4.258   4.262   4.312   4.743
  4.752   4.764   4.784   4.786   4.788   4.805   4.859   4.876
  5.428   9.263   9.490  20.174  20.190  20.259  20.274  20.349
 20.629  26.726  26.733  26.741  26.807  26.811  26.821  26.822
 26.851  26.861  27.037  36.456  36.459  36.459  36.460  36.461
 36.465  36.467  36.470  36.472  36.472  36.474  36.481  36.481
 36.492 215.049 215.382
 
 Beta MOs
 -- Occupied --
*******-101.322  -9.837  -9.837  -7.656  -7.656  -7.644  -7.644
 -7.637  -7.637  -1.433  -1.220  -0.904  -0.859  -0.804  -0.733
 -- Virtual --
 -0.430  -0.297  -0.099  -0.054  -0.053  -0.050  -0.041  -0.006
 -0.006   0.034   0.047   0.050   0.051   0.054   0.162   0.186
  0.187   0.278   0.307   0.314   0.338   0.340   0.384   0.440
  0.445   0.445   0.608   0.796   0.799   0.846   0.846   0.857
  0.881   0.883   0.902   0.902   0.927   0.929   0.953   0.971
  0.972   1.046   1.046   1.177   1.182   1.186   1.287   1.288
  1.360   1.545   1.546   1.638   1.937   1.937   2.005   2.102
  2.104   2.567   4.118   4.118   4.127   4.129   4.167   4.167
  4.205   4.213   4.214   4.261   4.261   4.265   4.265   4.324
  4.755   4.762   4.767   4.794   4.797   4.797   4.805   4.869
  4.877   5.432   9.269   9.497  20.188  20.194  20.273  20.278
 20.351  20.631  26.734  26.737  26.749  26.814  26.819  26.823
 26.829  26.859  26.862  27.040  36.458  36.462  36.462  36.463
 36.465  36.468  36.470  36.473  36.474  36.474  36.476  36.481
 36.482  36.493 215.053 215.386
 --------------------------------------------------------------
 
          Ground-State Mulliken Net Atomic Charges

     Atom                 Charge (a.u.)    Spin (a.u.)
  --------------------------------------------------------
      1 Cl                    0.499984       0.499997
      2 Cl                    0.500016       0.500003
  --------------------------------------------------------
  Sum of atomic charges =     1.000000
  Sum of spin   charges =     1.000000

 -----------------------------------------------------------------
                    Cartesian Multipole Moments
 -----------------------------------------------------------------
    Charge (ESU x 10^10)
                 4.8032
    Dipole Moment (Debye)
         X       0.0000      Y       0.0000      Z       4.9050
       Tot       4.9050
    Quadrupole Moments (Debye-Ang)
        XX     -21.5241     XY      -0.7975     YY     -21.4497
        XZ       0.0018     YZ      -0.0017     ZZ      -7.6346
    Octapole Moments (Debye-Ang^2)
       XXX       0.0000    XXY       0.0000    XYY       0.0000
       YYY       0.0000    XXZ     -21.9794    XYZ      -0.8144
       YYZ     -21.9034    XZZ       0.0036    YZZ      -0.0036
       ZZZ     -33.6178
    Hexadecapole Moments (Debye-Ang^3)
      XXXX     -20.5630   XXXY      -0.6018   XXYY      -6.8352
      XYYY      -0.6020   YYYY     -20.4507   XXXZ       0.0015
      XXYZ      -0.0006   XYYZ       0.0006   YYYZ      -0.0016
      XXZZ     -48.6446   XYZZ      -2.1743   YYZZ     -48.4417
      XZZZ       0.0113   YZZZ      -0.0109   ZZZZ    -188.1263
 -----------------------------------------------------------------
 Total job time:  40.44s(wall), 39.91s(cpu) 
 Wed May 29 17:04:42 2013

        *************************************************************
        *                                                           *
        *  Thank you very much for using Q-Chem.  Have a nice day.  *
        *                                                           *
        *************************************************************


0 sent ACK to 0 
now end server 0 ... 
