Process 0 of 1 is on cl009.stfx.acenet.ca - thread support 1
initial socket setup ...start
initial socket setup ...done 
now start server 0 ... 

cmd = /usr/bin/ssh clhead /usr/local/qchem/bin/get_hostid 1055298301 > /scratch/tmp/5956721.1.short.q/qchem28176/lic.dat
                  Welcome to Q-Chem
     A Quantum Leap Into The Future Of Chemistry

 Y. Shao, L. Fusti-Molnar, Y. Jung, J. Kussmann, C. Ochsenfeld,
 S. T. Brown, A. T. B. Gilbert, L. V. Slipchenko,S. V. Levchenko,
 D. P. O'Neill, R. A. DiStasio Jr., R. C. Lochan, T. Wang,
 G. J. O. Beran, N. A. Besley, J. M. Herbert, C. Y. Lin,
 T. Van Voorhis, S. H. Chien, A. Sodt, R. P. Steele, 
 V. A. Rassolov, P. E. Maslen, P. P. Korambath, R. D. Adamson,
 B. Austin, J. Baker, E. F. C. Byrd, H. Dachsel, R. J. Doerksen,
 A. Dreuw, B. D. Dunietz, A. D. Dutoi, T. R. Furlani,
 S. R. Gwaltney, A. Heyden, S. Hirata, C.-P. Hsu, G. Kedziora,
 R. Z. Khaliullin, P. Klunzinger, A. M. Lee, M. S. Lee, W. Liang,
 I. Lotan, N. Nair, B. Peters, E. I. Proynov, P. A. Pieniazek, 
 Y. M. Rhee, J. Ritchie, E. Rosta, C. D. Sherrill, 
 A. C. Simmonett, J. E. Subotnik, H. L. Woodcock III,
 W. Zhang, A. T. Bell, A. K. Chakraborty, D. M. Chipman,
 F. J. Keil, A. Warshel, W. J. Hehre, H. F. Schaefer III,
 J. Kong, A. I. Krylov, P. M. W. Gill, M. Head-Gordon,
 Q-Chem, Version 3.1, Q-Chem, Inc., Pittsburgh, PA (2007).

 Additional authors for Version 3.1: 
 Z. Gan, Y. Zhao, N. E. Schultz, D. Truhlar, E. Epifanovsky and M. Oana.

 Additional authors for Version 3.2: 
 R. Baer, B. R. Brooks, D. Casanova, J.-D. Chai, C.-L. Cheng, 
 C. Cramer, D. Crittenden, A. Ghysels, G. Hawkins, E. G. Hohenstein, 
 C. Kelley, W. Kurlancheek, D. Liotard, E. Livshits, P. Manohar, 
 A. Marenich, D. Neuhauser, R. Olson, M. A. Rohrdanz, K. S. Thanthiriwatte, 
 A. J. W. Thom, V. Vanovschi, C. F. Williams, Q. Wu and Z.-Q. You. 


 Intel X86 Linux Version

 Q-chem begins on Wed May  1 12:16:05 2013  

 Parallel job on  1  processors
Processing $rem in /usr/local/qchem/config/preferences.

theFileMan(): MAXOPENFILES=974 MAX_SUB_FILE_NUM=16
Maximum size of a physical file is 2.0 GB, maximum size of a tmp-file is 32.0 GB


--------------------------------------------------------------
User input:
--------------------------------------------------------------

$molecule
0,1
N
N,1,AA
H,1,AH4,2,H4AA
H,1,AH5,2,H5AA,3,H4AH5,1
H,2,AH4,1,H4AA,3,H4AAH7,0
H,2,AH5,1,H5AA,5,H4AH5,1

AA=1.4373691
AH4=1.02194422
AH5=1.01729305
H4AA=111.78265471
H5AA=106.64309317
H4AH5=106.81573564
H4AAH7=25.8658655

$end

$comment
neutral
$end

$xc_functional
C PBE   1.00
X wPBE  1.00
$end


$rem
SYMMETRY_DECOMPOSITION	0
LRC_DFT                 true
exchange 		general
BASIS                   g3large
omega			400 
JOBTYPE                 opt
mem_static              760
max_scf_cycles          200
scf_final_print         1
sym_ignore              true
$end


--------------------------------------------------------------
 Writing REM_CC_EA            6
 ----------------------------------------------------
       Standard Nuclear Orientation (Angstroms)
    I     Atom         X            Y            Z
 ----------------------------------------------------
    1      N       0.000000     0.000000     0.000000
    2      N       0.000000     0.000000     1.437369
    3      H       0.948976     0.000000    -0.379230
    4      H      -0.433361     0.873036    -0.291362
    5      H       0.853905     0.414006     1.816599
    6      H      -0.009070    -0.974634     1.728731
 ----------------------------------------------------
 Nuclear Repulsion Energy =    41.4146934044 hartrees
 There are        9 alpha and        9 beta electrons
 Requested basis set is G3large
 There are 44 shells and 124 basis functions

Total QAlloc Memory Limit   2000 MB
Mega-Array Size       743 MB
MEM_STATIC part       760 MB
 A cutoff of  1.0D-11 yielded    986 shell pairs
 There are   7866 function pairs (  9493 Cartesian)
Evaluating contribution to one-electron hamiltonian from nuclear
 Smallest overlap matrix eigenvalue = 3.53E-04
 Multipole matrices computed through 2nd order

  Scale SEOQF with 1.000000e-01/1.000000e-01/1.000000e-01

 Standard Electronic Orientation quadrupole field applied
 Nucleus-field energy     =    -0.0000000020 hartrees
 Guess from superposition of atomic densities
 Warning:  Energy on first SCF cycle will be non-variational
 Long-range K will be added via erf
 Coulomb attenuation parameter = 0.4 bohr**(-1)
 A restricted Kohn-Sham SCF calculation will be
 performed using Pulay DIIS extrapolation
 Exchange:  wPBE + LR-HF      Correlation:  PBE
 Using SG-1 standard quadrature grid
 SCF converges when DIIS error is below 1.0E-08
 Requested basis set is G3large
 There are 44 shells and 124 basis functions
 A cutoff of  1.0D-11 yielded    986 shell pairs
 There are   7866 function pairs (  9493 Cartesian)
 ---------------------------------------
  Cycle       Energy         DIIS Error
 ---------------------------------------
    1    -112.0252178009      3.89E-02
    2    -111.8029209494      4.58E-03
    3    -111.8246109673      3.30E-03
    4    -111.8400033234      4.41E-04
    5    -111.8403163404      9.87E-05
    6    -111.8403524596      1.82E-05
    7    -111.8403546597      4.88E-06
    8    -111.8403548800      1.38E-06
    9    -111.8403549081      2.98E-07
   10    -111.8403549116      7.88E-08
   11    -111.8403549128      1.70E-08
   12    -111.8403549130      4.35E-09 Convergence criterion met
 ---------------------------------------
 One-Electron    Energy =  -233.1280174672
 Total Coulomb   Energy =    95.1099711994
 Alpha Exchange  Energy =    -1.8005931519
 Beta  Exchange  Energy =    -1.8005931519
 DFT   Exchange  Energy =   -11.0488616985
 DFT Correlation Energy =    -0.5869540453
 Nuclear Repu.   Energy =    41.4146934024
 Nuclear Attr.   Energy =  -344.4924566723
 Kinetic         Energy =   111.3644392051
 SCF time:  CPU 44.20 s  wall 46.51 s
 Final Alpha MO Eigenvalues
            1           2           3           4           5           6
    1 -14.2063295 -14.2063020  -1.0917493  -0.8876395  -0.6309417  -0.6169104
            7           8           9          10          11          12
    1  -0.5739134  -0.3820525  -0.3770745   0.0395812   0.0591047   0.0716775
           13          14
    1   0.0740231   0.1849563
 Analysis of SCF Wavefunction
 
 --------------------------------------------------------------
                    Orbital Energies (a.u.)
 --------------------------------------------------------------
 
 Alpha MOs
 -- Occupied --
-14.206 -14.206  -1.092  -0.888  -0.631  -0.617  -0.574  -0.382
 -0.377
 -- Virtual --
  0.040   0.059   0.072   0.074   0.185   0.190   0.196   0.198
  0.216   0.230   0.255   0.256   0.266   0.299   0.300   0.341
  0.359   0.589   0.616   0.669   0.672   0.677   0.701   0.760
  0.763   0.805   0.824   0.826   0.862   0.987   1.008   1.076
  1.083   1.108   1.144   1.277   1.308   1.360   1.455   1.459
  1.500   1.549   1.621   1.653   1.739   1.788   1.853   1.920
  1.970   2.022   2.042   2.478   2.668   2.814   2.893   3.370
  3.402   3.471   3.480   3.494   3.562   3.627   3.650   3.699
  3.807   3.849   3.855   3.879   3.896   4.002   4.011   4.163
  4.411   4.422   4.500   4.501   4.694   4.737   4.820   4.872
  4.986   5.081   5.182   5.222   5.243   5.280   5.284   5.393
  5.458   5.553   5.591   5.626   5.717   6.314   6.489   6.505
  6.531  35.529  35.548  37.321  37.626  37.799  38.166  38.211
 38.774  40.572  40.598  40.603  40.648  40.660  40.674  40.690
 40.718  40.725  40.744
 --------------------------------------------------------------
 
          Ground-State Mulliken Net Atomic Charges

     Atom                 Charge (a.u.)
  ----------------------------------------
      1 N                    -0.338144
      2 N                    -0.338189
      3 H                     0.155354
      4 H                     0.182795
      5 H                     0.155328
      6 H                     0.182856
  ----------------------------------------
  Sum of atomic charges =     0.000000

 -----------------------------------------------------------------
                    Cartesian Multipole Moments
 -----------------------------------------------------------------
    Charge (ESU x 10^10)
                 0.0000
    Dipole Moment (Debye)
         X       2.0542      Y       0.4718      Z       0.0000
       Tot       2.1077
    Quadrupole Moments (Debye-Ang)
        XX     -12.8296     XY      -0.0724     YY     -12.5308
        XZ       2.0962     YZ      -2.3602     ZZ     -13.3076
    Octapole Moments (Debye-Ang^2)
       XXX       0.1811    XXY       0.6174    XYY      -1.0458
       YYY      -0.8159    XXZ     -10.1860    XYZ       1.9396
       YYZ      -8.0400    XZZ       4.6195    YZZ      -3.0235
       ZZZ     -28.6918
    Hexadecapole Moments (Debye-Ang^3)
      XXXX     -19.4141   XXXY       0.2759   XXYY      -6.7335
      XYYY      -0.4497   YYYY     -18.6974   XXXZ      -0.5035
      XXYZ       1.2165   XYYZ      -0.0198   YYYZ      -1.7869
      XXZZ     -21.2494   XYZZ       2.8524   YYZZ     -18.4309
      XZZZ       7.9060   YZZZ      -4.5669   ZZZZ    -106.8448
 -----------------------------------------------------------------
 Calculating analytic gradient of the SCF energy
 Gradient of AOints
            1           2           3           4           5           6
    1   1.5993823   2.9476355  -3.1564131   1.4722594  -2.8269165  -0.0359476
    2   3.4571884  -2.4134948   0.0304872  -3.1187530  -1.4041397   3.4487120
    3   5.1358040  -5.1359641   1.6302352   1.2832734  -1.6302663  -1.2830823
 Gradient of XC Energy
            1           2           3           4           5           6
    1  -0.1035452  -0.1828360   0.2012751  -0.0944677   0.1802024  -0.0006285
    2  -0.2056311   0.1399128  -0.0020479   0.1934135   0.0896377  -0.2152852
    3  -0.0513827   0.0514471  -0.0865364  -0.0661408   0.0864864   0.0661265
 Gradient of SCF Energy
            1           2           3           4           5           6
    1  -0.0050752  -0.0091619   0.0065595  -0.0008410   0.0066301   0.0018885
    2  -0.0106435   0.0074036   0.0017030   0.0060836   0.0013269  -0.0058736
    3  -0.0071851   0.0072469  -0.0033543  -0.0004796   0.0033013   0.0004708
 Max gradient component =       1.064E-02
 RMS gradient           =       5.637E-03
 Gradient time:  CPU 14.49 s  wall 14.73 s
 Geometry Optimization Parameters
   NAtoms,    NIC,     NZ,  NCons,   NDum,   NFix, NCnnct, MaxDiis
        6      27       6       0       0       0       0       0


** GEOMETRY OPTIMIZATION IN DELOCALIZED INTERNAL COORDINATES **
   Searching for a Minimum

   Optimization Cycle:   1

                       Coordinates (Angstroms)
     ATOM              X           Y           Z
    1  N           0.000000    0.000000    0.000000
    2  N           0.000000    0.000000    1.437369
    3  H           0.948976    0.000000   -0.379230
    4  H          -0.433361    0.873036   -0.291362
    5  H           0.853905    0.414006    1.816599
    6  H          -0.009070   -0.974634    1.728731
   Point Group: c1    Number of degrees of freedom:  12


   Energy is   -111.840354913


 Attempting to Generate Delocalized Internal Coordinates

 12 Hessian modes will be used to form the next step
  Hessian Eigenvalues:
     0.004164    0.054769    0.054769    0.160000    0.160000    0.160000
     0.160000    0.399485    0.440293    0.440293    0.447728    0.447728

 Minimum Search - Taking Simple RFO Step
 Searching for Lamda that Minimizes Along All modes
 Value Taken    Lamda =  -0.00111372
 Step Taken.  Stepsize is  0.102806

                             Maximum     Tolerance    Cnvgd?
         Gradient           0.011090      0.000300      NO
         Displacement       0.080799      0.001200      NO
         Energy change     *********      0.000001      NO


 New Cartesian Coordinates Obtained by Inverse Iteration

 Displacement from previous Coordinates is:  0.073735
 Writing REM_CC_EA            6
 ----------------------------------------------------
       Standard Nuclear Orientation (Angstroms)
    I     Atom         X            Y            Z
 ----------------------------------------------------
    1      N       0.011000     0.011724     0.007269
    2      N       0.015028    -0.005777     1.429966
    3      H       0.949924     0.007521    -0.373335
    4      H      -0.446843     0.860359    -0.295099
    5      H       0.858038     0.407613     1.810771
    6      H      -0.026697    -0.969032     1.732536
 ----------------------------------------------------
 Nuclear Repulsion Energy =    41.7431082506 hartrees
 There are        9 alpha and        9 beta electrons
 Applying Cartesian multipole field
    Component          Value
    ---------          -----
     (2,0,0)        1.00000E-11
     (0,2,0)        2.00000E-11
     (0,0,2)       -3.00000E-11
 Nucleus-field energy     =    -0.0000000020 hartrees
 Requested basis set is G3large
 There are 44 shells and 124 basis functions
 A cutoff of  1.0D-11 yielded    986 shell pairs
 There are   7866 function pairs (  9493 Cartesian)
Evaluating contribution to one-electron hamiltonian from nuclear
 Smallest overlap matrix eigenvalue = 3.48E-04
 Multipole matrices computed through 2nd order
 Guess MOs from SCF MO coefficient file
Reading MOs from coefficient file
Reading MOs from coefficient file
 Long-range K will be added via erf
 Coulomb attenuation parameter = 0.4 bohr**(-1)
 A restricted Kohn-Sham SCF calculation will be
 performed using Pulay DIIS extrapolation
 Exchange:  wPBE + LR-HF      Correlation:  PBE
 Using SG-1 standard quadrature grid
 SCF converges when DIIS error is below 1.0E-08
 Requested basis set is G3large
 There are 44 shells and 124 basis functions
 A cutoff of  1.0D-11 yielded    986 shell pairs
 There are   7866 function pairs (  9493 Cartesian)
 ---------------------------------------
  Cycle       Energy         DIIS Error
 ---------------------------------------
    1    -111.8594153336      7.89E-04
    2    -111.8410311053      1.47E-04
    3    -111.8410670537      1.10E-04
    4    -111.8410856209      1.63E-05
    5    -111.8410868852      4.69E-06
    6    -111.8410870603      1.18E-06
    7    -111.8410870747      2.96E-07
    8    -111.8410870787      8.71E-08
    9    -111.8410870790      4.70E-08
   10    -111.8410870794      8.64E-09 Convergence criterion met
 ---------------------------------------
 One-Electron    Energy =  -233.7627187034
 Total Coulomb   Energy =    95.4348810179
 Alpha Exchange  Energy =    -1.8018965464
 Beta  Exchange  Energy =    -1.8018965464
 DFT   Exchange  Energy =   -11.0645383988
 DFT Correlation Energy =    -0.5880261509
 Nuclear Repu.   Energy =    41.7431082486
 Nuclear Attr.   Energy =  -345.1843578555
 Kinetic         Energy =   111.4216391520
 SCF time:  CPU 38.27 s  wall 39.68 s
 Final Alpha MO Eigenvalues
            1           2           3           4           5           6
    1 -14.2033203 -14.2032892  -1.0955440  -0.8880702  -0.6351720  -0.6191392
            7           8           9          10          11          12
    1  -0.5813533  -0.3814472  -0.3721775   0.0402617   0.0594913   0.0720559
           13          14
    1   0.0735544   0.1863792
 Analysis of SCF Wavefunction
 
 --------------------------------------------------------------
                    Orbital Energies (a.u.)
 --------------------------------------------------------------
 
 Alpha MOs
 -- Occupied --
-14.203 -14.203  -1.096  -0.888  -0.635  -0.619  -0.581  -0.381
 -0.372
 -- Virtual --
  0.040   0.059   0.072   0.074   0.186   0.191   0.197   0.199
  0.218   0.232   0.253   0.256   0.267   0.298   0.305   0.341
  0.368   0.595   0.622   0.669   0.673   0.675   0.707   0.761
  0.767   0.804   0.820   0.832   0.862   0.997   1.007   1.083
  1.088   1.107   1.143   1.279   1.291   1.365   1.456   1.463
  1.508   1.557   1.623   1.675   1.738   1.795   1.855   1.920
  1.962   2.037   2.043   2.481   2.651   2.817   2.905   3.374
  3.409   3.479   3.480   3.503   3.555   3.647   3.673   3.715
  3.828   3.858   3.871   3.904   3.926   4.015   4.016   4.174
  4.400   4.422   4.492   4.519   4.724   4.732   4.844   4.883
  5.029   5.068   5.194   5.230   5.286   5.288   5.291   5.398
  5.461   5.567   5.597   5.640   5.722   6.339   6.537   6.550
  6.571  35.569  35.573  37.337  37.620  37.802  38.192  38.238
 38.801  40.579  40.605  40.620  40.654  40.665  40.679  40.695
 40.725  40.735  40.754
 --------------------------------------------------------------
 
          Ground-State Mulliken Net Atomic Charges

     Atom                 Charge (a.u.)
  ----------------------------------------
      1 N                    -0.338196
      2 N                    -0.338279
      3 H                     0.154953
      4 H                     0.183281
      5 H                     0.154919
      6 H                     0.183322
  ----------------------------------------
  Sum of atomic charges =     0.000000

 -----------------------------------------------------------------
                    Cartesian Multipole Moments
 -----------------------------------------------------------------
    Charge (ESU x 10^10)
                 0.0000
    Dipole Moment (Debye)
         X       1.9624      Y       0.4508      Z       0.0002
       Tot       2.0135
    Quadrupole Moments (Debye-Ang)
        XX     -12.7087     XY      -0.0334     YY     -12.5718
        XZ       2.0285     YZ      -2.3679     ZZ     -13.2276
    Octapole Moments (Debye-Ang^2)
       XXX      -0.2246    XXY       0.6210    XYY      -1.2444
       YYY      -0.9573    XXZ     -10.1126    XYZ       1.9964
       YYZ      -8.0551    XZZ       4.2968    YZZ      -3.0864
       ZZZ     -28.5162
    Hexadecapole Moments (Debye-Ang^3)
      XXXX     -19.2386   XXXY       0.2695   XXYY      -6.6752
      XYYY      -0.4001   YYYY     -18.7002   XXXZ      -0.8357
      XXYZ       1.2817   XYYZ      -0.2049   YYYZ      -1.5924
      XXZZ     -20.9477   XYZZ       2.9377   YYZZ     -18.2715
      XZZZ       7.2551   YZZZ      -4.5858   ZZZZ    -105.5267
 -----------------------------------------------------------------
 Calculating analytic gradient of the SCF energy
 Gradient of AOints
            1           2           3           4           5           6
    1   1.5360159   2.8113165  -3.1972490   1.6028447  -2.8544474   0.1015192
    2   3.2767006  -2.2790295   0.0505634  -3.0722230  -1.4395274   3.4635159
    3   5.1315162  -5.1296893   1.6552265   1.3609656  -1.6560483  -1.3619707
 Gradient of XC Energy
            1           2           3           4           5           6
    1  -0.0991557  -0.1755185   0.2037239  -0.1021503   0.1818734  -0.0087728
    2  -0.1980080   0.1349844  -0.0032180   0.1905959   0.0917355  -0.2160898
    3  -0.0494608   0.0494080  -0.0880897  -0.0706859   0.0880835   0.0707449
 Gradient of SCF Energy
            1           2           3           4           5           6
    1  -0.0013640  -0.0024069   0.0011008   0.0003774   0.0014499   0.0008429
    2  -0.0027681   0.0018936   0.0009904   0.0011752  -0.0004086  -0.0008825
    3  -0.0047090   0.0047081   0.0002352  -0.0000573  -0.0002465   0.0000696
 Max gradient component =       4.709E-03
 RMS gradient           =       1.984E-03
 Gradient time:  CPU 14.54 s  wall 14.78 s
 Geometry Optimization Parameters
   NAtoms,    NIC,     NZ,  NCons,   NDum,   NFix, NCnnct, MaxDiis
        6      27       6       0       0       0       0       0

 Cartesian Hessian Update
 Hessian Updated using BFGS Update


** GEOMETRY OPTIMIZATION IN DELOCALIZED INTERNAL COORDINATES **
   Searching for a Minimum

   Optimization Cycle:   2

                       Coordinates (Angstroms)
     ATOM              X           Y           Z
    1  N           0.011000    0.011724    0.007269
    2  N           0.015028   -0.005777    1.429966
    3  H           0.949924    0.007521   -0.373335
    4  H          -0.446843    0.860359   -0.295099
    5  H           0.858038    0.407613    1.810771
    6  H          -0.026697   -0.969032    1.732536
   Point Group: c1    Number of degrees of freedom:  12


   Energy is   -111.841087079

 Hessian Updated using BFGS Update

 10 Hessian modes will be used to form the next step
  Hessian Eigenvalues:
     0.004259    0.038895    0.054770    0.157135    0.173049    0.340443
     0.440293    0.444730    0.447728    0.468806

 Minimum Search - Taking Simple RFO Step
 Searching for Lamda that Minimizes Along All modes
 Value Taken    Lamda =  -0.00031949
 Step Taken.  Stepsize is  0.084692

                             Maximum     Tolerance    Cnvgd?
         Gradient           0.004566      0.000300      NO
         Displacement       0.059184      0.001200      NO
         Energy change     -0.000732      0.000001      NO


 New Cartesian Coordinates Obtained by Inverse Iteration

 Displacement from previous Coordinates is:  0.063238
 Writing REM_CC_EA            6
 ----------------------------------------------------
       Standard Nuclear Orientation (Angstroms)
    I     Atom         X            Y            Z
 ----------------------------------------------------
    1      N       0.018476     0.021858     0.012848
    2      N       0.026118    -0.011572     1.424426
    3      H       0.945917    -0.005086    -0.386750
    4      H      -0.449872     0.860835    -0.292342
    5      H       0.848949     0.417128     1.824218
    6      H      -0.029138    -0.970756     1.729706
 ----------------------------------------------------
 Nuclear Repulsion Energy =    41.9169427088 hartrees
 There are        9 alpha and        9 beta electrons
 Applying Cartesian multipole field
    Component          Value
    ---------          -----
     (2,0,0)        1.00000E-11
     (0,2,0)        2.00000E-11
     (0,0,2)       -3.00000E-11
 Nucleus-field energy     =    -0.0000000020 hartrees
 Requested basis set is G3large
 There are 44 shells and 124 basis functions
 A cutoff of  1.0D-11 yielded    986 shell pairs
 There are   7866 function pairs (  9493 Cartesian)
Evaluating contribution to one-electron hamiltonian from nuclear
 Smallest overlap matrix eigenvalue = 3.45E-04
 Multipole matrices computed through 2nd order
 Guess MOs from SCF MO coefficient file
Reading MOs from coefficient file
Reading MOs from coefficient file
 Long-range K will be added via erf
 Coulomb attenuation parameter = 0.4 bohr**(-1)
 A restricted Kohn-Sham SCF calculation will be
 performed using Pulay DIIS extrapolation
 Exchange:  wPBE + LR-HF      Correlation:  PBE
 Using SG-1 standard quadrature grid
 SCF converges when DIIS error is below 1.0E-08
 Requested basis set is G3large
 There are 44 shells and 124 basis functions
 A cutoff of  1.0D-11 yielded    986 shell pairs
 There are   7866 function pairs (  9493 Cartesian)
 ---------------------------------------
  Cycle       Energy         DIIS Error
 ---------------------------------------
    1    -111.8499673413      6.62E-04
    2    -111.8412337523      1.08E-04
    3    -111.8412563275      5.79E-05
    4    -111.8412618572      1.84E-05
    5    -111.8412626417      4.20E-06
    6    -111.8412627633      8.60E-07
    7    -111.8412627744      2.39E-07
    8    -111.8412627770      5.68E-08
    9    -111.8412627774      1.92E-08
   10    -111.8412627773      1.05E-08
   11    -111.8412627773      1.68E-09 Convergence criterion met
 ---------------------------------------
 One-Electron    Energy =  -234.1054521396
 Total Coulomb   Energy =    95.6119540058
 Alpha Exchange  Energy =    -1.8024350146
 Beta  Exchange  Energy =    -1.8024350146
 DFT   Exchange  Energy =   -11.0712622812
 DFT Correlation Energy =    -0.5885750400
 Nuclear Repu.   Energy =    41.9169427068
 Nuclear Attr.   Energy =  -345.5470204801
 Kinetic         Energy =   111.4415683405
 SCF time:  CPU 41.48 s  wall 42.55 s
 Final Alpha MO Eigenvalues
            1           2           3           4           5           6
    1 -14.2016587 -14.2016258  -1.0969691  -0.8872384  -0.6368522  -0.6222041
            7           8           9          10          11          12
    1  -0.5850968  -0.3773057  -0.3709734   0.0408124   0.0597037   0.0717549
           13          14
    1   0.0736089   0.1882307
 Analysis of SCF Wavefunction
 
 --------------------------------------------------------------
                    Orbital Energies (a.u.)
 --------------------------------------------------------------
 
 Alpha MOs
 -- Occupied --
-14.202 -14.202  -1.097  -0.887  -0.637  -0.622  -0.585  -0.377
 -0.371
 -- Virtual --
  0.041   0.060   0.072   0.074   0.188   0.191   0.198   0.200
  0.220   0.233   0.250   0.255   0.268   0.298   0.307   0.338
  0.376   0.600   0.626   0.669   0.672   0.676   0.714   0.761
  0.769   0.804   0.819   0.837   0.861   1.003   1.007   1.086
  1.088   1.104   1.146   1.272   1.284   1.369   1.451   1.467
  1.511   1.563   1.621   1.687   1.737   1.794   1.864   1.919
  1.958   2.043   2.045   2.496   2.637   2.819   2.912   3.382
  3.412   3.474   3.484   3.508   3.548   3.664   3.687   3.730
  3.840   3.868   3.884   3.916   3.939   4.024   4.024   4.176
  4.376   4.416   4.485   4.512   4.712   4.752   4.849   4.890
  5.057   5.058   5.205   5.234   5.281   5.293   5.327   5.401
  5.468   5.575   5.609   5.651   5.729   6.351   6.538   6.573
  6.588  35.582  35.595  37.348  37.604  37.802  38.204  38.249
 38.817  40.580  40.604  40.635  40.657  40.668  40.681  40.698
 40.729  40.741  40.760
 --------------------------------------------------------------
 
          Ground-State Mulliken Net Atomic Charges

     Atom                 Charge (a.u.)
  ----------------------------------------
      1 N                    -0.339559
      2 N                    -0.339530
      3 H                     0.156200
      4 H                     0.183357
      5 H                     0.156156
      6 H                     0.183376
  ----------------------------------------
  Sum of atomic charges =     0.000000

 -----------------------------------------------------------------
                    Cartesian Multipole Moments
 -----------------------------------------------------------------
    Charge (ESU x 10^10)
                 0.0000
    Dipole Moment (Debye)
         X       1.9028      Y       0.4368      Z       0.0001
       Tot       1.9523
    Quadrupole Moments (Debye-Ang)
        XX     -12.7435     XY      -0.0536     YY     -12.5254
        XZ       1.9610     YZ      -2.2690     ZZ     -13.0928
    Octapole Moments (Debye-Ang^2)
       XXX      -0.5986    XXY       0.5915    XYY      -1.3685
       YYY      -1.0441    XXZ     -10.1652    XYZ       2.0382
       YYZ      -7.9949    XZZ       4.1486    YZZ      -2.9564
       ZZZ     -28.2265
    Hexadecapole Moments (Debye-Ang^3)
      XXXX     -19.3140   XXXY       0.2331   XXYY      -6.6593
      XYYY      -0.3823   YYYY     -18.7004   XXXZ      -1.1885
      XXYZ       1.3781   XYYZ      -0.2888   YYYZ      -1.4256
      XXZZ     -20.8764   XYZZ       3.0065   YYZZ     -18.0754
      XZZZ       6.9463   YZZZ      -4.1476   ZZZZ    -104.2984
 -----------------------------------------------------------------
 Calculating analytic gradient of the SCF energy
 Gradient of AOints
            1           2           3           4           5           6
    1   1.4852627   2.6739171  -3.1814171   1.6632625  -2.8015453   0.1605202
    2   3.0629061  -2.1094678   0.1398544  -3.0600656  -1.5122323   3.4790051
    3   5.1146177  -5.1130607   1.7342548   1.3800928  -1.7351381  -1.3807664
 Gradient of XC Energy
            1           2           3           4           5           6
    1  -0.0953727  -0.1678980   0.2026118  -0.1055804   0.1785209  -0.0122817
    2  -0.1881554   0.1278169  -0.0086877   0.1895506   0.0961257  -0.2166502
    3  -0.0472859   0.0472504  -0.0930934  -0.0718152   0.0930934   0.0718507
 Gradient of SCF Energy
            1           2           3           4           5           6
    1   0.0006275   0.0005517  -0.0008888   0.0002930  -0.0006985   0.0001151
    2  -0.0000391   0.0003105   0.0001338  -0.0003387  -0.0005237   0.0004574
    3  -0.0016712   0.0016714   0.0004538   0.0003148  -0.0004592  -0.0003096
 Max gradient component =       1.671E-03
 RMS gradient           =       7.066E-04
 Gradient time:  CPU 14.24 s  wall 14.89 s
 Geometry Optimization Parameters
   NAtoms,    NIC,     NZ,  NCons,   NDum,   NFix, NCnnct, MaxDiis
        6      27       6       0       0       0       0       0

 Cartesian Hessian Update
 Hessian Updated using BFGS Update


** GEOMETRY OPTIMIZATION IN DELOCALIZED INTERNAL COORDINATES **
   Searching for a Minimum

   Optimization Cycle:   3

                       Coordinates (Angstroms)
     ATOM              X           Y           Z
    1  N           0.018476    0.021858    0.012848
    2  N           0.026118   -0.011572    1.424426
    3  H           0.945917   -0.005086   -0.386750
    4  H          -0.449872    0.860835   -0.292342
    5  H           0.848949    0.417128    1.824218
    6  H          -0.029138   -0.970756    1.729706
   Point Group: c1    Number of degrees of freedom:  12


   Energy is   -111.841262777

 Hessian Updated using BFGS Update

 11 Hessian modes will be used to form the next step
  Hessian Eigenvalues:
     0.004249    0.034512    0.054770    0.154887    0.160000    0.175685
     0.331322    0.440293    0.445159    0.447728    0.488191

 Minimum Search - Taking Simple RFO Step
 Searching for Lamda that Minimizes Along All modes
 Value Taken    Lamda =  -0.00001425
 Step Taken.  Stepsize is  0.015792

                             Maximum     Tolerance    Cnvgd?
         Gradient           0.001364      0.000300      NO
         Displacement       0.011156      0.001200      NO
         Energy change     -0.000176      0.000001      NO


 New Cartesian Coordinates Obtained by Inverse Iteration

 Displacement from previous Coordinates is:  0.010896
 Writing REM_CC_EA            6
 ----------------------------------------------------
       Standard Nuclear Orientation (Angstroms)
    I     Atom         X            Y            Z
 ----------------------------------------------------
    1      N       0.019046     0.023785     0.013987
    2      N       0.027476    -0.013085     1.423278
    3      H       0.946020    -0.007308    -0.388814
    4      H      -0.450685     0.861873    -0.292820
    5      H       0.848049     0.419207     1.826232
    6      H      -0.029456    -0.972065     1.730245
 ----------------------------------------------------
 Nuclear Repulsion Energy =    41.9312020545 hartrees
 There are        9 alpha and        9 beta electrons
 Applying Cartesian multipole field
    Component          Value
    ---------          -----
     (2,0,0)        1.00000E-11
     (0,2,0)        2.00000E-11
     (0,0,2)       -3.00000E-11
 Nucleus-field energy     =    -0.0000000020 hartrees
 Requested basis set is G3large
 There are 44 shells and 124 basis functions
 A cutoff of  1.0D-11 yielded    986 shell pairs
 There are   7866 function pairs (  9493 Cartesian)
Evaluating contribution to one-electron hamiltonian from nuclear
 Smallest overlap matrix eigenvalue = 3.44E-04
 Multipole matrices computed through 2nd order
 Guess MOs from SCF MO coefficient file
Reading MOs from coefficient file
Reading MOs from coefficient file
 Long-range K will be added via erf
 Coulomb attenuation parameter = 0.4 bohr**(-1)
 A restricted Kohn-Sham SCF calculation will be
 performed using Pulay DIIS extrapolation
 Exchange:  wPBE + LR-HF      Correlation:  PBE
 Using SG-1 standard quadrature grid
 SCF converges when DIIS error is below 1.0E-08
 Requested basis set is G3large
 There are 44 shells and 124 basis functions
 A cutoff of  1.0D-11 yielded    986 shell pairs
 There are   7866 function pairs (  9493 Cartesian)
 ---------------------------------------
  Cycle       Energy         DIIS Error
 ---------------------------------------
    1    -111.8413466512      1.42E-04
    2    -111.8412691640      2.49E-05
    3    -111.8412702060      8.74E-06
    4    -111.8412703867      2.85E-06
    5    -111.8412703880      1.27E-06
    6    -111.8412704045      1.67E-07
    7    -111.8412704061      4.62E-08
    8    -111.8412704063      1.01E-08
    9    -111.8412704065      3.70E-09 Convergence criterion met
 ---------------------------------------
 One-Electron    Energy =  -234.1361389474
 Total Coulomb   Energy =    95.6279812917
 Alpha Exchange  Energy =    -1.8024061252
 Beta  Exchange  Energy =    -1.8024061252
 DFT   Exchange  Energy =   -11.0708952369
 DFT Correlation Energy =    -0.5886073160
 Nuclear Repu.   Energy =    41.9312020525
 Nuclear Attr.   Energy =  -345.5743782755
 Kinetic         Energy =   111.4382393281
 SCF time:  CPU 33.76 s  wall 34.94 s
 Final Alpha MO Eigenvalues
            1           2           3           4           5           6
    1 -14.2015836 -14.2015502  -1.0970929  -0.8866417  -0.6367464  -0.6223747
            7           8           9          10          11          12
    1  -0.5858233  -0.3764658  -0.3706855   0.0408804   0.0597112   0.0717002
           13          14
    1   0.0736014   0.1885436
 Analysis of SCF Wavefunction
 
 --------------------------------------------------------------
                    Orbital Energies (a.u.)
 --------------------------------------------------------------
 
 Alpha MOs
 -- Occupied --
-14.202 -14.202  -1.097  -0.887  -0.637  -0.622  -0.586  -0.376
 -0.371
 -- Virtual --
  0.041   0.060   0.072   0.074   0.189   0.191   0.198   0.200
  0.220   0.233   0.249   0.255   0.268   0.298   0.307   0.337
  0.377   0.600   0.626   0.669   0.671   0.677   0.715   0.760
  0.769   0.804   0.819   0.837   0.861   1.003   1.007   1.086
  1.088   1.103   1.146   1.269   1.284   1.370   1.450   1.467
  1.511   1.564   1.620   1.689   1.738   1.793   1.866   1.919
  1.958   2.044   2.045   2.499   2.636   2.820   2.913   3.383
  3.412   3.472   3.484   3.508   3.547   3.668   3.689   3.733
  3.841   3.868   3.885   3.916   3.942   4.023   4.025   4.175
  4.370   4.413   4.482   4.511   4.707   4.753   4.848   4.890
  5.054   5.064   5.206   5.233   5.280   5.293   5.331   5.403
  5.469   5.577   5.610   5.653   5.728   6.350   6.531   6.570
  6.590  35.580  35.597  37.350  37.601  37.801  38.203  38.248
 38.818  40.579  40.604  40.638  40.657  40.669  40.682  40.698
 40.729  40.741  40.760
 --------------------------------------------------------------
 
          Ground-State Mulliken Net Atomic Charges

     Atom                 Charge (a.u.)
  ----------------------------------------
      1 N                    -0.339767
      2 N                    -0.339766
      3 H                     0.156335
      4 H                     0.183442
      5 H                     0.156292
      6 H                     0.183464
  ----------------------------------------
  Sum of atomic charges =     0.000000

 -----------------------------------------------------------------
                    Cartesian Multipole Moments
 -----------------------------------------------------------------
    Charge (ESU x 10^10)
                 0.0000
    Dipole Moment (Debye)
         X       1.8932      Y       0.4347      Z       0.0001
       Tot       1.9424
    Quadrupole Moments (Debye-Ang)
        XX     -12.7525     XY      -0.0578     YY     -12.5162
        XZ       1.9504     YZ      -2.2554     ZZ     -13.0733
    Octapole Moments (Debye-Ang^2)
       XXX      -0.6452    XXY       0.5895    XYY      -1.3866
       YYY      -1.0563    XXZ     -10.1772    XYZ       2.0465
       YYZ      -7.9826    XZZ       4.1255    YZZ      -2.9386
       ZZZ     -28.1843
    Hexadecapole Moments (Debye-Ang^3)
      XXXX     -19.3499   XXXY       0.2275   XXYY      -6.6645
      XYYY      -0.3812   YYYY     -18.7172   XXXZ      -1.2404
      XXYZ       1.4023   XYYZ      -0.2999   YYYZ      -1.3876
      XXZZ     -20.8779   XYZZ       3.0170   YYZZ     -18.0351
      XZZZ       6.8959   YZZZ      -4.0743   ZZZZ    -104.1263
 -----------------------------------------------------------------
 Calculating analytic gradient of the SCF energy
 Gradient of AOints
            1           2           3           4           5           6
    1   1.4799569   2.6489851  -3.1769400   1.6700309  -2.7907966   0.1687637
    2   3.0175362  -2.0704536   0.1551271  -3.0558569  -1.5244294   3.4780766
    3   5.1133532  -5.1117185   1.7422910   1.3879565  -1.7429581  -1.3889241
 Gradient of XC Energy
            1           2           3           4           5           6
    1  -0.0947807  -0.1664278   0.2021664  -0.1059130   0.1777021  -0.0127470
    2  -0.1860414   0.1261421  -0.0096428   0.1892072   0.0968134  -0.2164785
    3  -0.0472092   0.0471657  -0.0935975  -0.0722452   0.0935875   0.0722987
 Gradient of SCF Energy
            1           2           3           4           5           6
    1   0.0000175   0.0000881  -0.0000376  -0.0000144  -0.0000138  -0.0000397
    2   0.0001531  -0.0001194  -0.0000413  -0.0000435   0.0000086   0.0000425
    3  -0.0002229   0.0002215   0.0000952   0.0000093  -0.0001091   0.0000061
 Max gradient component =       2.229E-04
 RMS gradient           =       9.844E-05
 Gradient time:  CPU 14.18 s  wall 14.29 s
 Geometry Optimization Parameters
   NAtoms,    NIC,     NZ,  NCons,   NDum,   NFix, NCnnct, MaxDiis
        6      27       6       0       0       0       0       0

 Cartesian Hessian Update
 Hessian Updated using BFGS Update


** GEOMETRY OPTIMIZATION IN DELOCALIZED INTERNAL COORDINATES **
   Searching for a Minimum

   Optimization Cycle:   4

                       Coordinates (Angstroms)
     ATOM              X           Y           Z
    1  N           0.019046    0.023785    0.013987
    2  N           0.027476   -0.013085    1.423278
    3  H           0.946020   -0.007308   -0.388814
    4  H          -0.450685    0.861873   -0.292820
    5  H           0.848049    0.419207    1.826232
    6  H          -0.029456   -0.972065    1.730245
   Point Group: c1    Number of degrees of freedom:  12


   Energy is   -111.841270406

 Hessian Updated using BFGS Update

 12 Hessian modes will be used to form the next step
  Hessian Eigenvalues:
     0.004209    0.035634    0.054770    0.149850    0.160000    0.160003
     0.181968    0.323224    0.440292    0.444942    0.447727    0.470485

 Minimum Search - Taking Simple RFO Step
 Searching for Lamda that Minimizes Along All modes
 Value Taken    Lamda =   0.00000000
 Step Taken.  Stepsize is  0.002772

                             Maximum     Tolerance    Cnvgd?
         Gradient           0.000162      0.000300     YES
         Displacement       0.001758      0.001200      NO
         Energy change     -0.000008      0.000001      NO


 New Cartesian Coordinates Obtained by Inverse Iteration

 Displacement from previous Coordinates is:  0.002970
 Writing REM_CC_EA            6
 ----------------------------------------------------
       Standard Nuclear Orientation (Angstroms)
    I     Atom         X            Y            Z
 ----------------------------------------------------
    1      N       0.018999     0.023724     0.014121
    2      N       0.027415    -0.013046     1.423155
    3      H       0.945698    -0.007885    -0.389467
    4      H      -0.450246     0.862166    -0.292575
    5      H       0.847513     0.419585     1.826895
    6      H      -0.028930    -0.972138     1.729978
 ----------------------------------------------------
 Nuclear Repulsion Energy =    41.9337479883 hartrees
 There are        9 alpha and        9 beta electrons
 Applying Cartesian multipole field
    Component          Value
    ---------          -----
     (2,0,0)        1.00000E-11
     (0,2,0)        2.00000E-11
     (0,0,2)       -3.00000E-11
 Nucleus-field energy     =    -0.0000000020 hartrees
 Requested basis set is G3large
 There are 44 shells and 124 basis functions
 A cutoff of  1.0D-11 yielded    986 shell pairs
 There are   7866 function pairs (  9493 Cartesian)
Evaluating contribution to one-electron hamiltonian from nuclear
 Smallest overlap matrix eigenvalue = 3.44E-04
 Multipole matrices computed through 2nd order
 Guess MOs from SCF MO coefficient file
Reading MOs from coefficient file
Reading MOs from coefficient file
 Long-range K will be added via erf
 Coulomb attenuation parameter = 0.4 bohr**(-1)
 A restricted Kohn-Sham SCF calculation will be
 performed using Pulay DIIS extrapolation
 Exchange:  wPBE + LR-HF      Correlation:  PBE
 Using SG-1 standard quadrature grid
 SCF converges when DIIS error is below 1.0E-08
 Requested basis set is G3large
 There are 44 shells and 124 basis functions
 A cutoff of  1.0D-11 yielded    986 shell pairs
 There are   7866 function pairs (  9493 Cartesian)
 ---------------------------------------
  Cycle       Energy         DIIS Error
 ---------------------------------------
    1    -111.8412120943      1.77E-05
    2    -111.8412703657      2.88E-06
    3    -111.8412703836      8.19E-07
    4    -111.8412703870      2.78E-07
    5    -111.8412703853      1.57E-07
    6    -111.8412703867      3.01E-08
    7    -111.8412703864      7.94E-09 Convergence criterion met
 ---------------------------------------
 One-Electron    Energy =  -234.1411485033
 Total Coulomb   Energy =    95.6304722288
 Alpha Exchange  Energy =    -1.8024055120
 Beta  Exchange  Energy =    -1.8024055120
 DFT   Exchange  Energy =   -11.0709167252
 DFT Correlation Energy =    -0.5886143491
 Nuclear Repu.   Energy =    41.9337479863
 Nuclear Attr.   Energy =  -345.5794857030
 Kinetic         Energy =   111.4383371997
 SCF time:  CPU 26.46 s  wall 26.91 s
 Final Alpha MO Eigenvalues
            1           2           3           4           5           6
    1 -14.2015852 -14.2015515  -1.0971482  -0.8866222  -0.6367515  -0.6224374
            7           8           9          10          11          12
    1  -0.5857929  -0.3763189  -0.3707894   0.0408807   0.0597085   0.0716802
           13          14
    1   0.0736210   0.1885649
 Analysis of SCF Wavefunction
 
 --------------------------------------------------------------
                    Orbital Energies (a.u.)
 --------------------------------------------------------------
 
 Alpha MOs
 -- Occupied --
-14.202 -14.202  -1.097  -0.887  -0.637  -0.622  -0.586  -0.376
 -0.371
 -- Virtual --
  0.041   0.060   0.072   0.074   0.189   0.191   0.198   0.200
  0.220   0.233   0.250   0.255   0.268   0.298   0.307   0.337
  0.378   0.600   0.626   0.669   0.671   0.677   0.715   0.760
  0.769   0.804   0.819   0.837   0.861   1.003   1.007   1.086
  1.088   1.103   1.146   1.268   1.285   1.370   1.450   1.467
  1.510   1.564   1.620   1.688   1.738   1.792   1.866   1.919
  1.958   2.044   2.045   2.499   2.636   2.819   2.913   3.383
  3.412   3.472   3.484   3.508   3.547   3.668   3.689   3.733
  3.841   3.868   3.885   3.916   3.942   4.023   4.025   4.175
  4.370   4.414   4.482   4.510   4.707   4.753   4.848   4.890
  5.054   5.065   5.206   5.233   5.280   5.293   5.332   5.403
  5.470   5.577   5.610   5.653   5.729   6.350   6.531   6.569
  6.590  35.580  35.597  37.350  37.601  37.801  38.203  38.248
 38.819  40.579  40.604  40.638  40.657  40.669  40.682  40.698
 40.729  40.741  40.760
 --------------------------------------------------------------
 
          Ground-State Mulliken Net Atomic Charges

     Atom                 Charge (a.u.)
  ----------------------------------------
      1 N                    -0.339733
      2 N                    -0.339725
      3 H                     0.156349
      4 H                     0.183389
      5 H                     0.156308
      6 H                     0.183412
  ----------------------------------------
  Sum of atomic charges =     0.000000

 -----------------------------------------------------------------
                    Cartesian Multipole Moments
 -----------------------------------------------------------------
    Charge (ESU x 10^10)
                 0.0000
    Dipole Moment (Debye)
         X       1.8940      Y       0.4349      Z       0.0001
       Tot       1.9433
    Quadrupole Moments (Debye-Ang)
        XX     -12.7577     XY      -0.0597     YY     -12.5135
        XZ       1.9502     YZ      -2.2519     ZZ     -13.0699
    Octapole Moments (Debye-Ang^2)
       XXX      -0.6470    XXY       0.5878    XYY      -1.3844
       YYY      -1.0546    XXZ     -10.1807    XYZ       2.0448
       YYZ      -7.9809    XZZ       4.1301    YZZ      -2.9323
       ZZZ     -28.1772
    Hexadecapole Moments (Debye-Ang^3)
      XXXX     -19.3554   XXXY       0.2263   XXYY      -6.6649
      XYYY      -0.3821   YYYY     -18.7145   XXXZ      -1.2427
      XXYZ       1.4021   XYYZ      -0.2972   YYYZ      -1.3887
      XXZZ     -20.8810   XYZZ       3.0148   YYZZ     -18.0317
      XZZZ       6.9049   YZZZ      -4.0601   ZZZZ    -104.0989
 -----------------------------------------------------------------
 Calculating analytic gradient of the SCF energy
 Gradient of AOints
            1           2           3           4           5           6
    1   1.4801681   2.6492838  -3.1747535   1.6675414  -2.7881487   0.1659090
    2   3.0181018  -2.0709567   0.1567210  -3.0573310  -1.5249203   3.4783852
    3   5.1127500  -5.1112352   1.7455638   1.3870021  -1.7462662  -1.3878145
 Gradient of XC Energy
            1           2           3           4           5           6
    1  -0.0947901  -0.1664343   0.2020377  -0.1057702   0.1775425  -0.0125856
    2  -0.1860464   0.1261472  -0.0097465   0.1892863   0.0968509  -0.2164915
    3  -0.0471622   0.0471252  -0.0937930  -0.0721894   0.0937855   0.0722340
 Gradient of SCF Energy
            1           2           3           4           5           6
    1   0.0000097   0.0000279  -0.0000257  -0.0000016   0.0000008  -0.0000111
    2   0.0000150   0.0000011  -0.0000246  -0.0000035  -0.0000024   0.0000144
    3  -0.0000164   0.0000199   0.0000017   0.0000259  -0.0000155  -0.0000156
 Max gradient component =       2.789E-05
 RMS gradient           =       1.588E-05
 Gradient time:  CPU 14.11 s  wall 15.22 s
 Geometry Optimization Parameters
   NAtoms,    NIC,     NZ,  NCons,   NDum,   NFix, NCnnct, MaxDiis
        6      27       6       0       0       0       0       0

 Cartesian Hessian Update
 Hessian Updated using BFGS Update


** GEOMETRY OPTIMIZATION IN DELOCALIZED INTERNAL COORDINATES **
   Searching for a Minimum

   Optimization Cycle:   5

                       Coordinates (Angstroms)
     ATOM              X           Y           Z
    1  N           0.018999    0.023724    0.014121
    2  N           0.027415   -0.013046    1.423155
    3  H           0.945698   -0.007885   -0.389467
    4  H          -0.450246    0.862166   -0.292575
    5  H           0.847513    0.419585    1.826895
    6  H          -0.028930   -0.972138    1.729978
   Point Group: c1    Number of degrees of freedom:  12


   Energy is   -111.841270386

 Hessian Updated using BFGS Update

 12 Hessian modes will be used to form the next step
  Hessian Eigenvalues:
     0.004423    0.035509    0.054768    0.130732    0.159999    0.160006
     0.203873    0.329359    0.440280    0.444948    0.447693    0.459775

 Minimum Search - Taking Simple RFO Step
 Searching for Lamda that Minimizes Along All modes
 Value Taken    Lamda =   0.00000000
 Step Taken.  Stepsize is  0.000996

                             Maximum     Tolerance    Cnvgd?
         Gradient           0.000039      0.000300     YES
         Displacement       0.000670      0.001200     YES
         Energy change      0.000000      0.000001     YES


                       Distance Matrix (Angstroms)
             N (  1)   N (  2)   H (  3)   H (  4)   H (  5)
   N (  2)  1.409539
   H (  3)  1.011263  2.031962
   H (  4)  1.008582  1.984411  1.647736
   H (  5)  2.032066  1.011305  2.259344  2.524324
   H (  6)  1.984491  1.008550  2.524229  2.762770  1.647556
 


 ******************************
 **  OPTIMIZATION CONVERGED  **
 ******************************
 Analysis of SCF Wavefunction
 
 --------------------------------------------------------------
                    Orbital Energies (a.u.)
 --------------------------------------------------------------
 
 Alpha MOs
 -- Occupied --
-14.202 -14.202  -1.097  -0.887  -0.637  -0.622  -0.586  -0.376
 -0.371
 -- Virtual --
  0.041   0.060   0.072   0.074   0.189   0.191   0.198   0.200
  0.220   0.233   0.250   0.255   0.268   0.298   0.307   0.337
  0.378   0.600   0.626   0.669   0.671   0.677   0.715   0.760
  0.769   0.804   0.819   0.837   0.861   1.003   1.007   1.086
  1.088   1.103   1.146   1.268   1.285   1.370   1.450   1.467
  1.510   1.564   1.620   1.688   1.738   1.792   1.866   1.919
  1.958   2.044   2.045   2.499   2.636   2.819   2.913   3.383
  3.412   3.472   3.484   3.508   3.547   3.668   3.689   3.733
  3.841   3.868   3.885   3.916   3.942   4.023   4.025   4.175
  4.370   4.414   4.482   4.510   4.707   4.753   4.848   4.890
  5.054   5.065   5.206   5.233   5.280   5.293   5.332   5.403
  5.470   5.577   5.610   5.653   5.729   6.350   6.531   6.569
  6.590  35.580  35.597  37.350  37.601  37.801  38.203  38.248
 38.819  40.579  40.604  40.638  40.657  40.669  40.682  40.698
 40.729  40.741  40.760
 --------------------------------------------------------------
 
          Ground-State Mulliken Net Atomic Charges

     Atom                 Charge (a.u.)
  ----------------------------------------
      1 N                    -0.339733
      2 N                    -0.339725
      3 H                     0.156349
      4 H                     0.183389
      5 H                     0.156308
      6 H                     0.183412
  ----------------------------------------
  Sum of atomic charges =     0.000000

 -----------------------------------------------------------------
                    Cartesian Multipole Moments
 -----------------------------------------------------------------
    Charge (ESU x 10^10)
                 0.0000
    Dipole Moment (Debye)
         X       1.8940      Y       0.4349      Z       0.0001
       Tot       1.9433
    Quadrupole Moments (Debye-Ang)
        XX     -12.7577     XY      -0.0597     YY     -12.5135
        XZ       1.9502     YZ      -2.2519     ZZ     -13.0699
    Octapole Moments (Debye-Ang^2)
       XXX      -0.6470    XXY       0.5878    XYY      -1.3844
       YYY      -1.0546    XXZ     -10.1807    XYZ       2.0448
       YYZ      -7.9809    XZZ       4.1301    YZZ      -2.9323
       ZZZ     -28.1772
    Hexadecapole Moments (Debye-Ang^3)
      XXXX     -19.3554   XXXY       0.2263   XXYY      -6.6649
      XYYY      -0.3821   YYYY     -18.7145   XXXZ      -1.2427
      XXYZ       1.4021   XYYZ      -0.2972   YYYZ      -1.3887
      XXZZ     -20.8810   XYZZ       3.0148   YYZZ     -18.0317
      XZZZ       6.9049   YZZZ      -4.0601   ZZZZ    -104.0989
 -----------------------------------------------------------------
 Total job time:  265.12s(wall), 256.28s(cpu) 
 Wed May  1 12:20:30 2013

        *************************************************************
        *                                                           *
        *  Thank you very much for using Q-Chem.  Have a nice day.  *
        *                                                           *
        *************************************************************


0 sent ACK to 0 
now end server 0 ... 
 
**********************************************************************
Job 2 of 2 
**********************************************************************
 
Process 0 of 1 is on cl009.stfx.acenet.ca - thread support 1
initial socket setup ...start
initial socket setup ...done 
now start server 0 ... 

cmd = /usr/bin/ssh clhead /usr/local/qchem/bin/get_hostid 1927393774 > /scratch/tmp/5956721.1.short.q/qchem28176/lic.dat
                  Welcome to Q-Chem
     A Quantum Leap Into The Future Of Chemistry

 Y. Shao, L. Fusti-Molnar, Y. Jung, J. Kussmann, C. Ochsenfeld,
 S. T. Brown, A. T. B. Gilbert, L. V. Slipchenko,S. V. Levchenko,
 D. P. O'Neill, R. A. DiStasio Jr., R. C. Lochan, T. Wang,
 G. J. O. Beran, N. A. Besley, J. M. Herbert, C. Y. Lin,
 T. Van Voorhis, S. H. Chien, A. Sodt, R. P. Steele, 
 V. A. Rassolov, P. E. Maslen, P. P. Korambath, R. D. Adamson,
 B. Austin, J. Baker, E. F. C. Byrd, H. Dachsel, R. J. Doerksen,
 A. Dreuw, B. D. Dunietz, A. D. Dutoi, T. R. Furlani,
 S. R. Gwaltney, A. Heyden, S. Hirata, C.-P. Hsu, G. Kedziora,
 R. Z. Khaliullin, P. Klunzinger, A. M. Lee, M. S. Lee, W. Liang,
 I. Lotan, N. Nair, B. Peters, E. I. Proynov, P. A. Pieniazek, 
 Y. M. Rhee, J. Ritchie, E. Rosta, C. D. Sherrill, 
 A. C. Simmonett, J. E. Subotnik, H. L. Woodcock III,
 W. Zhang, A. T. Bell, A. K. Chakraborty, D. M. Chipman,
 F. J. Keil, A. Warshel, W. J. Hehre, H. F. Schaefer III,
 J. Kong, A. I. Krylov, P. M. W. Gill, M. Head-Gordon,
 Q-Chem, Version 3.1, Q-Chem, Inc., Pittsburgh, PA (2007).

 Additional authors for Version 3.1: 
 Z. Gan, Y. Zhao, N. E. Schultz, D. Truhlar, E. Epifanovsky and M. Oana.

 Additional authors for Version 3.2: 
 R. Baer, B. R. Brooks, D. Casanova, J.-D. Chai, C.-L. Cheng, 
 C. Cramer, D. Crittenden, A. Ghysels, G. Hawkins, E. G. Hohenstein, 
 C. Kelley, W. Kurlancheek, D. Liotard, E. Livshits, P. Manohar, 
 A. Marenich, D. Neuhauser, R. Olson, M. A. Rohrdanz, K. S. Thanthiriwatte, 
 A. J. W. Thom, V. Vanovschi, C. F. Williams, Q. Wu and Z.-Q. You. 


 Intel X86 Linux Version

 Q-chem begins on Wed May  1 12:20:33 2013  

 Parallel job on  1  processors
Processing $rem in /usr/local/qchem/config/preferences.

theFileMan(): MAXOPENFILES=974 MAX_SUB_FILE_NUM=16
Maximum size of a physical file is 2.0 GB, maximum size of a tmp-file is 32.0 GB


--------------------------------------------------------------
User input:
--------------------------------------------------------------

$molecule 
READ 
$end 

$xc_functional
C PBE   1.00
X wPBE  1.00
$end


$rem
SYMMETRY_DECOMPOSITION	0
LRC_DFT                 true
exchange 		general
BASIS                   g3large
omega			400 
JOBTYPE                 freq
IDERIV 1
SCF_GUESS READ
mem_static              760
max_scf_cycles          200
scf_final_print         1
sym_ignore              true
$end

--------------------------------------------------------------
 Writing REM_CC_EA            6
 ----------------------------------------------------
       Standard Nuclear Orientation (Angstroms)
    I     Atom         X            Y            Z
 ----------------------------------------------------
    1      N       0.018999     0.023724     0.014121
    2      N       0.027415    -0.013046     1.423155
    3      H       0.945698    -0.007885    -0.389467
    4      H      -0.450246     0.862166    -0.292575
    5      H       0.847513     0.419585     1.826895
    6      H      -0.028930    -0.972138     1.729978
 ----------------------------------------------------
 Nuclear Repulsion Energy =    41.9337479883 hartrees
 There are        9 alpha and        9 beta electrons
 Requested basis set is G3large
 There are 44 shells and 124 basis functions

Total QAlloc Memory Limit   2000 MB
Mega-Array Size       759 MB
MEM_STATIC part       760 MB

                       Distance Matrix (Angstroms)
             N (  1)   N (  2)   H (  3)   H (  4)   H (  5)
   N (  2)  1.409539
   H (  3)  1.011263  2.031962
   H (  4)  1.008582  1.984411  1.647736
   H (  5)  2.032066  1.011305  2.259344  2.524324
   H (  6)  1.984491  1.008550  2.524229  2.762770  1.647556
 
 A cutoff of  1.0D-11 yielded    986 shell pairs
 There are   7866 function pairs (  9493 Cartesian)
Evaluating contribution to one-electron hamiltonian from nuclear
 Smallest overlap matrix eigenvalue = 3.44E-04
 Multipole matrices computed through 2nd order
 Guess MOs from SCF MO coefficient file
Reading MOs from coefficient file
Reading MOs from coefficient file
 Long-range K will be added via erf
 Coulomb attenuation parameter = 0.4 bohr**(-1)
 A restricted Kohn-Sham SCF calculation will be
 performed using Pulay DIIS extrapolation
 Exchange:  wPBE + LR-HF      Correlation:  PBE
 Using SG-1 standard quadrature grid
 SCF converges when DIIS error is below 1.0E-08
 ---------------------------------------
  Cycle       Energy         DIIS Error
 ---------------------------------------
    1    -111.8412703650      4.94E-09
    2    -111.8412703649      4.61E-09 Convergence criterion met
 ---------------------------------------
 One-Electron    Energy =  -234.1411483146
 Total Coulomb   Energy =    95.6304720175
 Alpha Exchange  Energy =    -1.8024055119
 Beta  Exchange  Energy =    -1.8024055119
 DFT   Exchange  Energy =   -11.0709166850
 DFT Correlation Energy =    -0.5886143475
 Nuclear Repu.   Energy =    41.9337479883
 Nuclear Attr.   Energy =  -345.5794853487
 Kinetic         Energy =   111.4383370341
 SCF time:  CPU 7.77 s  wall 7.89 s
 Final Alpha MO Eigenvalues
            1           2           3           4           5           6
    1 -14.2015851 -14.2015514  -1.0971481  -0.8866221  -0.6367515  -0.6224374
            7           8           9          10          11          12
    1  -0.5857929  -0.3763189  -0.3707893   0.0408807   0.0597085   0.0716802
           13          14
    1   0.0736210   0.1885649
 Analysis of SCF Wavefunction
 
 --------------------------------------------------------------
                    Orbital Energies (a.u.)
 --------------------------------------------------------------
 
 Alpha MOs
 -- Occupied --
-14.202 -14.202  -1.097  -0.887  -0.637  -0.622  -0.586  -0.376
 -0.371
 -- Virtual --
  0.041   0.060   0.072   0.074   0.189   0.191   0.198   0.200
  0.220   0.233   0.250   0.255   0.268   0.298   0.307   0.337
  0.378   0.600   0.626   0.669   0.671   0.677   0.715   0.760
  0.769   0.804   0.819   0.837   0.861   1.003   1.007   1.086
  1.088   1.103   1.146   1.268   1.285   1.370   1.450   1.467
  1.510   1.564   1.620   1.688   1.738   1.792   1.866   1.919
  1.958   2.044   2.045   2.499   2.636   2.819   2.913   3.383
  3.412   3.472   3.484   3.508   3.547   3.668   3.689   3.733
  3.841   3.868   3.885   3.916   3.942   4.023   4.025   4.175
  4.370   4.414   4.482   4.510   4.707   4.753   4.848   4.890
  5.054   5.065   5.206   5.233   5.280   5.293   5.332   5.403
  5.470   5.577   5.610   5.653   5.729   6.350   6.531   6.569
  6.590  35.580  35.597  37.350  37.601  37.801  38.203  38.248
 38.819  40.579  40.604  40.638  40.657  40.669  40.682  40.698
 40.729  40.741  40.760
 --------------------------------------------------------------
 
          Ground-State Mulliken Net Atomic Charges

     Atom                 Charge (a.u.)
  ----------------------------------------
      1 N                    -0.339733
      2 N                    -0.339725
      3 H                     0.156349
      4 H                     0.183389
      5 H                     0.156308
      6 H                     0.183412
  ----------------------------------------
  Sum of atomic charges =     0.000000

 -----------------------------------------------------------------
                    Cartesian Multipole Moments
 -----------------------------------------------------------------
    Charge (ESU x 10^10)
                 0.0000
    Dipole Moment (Debye)
         X       1.8940      Y       0.4349      Z       0.0001
       Tot       1.9433
    Quadrupole Moments (Debye-Ang)
        XX     -12.7577     XY      -0.0597     YY     -12.5135
        XZ       1.9502     YZ      -2.2519     ZZ     -13.0699
    Octapole Moments (Debye-Ang^2)
       XXX      -0.6470    XXY       0.5878    XYY      -1.3844
       YYY      -1.0546    XXZ     -10.1807    XYZ       2.0448
       YYZ      -7.9809    XZZ       4.1301    YZZ      -2.9323
       ZZZ     -28.1772
    Hexadecapole Moments (Debye-Ang^3)
      XXXX     -19.3554   XXXY       0.2263   XXYY      -6.6649
      XYYY      -0.3821   YYYY     -18.7145   XXXZ      -1.2427
      XXYZ       1.4021   XYYZ      -0.2972   YYYZ      -1.3887
      XXZZ     -20.8810   XYZZ       3.0148   YYZZ     -18.0317
      XZZZ       6.9049   YZZZ      -4.0601   ZZZZ    -104.0989
 -----------------------------------------------------------------
 Calculating analytic gradient of the SCF energy
 Gradient of AOints
            1           2           3           4           5           6
    1   1.4801682   2.6492836  -3.1747535   1.6675414  -2.7881488   0.1659091
    2   3.0181015  -2.0709563   0.1567207  -3.0573311  -1.5249201   3.4783853
    3   5.1127494  -5.1112349   1.7455638   1.3870021  -1.7462661  -1.3878143
 Gradient of XC Energy
            1           2           3           4           5           6
    1  -0.0947901  -0.1664343   0.2020377  -0.1057702   0.1775425  -0.0125856
    2  -0.1860464   0.1261472  -0.0097465   0.1892863   0.0968509  -0.2164915
    3  -0.0471622   0.0471252  -0.0937930  -0.0721894   0.0937855   0.0722340
 Gradient of SCF Energy
            1           2           3           4           5           6
    1   0.0000097   0.0000279  -0.0000257  -0.0000016   0.0000008  -0.0000111
    2   0.0000150   0.0000011  -0.0000246  -0.0000035  -0.0000024   0.0000144
    3  -0.0000164   0.0000199   0.0000017   0.0000259  -0.0000155  -0.0000156
 Max gradient component =       2.790E-05
 RMS gradient           =       1.588E-05
 Gradient time:  CPU 14.02 s  wall 14.86 s
 ######################################################
 ######################################################
 # Starting finite difference calculation for IDERIV  #
 Finite diff step size: 1.89e-03 a.u.
 Writing REM_CC_EA            6
 ----------------------------------------------------
       Standard Nuclear Orientation (Angstroms)
    I     Atom         X            Y            Z
 ----------------------------------------------------
    1      N       0.019999     0.023724     0.014121
    2      N       0.027415    -0.013046     1.423155
    3      H       0.945698    -0.007885    -0.389467
    4      H      -0.450246     0.862166    -0.292575
    5      H       0.847513     0.419585     1.826895
    6      H      -0.028930    -0.972138     1.729978
 ----------------------------------------------------
 Nuclear Repulsion Energy =    41.9357911531 hartrees
 There are        9 alpha and        9 beta electrons

                       Distance Matrix (Angstroms)
             N (  1)   N (  2)   H (  3)   H (  4)   H (  5)
   N (  2)  1.409534
   H (  3)  1.010347  2.031962
   H (  4)  1.009048  1.984411  1.647736
   H (  5)  2.031659  1.011305  2.259344  2.524324
   H (  6)  1.984515  1.008550  2.524229  2.762770  1.647556
 
 Requested basis set is G3large
 There are 44 shells and 124 basis functions
 A cutoff of  1.0D-11 yielded    986 shell pairs
 There are   7866 function pairs (  9493 Cartesian)
Evaluating contribution to one-electron hamiltonian from nuclear
 Smallest overlap matrix eigenvalue = 3.44E-04
 Multipole matrices computed through 2nd order
 Guess MOs from SCF MO coefficient file
Reading MOs from coefficient file
Reading MOs from coefficient file
 Long-range K will be added via erf
 Coulomb attenuation parameter = 0.4 bohr**(-1)
 A restricted Kohn-Sham SCF calculation will be
 performed using Pulay DIIS extrapolation
 Exchange:  wPBE + LR-HF      Correlation:  PBE
 Using SG-1 standard quadrature grid
 SCF converges when DIIS error is below 1.0E-08
 ---------------------------------------
  Cycle       Energy         DIIS Error
 ---------------------------------------
    1    -111.8414096932      3.75E-05
    2    -111.8412692097      6.37E-06
    3    -111.8412692908      2.60E-06
    4    -111.8412692987      8.74E-07
    5    -111.8412693005      3.66E-07
    6    -111.8412693006      4.46E-08
    7    -111.8412693001      1.57E-08
    8    -111.8412693007      6.84E-09 Convergence criterion met
 ---------------------------------------
 One-Electron    Energy =  -234.1450423776
 Total Coulomb   Energy =    95.6325187449
 Alpha Exchange  Energy =    -1.8024185231
 Beta  Exchange  Energy =    -1.8024185231
 DFT   Exchange  Energy =   -11.0710772312
 DFT Correlation Energy =    -0.5886225438
 Nuclear Repu.   Energy =    41.9357911531
 Nuclear Attr.   Energy =  -345.5840351972
 Kinetic         Energy =   111.4389928196
 SCF time:  CPU 29.99 s  wall 30.67 s
 Final Alpha MO Eigenvalues
            1           2           3           4           5           6
    1 -14.2015809 -14.2014907  -1.0971578  -0.8866416  -0.6368683  -0.6224764
            7           8           9          10          11          12
    1  -0.5857265  -0.3763374  -0.3707591   0.0408921   0.0597127   0.0716818
           13          14
    1   0.0736191   0.1885751
 Analysis of SCF Wavefunction
 
 --------------------------------------------------------------
                    Orbital Energies (a.u.)
 --------------------------------------------------------------
 
 Alpha MOs
 -- Occupied --
-14.202 -14.201  -1.097  -0.887  -0.637  -0.622  -0.586  -0.376
 -0.371
 -- Virtual --
  0.041   0.060   0.072   0.074   0.189   0.191   0.198   0.200
  0.220   0.233   0.249   0.255   0.268   0.298   0.307   0.337
  0.378   0.600   0.626   0.669   0.671   0.677   0.715   0.760
  0.769   0.804   0.819   0.837   0.861   1.003   1.007   1.086
  1.088   1.103   1.146   1.268   1.285   1.370   1.450   1.467
  1.511   1.564   1.620   1.689   1.738   1.793   1.866   1.919
  1.958   2.044   2.045   2.499   2.636   2.819   2.913   3.383
  3.412   3.472   3.484   3.508   3.547   3.668   3.689   3.733
  3.841   3.868   3.885   3.916   3.942   4.023   4.025   4.175
  4.370   4.414   4.482   4.510   4.706   4.754   4.848   4.890
  5.054   5.065   5.206   5.234   5.280   5.293   5.332   5.403
  5.470   5.576   5.611   5.653   5.730   6.350   6.532   6.571
  6.589  35.580  35.597  37.350  37.601  37.801  38.203  38.248
 38.819  40.579  40.604  40.638  40.657  40.669  40.682  40.699
 40.729  40.742  40.760
 --------------------------------------------------------------
 
          Ground-State Mulliken Net Atomic Charges

     Atom                 Charge (a.u.)
  ----------------------------------------
      1 N                    -0.339879
      2 N                    -0.339666
      3 H                     0.156439
      4 H                     0.183399
      5 H                     0.156289
      6 H                     0.183417
  ----------------------------------------
  Sum of atomic charges =     0.000000

 -----------------------------------------------------------------
                    Cartesian Multipole Moments
 -----------------------------------------------------------------
    Charge (ESU x 10^10)
                 0.0000
    Dipole Moment (Debye)
         X       1.8928      Y       0.4342      Z       0.0002
       Tot       1.9420
    Quadrupole Moments (Debye-Ang)
        XX     -12.7560     XY      -0.0596     YY     -12.5141
        XZ       1.9494     YZ      -2.2516     ZZ     -13.0683
    Octapole Moments (Debye-Ang^2)
       XXX      -0.6625    XXY       0.5867    XYY      -1.3903
       YYY      -1.0559    XXZ     -10.1820    XYZ       2.0446
       YYZ      -7.9807    XZZ       4.1236    YZZ      -2.9322
       ZZZ     -28.1749
    Hexadecapole Moments (Debye-Ang^3)
      XXXX     -19.3507   XXXY       0.2264   XXYY      -6.6643
      XYYY      -0.3821   YYYY     -18.7183   XXXZ      -1.2445
      XXYZ       1.4023   XYYZ      -0.2977   YYYZ      -1.3874
      XXZZ     -20.8799   XYZZ       3.0152   YYZZ     -18.0322
      XZZZ       6.8958   YZZZ      -4.0579   ZZZZ    -104.0891
 -----------------------------------------------------------------
 Calculating analytic gradient of the SCF energy
 Gradient of AOints
            1           2           3           4           5           6
    1   1.4706110   2.6567320  -3.1757742   1.6704915  -2.7882449   0.1661846
    2   3.0158696  -2.0707962   0.1572646  -3.0554074  -1.5252081   3.4782775
    3   5.1113095  -5.1114431   1.7492303   1.3846023  -1.7456918  -1.3880072
 Gradient of XC Energy
            1           2           3           4           5           6
    1  -0.0945679  -0.1666722   0.2021928  -0.1059110   0.1775499  -0.0125916
    2  -0.1858472   0.1261421  -0.0097806   0.1891111   0.0968613  -0.2164867
    3  -0.0470396   0.0471295  -0.0940272  -0.0720602   0.0937548   0.0722428
 Gradient of SCF Energy
            1           2           3           4           5           6
    1   0.0011191  -0.0001104  -0.0007653  -0.0002367   0.0000091  -0.0000158
    2  -0.0003799   0.0000011  -0.0000194   0.0003649   0.0000078   0.0000254
    3  -0.0001698   0.0000764   0.0002230  -0.0000329  -0.0000766  -0.0000202
 Max gradient component =       1.119E-03
 RMS gradient           =       3.557E-04
 Gradient time:  CPU 14.90 s  wall 15.07 s
 Writing REM_CC_EA            6
 ----------------------------------------------------
       Standard Nuclear Orientation (Angstroms)
    I     Atom         X            Y            Z
 ----------------------------------------------------
    1      N       0.017999     0.023724     0.014121
    2      N       0.027415    -0.013046     1.423155
    3      H       0.945698    -0.007885    -0.389467
    4      H      -0.450246     0.862166    -0.292575
    5      H       0.847513     0.419585     1.826895
    6      H      -0.028930    -0.972138     1.729978
 ----------------------------------------------------
 Nuclear Repulsion Energy =    41.9316990469 hartrees
 There are        9 alpha and        9 beta electrons

                       Distance Matrix (Angstroms)
             N (  1)   N (  2)   H (  3)   H (  4)   H (  5)
   N (  2)  1.409546
   H (  3)  1.012179  2.031962
   H (  4)  1.008118  1.984411  1.647736
   H (  5)  2.032474  1.011305  2.259344  2.524324
   H (  6)  1.984467  1.008550  2.524229  2.762770  1.647556
 
 Requested basis set is G3large
 There are 44 shells and 124 basis functions
 A cutoff of  1.0D-11 yielded    986 shell pairs
 There are   7866 function pairs (  9493 Cartesian)
Evaluating contribution to one-electron hamiltonian from nuclear
 Smallest overlap matrix eigenvalue = 3.44E-04
 Multipole matrices computed through 2nd order
 Guess MOs from SCF MO coefficient file
Reading MOs from coefficient file
Reading MOs from coefficient file
 Long-range K will be added via erf
 Coulomb attenuation parameter = 0.4 bohr**(-1)
 A restricted Kohn-Sham SCF calculation will be
 performed using Pulay DIIS extrapolation
 Exchange:  wPBE + LR-HF      Correlation:  PBE
 Using SG-1 standard quadrature grid
 SCF converges when DIIS error is below 1.0E-08
 ---------------------------------------
  Cycle       Energy         DIIS Error
 ---------------------------------------
    1    -111.8409889595      7.50E-05
    2    -111.8412689911      1.27E-05
    3    -111.8412692880      5.19E-06
    4    -111.8412693295      1.75E-06
    5    -111.8412693345      7.32E-07
    6    -111.8412693362      8.91E-08
    7    -111.8412693364      3.06E-08
    8    -111.8412693368      1.28E-08
    9    -111.8412693372      4.36E-09 Convergence criterion met
 ---------------------------------------
 One-Electron    Energy =  -234.1372351384
 Total Coulomb   Energy =    95.6284136826
 Alpha Exchange  Energy =    -1.8023924223
 Beta  Exchange  Energy =    -1.8023924223
 DFT   Exchange  Energy =   -11.0707559907
 DFT Correlation Energy =    -0.5886060930
 Nuclear Repu.   Energy =    41.9316990469
 Nuclear Attr.   Energy =  -345.5749173995
 Kinetic         Energy =   111.4376822611
 SCF time:  CPU 33.67 s  wall 34.44 s
 Final Alpha MO Eigenvalues
            1           2           3           4           5           6
    1 -14.2016534 -14.2015485  -1.0971384  -0.8866033  -0.6366367  -0.6223966
            7           8           9          10          11          12
    1  -0.5858587  -0.3763020  -0.3708182   0.0408692   0.0597043   0.0716787
           13          14
    1   0.0736228   0.1885545
 Analysis of SCF Wavefunction
 
 --------------------------------------------------------------
                    Orbital Energies (a.u.)
 --------------------------------------------------------------
 
 Alpha MOs
 -- Occupied --
-14.202 -14.202  -1.097  -0.887  -0.637  -0.622  -0.586  -0.376
 -0.371
 -- Virtual --
  0.041   0.060   0.072   0.074   0.189   0.191   0.198   0.200
  0.220   0.233   0.250   0.255   0.268   0.298   0.306   0.337
  0.378   0.600   0.626   0.669   0.671   0.677   0.715   0.760
  0.769   0.804   0.819   0.837   0.861   1.003   1.007   1.086
  1.088   1.102   1.147   1.269   1.285   1.369   1.450   1.467
  1.510   1.564   1.620   1.688   1.738   1.792   1.866   1.919
  1.958   2.044   2.045   2.499   2.636   2.819   2.913   3.383
  3.412   3.472   3.484   3.508   3.547   3.668   3.689   3.733
  3.840   3.868   3.884   3.916   3.942   4.023   4.025   4.175
  4.370   4.413   4.483   4.510   4.707   4.753   4.848   4.890
  5.054   5.065   5.206   5.233   5.280   5.292   5.331   5.404
  5.469   5.577   5.609   5.653   5.728   6.350   6.531   6.568
  6.591  35.579  35.597  37.350  37.601  37.801  38.202  38.248
 38.818  40.579  40.604  40.638  40.657  40.669  40.682  40.698
 40.729  40.741  40.760
 --------------------------------------------------------------
 
          Ground-State Mulliken Net Atomic Charges

     Atom                 Charge (a.u.)
  ----------------------------------------
      1 N                    -0.339588
      2 N                    -0.339784
      3 H                     0.156259
      4 H                     0.183379
      5 H                     0.156327
      6 H                     0.183406
  ----------------------------------------
  Sum of atomic charges =     0.000000

 -----------------------------------------------------------------
                    Cartesian Multipole Moments
 -----------------------------------------------------------------
    Charge (ESU x 10^10)
                 0.0000
    Dipole Moment (Debye)
         X       1.8951      Y       0.4355      Z       0.0000
       Tot       1.9445
    Quadrupole Moments (Debye-Ang)
        XX     -12.7593     XY      -0.0597     YY     -12.5130
        XZ       1.9510     YZ      -2.2521     ZZ     -13.0715
    Octapole Moments (Debye-Ang^2)
       XXX      -0.6315    XXY       0.5889    XYY      -1.3785
       YYY      -1.0533    XXZ     -10.1794    XYZ       2.0451
       YYZ      -7.9810    XZZ       4.1366    YZZ      -2.9325
       ZZZ     -28.1795
    Hexadecapole Moments (Debye-Ang^3)
      XXXX     -19.3602   XXXY       0.2262   XXYY      -6.6655
      XYYY      -0.3820   YYYY     -18.7107   XXXZ      -1.2408
      XXYZ       1.4019   XYYZ      -0.2967   YYYZ      -1.3899
      XXZZ     -20.8821   XYZZ       3.0144   YYZZ     -18.0312
      XZZZ       6.9141   YZZZ      -4.0623   ZZZZ    -104.1087
 -----------------------------------------------------------------
 Calculating analytic gradient of the SCF energy
 Gradient of AOints
            1           2           3           4           5           6
    1   1.4897331   2.6418307  -3.1737297   1.6645832  -2.7880521   0.1656349
    2   3.0203267  -2.0711125   0.1561765  -3.0592509  -1.5246323   3.4784924
    3   5.1141770  -5.1110144   1.7418984   1.3894012  -1.7468402  -1.3876220
 Gradient of XC Energy
            1           2           3           4           5           6
    1  -0.0950126  -0.1661963   0.2018821  -0.1056288   0.1775351  -0.0125796
    2  -0.1862453   0.1261522  -0.0097123   0.1894612   0.0968405  -0.2164963
    3  -0.0472841   0.0471203  -0.0935590  -0.0723186   0.0938162   0.0722252
 Gradient of SCF Energy
            1           2           3           4           5           6
    1  -0.0010950   0.0001661   0.0007098   0.0002330  -0.0000074  -0.0000065
    2   0.0004105   0.0000011  -0.0000296  -0.0003727  -0.0000126   0.0000034
    3   0.0001341  -0.0000363  -0.0002173   0.0000850   0.0000455  -0.0000109
 Max gradient component =       1.095E-03
 RMS gradient           =       3.472E-04
 Gradient time:  CPU 15.03 s  wall 15.32 s
 Writing REM_CC_EA            6
 ----------------------------------------------------
       Standard Nuclear Orientation (Angstroms)
    I     Atom         X            Y            Z
 ----------------------------------------------------
    1      N       0.018999     0.024724     0.014121
    2      N       0.027415    -0.013046     1.423155
    3      H       0.945698    -0.007885    -0.389467
    4      H      -0.450246     0.862166    -0.292575
    5      H       0.847513     0.419585     1.826895
    6      H      -0.028930    -0.972138     1.729978
 ----------------------------------------------------
 Nuclear Repulsion Energy =    41.9360195245 hartrees
 There are        9 alpha and        9 beta electrons

                       Distance Matrix (Angstroms)
             N (  1)   N (  2)   H (  3)   H (  4)   H (  5)
   N (  2)  1.409566
   H (  3)  1.011295  2.031962
   H (  4)  1.007751  1.984411  1.647736
   H (  5)  2.031872  1.011305  2.259344  2.524324
   H (  6)  1.984993  1.008550  2.524229  2.762770  1.647556
 
 Requested basis set is G3large
 There are 44 shells and 124 basis functions
 A cutoff of  1.0D-11 yielded    986 shell pairs
 There are   7866 function pairs (  9493 Cartesian)
Evaluating contribution to one-electron hamiltonian from nuclear
 Smallest overlap matrix eigenvalue = 3.44E-04
 Multipole matrices computed through 2nd order
 Guess MOs from SCF MO coefficient file
Reading MOs from coefficient file
Reading MOs from coefficient file
 Long-range K will be added via erf
 Coulomb attenuation parameter = 0.4 bohr**(-1)
 A restricted Kohn-Sham SCF calculation will be
 performed using Pulay DIIS extrapolation
 Exchange:  wPBE + LR-HF      Correlation:  PBE
 Using SG-1 standard quadrature grid
 SCF converges when DIIS error is below 1.0E-08
 ---------------------------------------
  Cycle       Energy         DIIS Error
 ---------------------------------------
    1    -111.8418239624      3.97E-05
    2    -111.8412695175      6.62E-06
    3    -111.8412695901      4.65E-06
    4    -111.8412696443      1.07E-06
    5    -111.8412696484      3.22E-07
    6    -111.8412696492      1.16E-07
    7    -111.8412696502      4.80E-08
    8    -111.8412696497      9.22E-09 Convergence criterion met
 ---------------------------------------
 One-Electron    Energy =  -234.1453415871
 Total Coulomb   Energy =    95.6326804556
 Alpha Exchange  Energy =    -1.8024259120
 Beta  Exchange  Energy =    -1.8024259120
 DFT   Exchange  Energy =   -11.0711531033
 DFT Correlation Energy =    -0.5886231154
 Nuclear Repu.   Energy =    41.9360195245
 Nuclear Attr.   Energy =  -345.5844616371
 Kinetic         Energy =   111.4391200500
 SCF time:  CPU 30.24 s  wall 30.81 s
 Final Alpha MO Eigenvalues
            1           2           3           4           5           6
    1 -14.2015694 -14.2014772  -1.0971263  -0.8866856  -0.6367117  -0.6225103
            7           8           9          10          11          12
    1  -0.5859827  -0.3762694  -0.3707631   0.0408903   0.0597134   0.0716790
           13          14
    1   0.0736176   0.1886044
 Analysis of SCF Wavefunction
 
 --------------------------------------------------------------
                    Orbital Energies (a.u.)
 --------------------------------------------------------------
 
 Alpha MOs
 -- Occupied --
-14.202 -14.201  -1.097  -0.887  -0.637  -0.623  -0.586  -0.376
 -0.371
 -- Virtual --
  0.041   0.060   0.072   0.074   0.189   0.191   0.198   0.200
  0.220   0.233   0.250   0.255   0.268   0.298   0.307   0.337
  0.378   0.600   0.626   0.669   0.671   0.677   0.715   0.760
[...]
      XXYZ       1.4014   XYYZ      -0.2967   YYYZ      -1.3897
      XXZZ     -20.8774   XYZZ       3.0143   YYZZ     -18.0320
      XZZZ       6.9077   YZZZ      -4.0474   ZZZZ    -104.1091
 -----------------------------------------------------------------
 Calculating analytic gradient of the SCF energy
 Gradient of AOints
            1           2           3           4           5           6
    1   1.4797069   2.6492851  -3.1745922   1.6675315  -2.7881345   0.1662032
    2   3.0186663  -2.0734143   0.1569727  -3.0573542  -1.5256425   3.4807720
    3   5.1121329  -5.1145079   1.7453285   1.3867393  -1.7462698  -1.3834229
 Gradient of XC Energy
            1           2           3           4           5           6
    1  -0.0947744  -0.1664221   0.2020295  -0.1057694   0.1775401  -0.0126038
    2  -0.1860759   0.1263201  -0.0097560   0.1892852   0.0968748  -0.2166482
    3  -0.0471290   0.0473191  -0.0937827  -0.0721776   0.0937851   0.0719851
 Gradient of SCF Energy
            1           2           3           4           5           6
    1   0.0000144   0.0000446  -0.0000273  -0.0000058  -0.0000017  -0.0000241
    2  -0.0000576  -0.0001682  -0.0000298  -0.0000061   0.0000260   0.0002357
    3   0.0000343   0.0001609   0.0000050   0.0000382  -0.0000268  -0.0002115
 Max gradient component =       2.357E-04
 RMS gradient           =       9.613E-05
 Gradient time:  CPU 14.00 s  wall 14.20 s
Dipole drv :
gprntSymmMtrx error report: 
 Final Hessian.
            1           2           3           4           5           6
    1   0.5858402  -0.2091171  -0.0803971  -0.0731736   0.0000095   0.0298438
    2  -0.2091171   0.4120014  -0.1499615  -0.0007269  -0.0716406   0.0312660
    3  -0.0803971  -0.1499615   0.5204968  -0.0404598   0.0150570  -0.2889167
    4  -0.0731736  -0.0007269  -0.0404598   0.3884244   0.1974451   0.1379135
    5   0.0000095  -0.0716406   0.0150570   0.1974451   0.6095553  -0.0999816
    6   0.0298438   0.0312660  -0.2889167   0.1379135  -0.0999816   0.5216695
    7  -0.3902947   0.0425613   0.1438368   0.0094549  -0.0050595  -0.0061833
    8   0.0026908  -0.0272751   0.0252519  -0.0021778  -0.0022661  -0.0050783
    9   0.1164871   0.0093340  -0.0992906   0.0349430   0.0020590  -0.0314924
   10  -0.1242765   0.1548300  -0.0341808   0.0032329  -0.0058343  -0.0014112
   11   0.1951774  -0.3226068   0.1153881  -0.0075100   0.0010296  -0.0049792
   12  -0.0311800   0.0843402  -0.0741156  -0.0145307   0.0356690  -0.0267828
   13   0.0043558   0.0082721   0.0077708  -0.3031969  -0.1763324  -0.1405407
   14   0.0054159   0.0028156  -0.0018696  -0.1364444  -0.1140064  -0.0400653
   15  -0.0323083  -0.0133697  -0.0314218  -0.1090365  -0.0424212  -0.0997746
   16  -0.0024476   0.0041796   0.0034284  -0.0247427  -0.0102237  -0.0196238
   17   0.0058210   0.0067028  -0.0038631  -0.0505785  -0.4226663   0.1188442
   18  -0.0024482   0.0383960  -0.0267524  -0.0088282   0.0896205  -0.0746997
            7           8           9          10          11          12
    1  -0.3902947   0.0026908   0.1164871  -0.1242765   0.1951774  -0.0311800
    2   0.0425613  -0.0272751   0.0093340   0.1548300  -0.3226068   0.0843402
    3   0.1438368   0.0252519  -0.0992906  -0.0341808   0.1153881  -0.0741156
    4   0.0094549  -0.0021778   0.0349430   0.0032329  -0.0075100  -0.0145307
    5  -0.0050595  -0.0022661   0.0020590  -0.0058343   0.0010296   0.0356690
    6  -0.0061833  -0.0050783  -0.0314924  -0.0014112  -0.0049792  -0.0267828
    7   0.3962470  -0.0310600  -0.1428736  -0.0181835  -0.0067432   0.0053258
    8  -0.0310600   0.0319527  -0.0084338   0.0315048  -0.0029445  -0.0140797
    9  -0.1428736  -0.0084338   0.1244164  -0.0109271  -0.0017863   0.0059586
   10  -0.0181835   0.0315048  -0.0109271   0.1396305  -0.1809670   0.0449452
   11  -0.0067432  -0.0029445  -0.0017863  -0.1809670   0.3224043  -0.1082808
   12   0.0053258  -0.0140797   0.0059586   0.0449452  -0.1082808   0.1032188
   13   0.0036557   0.0018517   0.0010454  -0.0015614  -0.0014010  -0.0019682
   14  -0.0001928   0.0002256   0.0000866   0.0018949   0.0009827   0.0020908
   15  -0.0009596  -0.0004059   0.0021595  -0.0006460  -0.0017116  -0.0017607
   16  -0.0008817  -0.0028104   0.0013259   0.0011571   0.0014432  -0.0025917
   17   0.0004954   0.0003055  -0.0012620  -0.0014300   0.0011367   0.0002582
   18   0.0008558   0.0027444  -0.0017530   0.0022212   0.0013656  -0.0065184
           13          14          15          16          17          18
    1   0.0043558   0.0054159  -0.0323083  -0.0024476   0.0058210  -0.0024482
    2   0.0082721   0.0028156  -0.0133697   0.0041796   0.0067028   0.0383960
    3   0.0077708  -0.0018696  -0.0314218   0.0034284  -0.0038631  -0.0267524
    4  -0.3031969  -0.1364444  -0.1090365  -0.0247427  -0.0505785  -0.0088282
    5  -0.1763324  -0.1140064  -0.0424212  -0.0102237  -0.4226663   0.0896205
    6  -0.1405407  -0.0400653  -0.0997746  -0.0196238   0.1188442  -0.0746997
    7   0.0036557  -0.0001928  -0.0009596  -0.0008817   0.0004954   0.0008558
    8   0.0018517   0.0002256  -0.0004059  -0.0028104   0.0003055   0.0027444
    9   0.0010454   0.0000866   0.0021595   0.0013259  -0.0012620  -0.0017530
   10  -0.0015614   0.0018949  -0.0006460   0.0011571  -0.0014300   0.0022212
   11  -0.0014010   0.0009827  -0.0017116   0.0014432   0.0011367   0.0013656
   12  -0.0019682   0.0020908  -0.0017607  -0.0025917   0.0002582  -0.0065184
   13   0.3023170   0.1621490   0.1323409  -0.0055688   0.0054576   0.0013508
   14   0.1621490   0.1255946   0.0547617  -0.0328209  -0.0156153  -0.0150055
   15   0.1323409   0.0547617   0.1248380   0.0106105   0.0031444   0.0059580
   16  -0.0055688  -0.0328209   0.0106105   0.0324829   0.0402307   0.0068502
   17   0.0054576  -0.0156153   0.0031444   0.0402307   0.4301371  -0.1171226
   18   0.0013508  -0.0150055   0.0059580   0.0068502  -0.1171226   0.1037655
 Writing REM_CC_EA            6
 ----------------------------------------------------
       Standard Nuclear Orientation (Angstroms)
    I     Atom         X            Y            Z
 ----------------------------------------------------
    1      N       0.018999     0.023724     0.014121
    2      N       0.027415    -0.013046     1.423155
    3      H       0.945698    -0.007885    -0.389467
    4      H      -0.450246     0.862166    -0.292575
    5      H       0.847513     0.419585     1.826895
    6      H      -0.028930    -0.972138     1.729978
 ----------------------------------------------------
 Nuclear Repulsion Energy =    41.9337479883 hartrees
 There are        9 alpha and        9 beta electrons
 old dipole drv.
            1           2           3           4           5           6
    1  -0.2385156  -0.1427269  -0.1047762  -0.3800730   0.1497145   0.1347545
    2  -0.1426284  -0.3946759  -0.0929578   0.1496218  -0.2527652  -0.0378075
    3   0.0162648  -0.1466379  -0.1955827   0.0493595  -0.1390922  -0.1952864
            7           8           9          10          11          12
    1   0.0447902  -0.0082532   0.0227303   0.2342928   0.0717124   0.0447911
    2   0.0069569   0.2558183   0.0596673   0.0474003   0.0983176   0.0246382
    3   0.0916867   0.0896636   0.0671551   0.0471968   0.0925671   0.1283518
           13          14          15          16          17          18
    1   0.0842952  -0.0747530  -0.0465279   0.2551942   0.0043045  -0.0509843
    2  -0.0900891   0.2160357   0.0436733   0.0286662   0.0772197   0.0026913
    3  -0.1216628   0.0406581   0.0670471  -0.0828345   0.0627850   0.1282366
 New transposed dipole drv.
            1           2           3
    1  -0.2385156  -0.1426284   0.0162648
    2  -0.1427269  -0.3946759  -0.1466379
    3  -0.1047762  -0.0929578  -0.1955827
    4  -0.3800730   0.1496218   0.0493595
    5   0.1497145  -0.2527652  -0.1390922
    6   0.1347545  -0.0378075  -0.1952864
    7   0.0447902   0.0069569   0.0916867
    8  -0.0082532   0.2558183   0.0896636
    9   0.0227303   0.0596673   0.0671551
   10   0.2342928   0.0474003   0.0471968
   11   0.0717124   0.0983176   0.0925671
   12   0.0447911   0.0246382   0.1283518
   13   0.0842952  -0.0900891  -0.1216628
   14  -0.0747530   0.2160357   0.0406581
   15  -0.0465279   0.0436733   0.0670471
   16   0.2551942   0.0286662  -0.0828345
   17   0.0043045   0.0772197   0.0627850
   18  -0.0509843   0.0026913   0.1282366
FINAL TENSOR RESULT:
Order 2, Length 18
Order 1, Length 18
   0.5858402  -0.2091171  -0.0803971  -0.0731736   0.0000095   0.0298438  -0.3902947   0.0026908   0.1164871  -0.1242765   0.1951774  -0.0311800   0.0043558   0.0054159  -0.0323083  -0.0024476   0.0058210  -0.0024482
Order 1, Length 18
  -0.2091171   0.4120014  -0.1499615  -0.0007269  -0.0716406   0.0312660   0.0425613  -0.0272751   0.0093340   0.1548300  -0.3226068   0.0843402   0.0082721   0.0028156  -0.0133697   0.0041796   0.0067028   0.0383960
Order 1, Length 18
  -0.0803971  -0.1499615   0.5204968  -0.0404598   0.0150570  -0.2889167   0.1438368   0.0252519  -0.0992906  -0.0341808   0.1153881  -0.0741156   0.0077708  -0.0018696  -0.0314218   0.0034284  -0.0038631  -0.0267524
Order 1, Length 18
  -0.0731736  -0.0007269  -0.0404598   0.3884244   0.1974451   0.1379135   0.0094549  -0.0021778   0.0349430   0.0032329  -0.0075100  -0.0145307  -0.3031969  -0.1364444  -0.1090365  -0.0247427  -0.0505785  -0.0088282
Order 1, Length 18
   0.0000095  -0.0716406   0.0150570   0.1974451   0.6095553  -0.0999816  -0.0050595  -0.0022661   0.0020590  -0.0058343   0.0010296   0.0356690  -0.1763324  -0.1140064  -0.0424212  -0.0102237  -0.4226663   0.0896205
Order 1, Length 18
   0.0298438   0.0312660  -0.2889167   0.1379135  -0.0999816   0.5216695  -0.0061833  -0.0050783  -0.0314924  -0.0014112  -0.0049792  -0.0267828  -0.1405407  -0.0400653  -0.0997746  -0.0196238   0.1188442  -0.0746997
Order 1, Length 18
  -0.3902947   0.0425613   0.1438368   0.0094549  -0.0050595  -0.0061833   0.3962470  -0.0310600  -0.1428736  -0.0181835  -0.0067432   0.0053258   0.0036557  -0.0001928  -0.0009596  -0.0008817   0.0004954   0.0008558
Order 1, Length 18
   0.0026908  -0.0272751   0.0252519  -0.0021778  -0.0022661  -0.0050783  -0.0310600   0.0319527  -0.0084338   0.0315048  -0.0029445  -0.0140797   0.0018517   0.0002256  -0.0004059  -0.0028104   0.0003055   0.0027444
Order 1, Length 18
   0.1164871   0.0093340  -0.0992906   0.0349430   0.0020590  -0.0314924  -0.1428736  -0.0084338   0.1244164  -0.0109271  -0.0017863   0.0059586   0.0010454   0.0000866   0.0021595   0.0013259  -0.0012620  -0.0017530
Order 1, Length 18
  -0.1242765   0.1548300  -0.0341808   0.0032329  -0.0058343  -0.0014112  -0.0181835   0.0315048  -0.0109271   0.1396305  -0.1809670   0.0449452  -0.0015614   0.0018949  -0.0006460   0.0011571  -0.0014300   0.0022212
Order 1, Length 18
   0.1951774  -0.3226068   0.1153881  -0.0075100   0.0010296  -0.0049792  -0.0067432  -0.0029445  -0.0017863  -0.1809670   0.3224043  -0.1082808  -0.0014010   0.0009827  -0.0017116   0.0014432   0.0011367   0.0013656
Order 1, Length 18
  -0.0311800   0.0843402  -0.0741156  -0.0145307   0.0356690  -0.0267828   0.0053258  -0.0140797   0.0059586   0.0449452  -0.1082808   0.1032188  -0.0019682   0.0020908  -0.0017607  -0.0025917   0.0002582  -0.0065184
Order 1, Length 18
   0.0043558   0.0082721   0.0077708  -0.3031969  -0.1763324  -0.1405407   0.0036557   0.0018517   0.0010454  -0.0015614  -0.0014010  -0.0019682   0.3023170   0.1621490   0.1323409  -0.0055688   0.0054576   0.0013508
Order 1, Length 18
   0.0054159   0.0028156  -0.0018696  -0.1364444  -0.1140064  -0.0400653  -0.0001928   0.0002256   0.0000866   0.0018949   0.0009827   0.0020908   0.1621490   0.1255946   0.0547617  -0.0328209  -0.0156153  -0.0150055
Order 1, Length 18
  -0.0323083  -0.0133697  -0.0314218  -0.1090365  -0.0424212  -0.0997746  -0.0009596  -0.0004059   0.0021595  -0.0006460  -0.0017116  -0.0017607   0.1323409   0.0547617   0.1248380   0.0106105   0.0031444   0.0059580
Order 1, Length 18
  -0.0024476   0.0041796   0.0034284  -0.0247427  -0.0102237  -0.0196238  -0.0008817  -0.0028104   0.0013259   0.0011571   0.0014432  -0.0025917  -0.0055688  -0.0328209   0.0106105   0.0324829   0.0402307   0.0068502
Order 1, Length 18
   0.0058210   0.0067028  -0.0038631  -0.0505785  -0.4226663   0.1188442   0.0004954   0.0003055  -0.0012620  -0.0014300   0.0011367   0.0002582   0.0054576  -0.0156153   0.0031444   0.0402307   0.4301371  -0.1171226
Order 1, Length 18
  -0.0024482   0.0383960  -0.0267524  -0.0088282   0.0896205  -0.0746997   0.0008558   0.0027444  -0.0017530   0.0022212   0.0013656  -0.0065184   0.0013508  -0.0150055   0.0059580   0.0068502  -0.1171226   0.1037655


 # Finishing finite difference calculation for IDERIV #
 ######################################################
 ######################################################
 Requested basis set is G3large
 There are 44 shells and 124 basis functions
 **********************************************************************
 **                                                                  **
 **                       VIBRATIONAL ANALYSIS                       **
 **                       --------------------                       **
 **                                                                  **
 **        VIBRATIONAL FREQUENCIES (CM**-1) AND NORMAL MODES         **
 **     FORCE CONSTANTS (mDYN/ANGSTROM) AND REDUCED MASSES (AMU)     **
 **                  INFRARED INTENSITIES (KM/MOL)                   **
 **                                                                  **
 **********************************************************************
 

 Mode:                 1                      2                      3
 Frequency:       475.86                 795.85                 928.14
 Force Cnst:      0.1392                 0.5234                 0.6046
 Red. Mass:       1.0435                 1.4024                 1.1911
 IR Active:          YES                    YES                    YES
 IR Intens:       37.265                 98.501                166.734
 Raman Active:       YES                    YES                    YES
               X      Y      Z        X      Y      Z        X      Y      Z
 N         -0.028  0.024  0.006   -0.033 -0.071 -0.097   -0.049 -0.055 -0.039
 N         -0.014 -0.034 -0.006   -0.059  0.049  0.096    0.069 -0.028 -0.040
 H         -0.058 -0.491 -0.037    0.185  0.372  0.319    0.085  0.386  0.181
 H          0.415  0.282  0.038    0.345  0.264  0.175    0.267  0.299  0.369
 H         -0.267  0.418  0.037    0.324 -0.248 -0.315   -0.250  0.313  0.188
 H          0.495 -0.072 -0.036    0.419 -0.084 -0.167   -0.381  0.154  0.369
 TransDip   0.190  0.044  0.001    0.309  0.074  0.003   -0.069  0.286  0.290

 Mode:                 4                      5                      6
 Frequency:      1178.81                1303.86                1331.40
 Force Cnst:      2.3831                 1.1784                 1.3202
 Red. Mass:       2.9108                 1.1765                 1.2641
 IR Active:          YES                    YES                    YES
 IR Intens:        3.560                  4.768                  3.033
 Raman Active:       YES                    YES                    YES
               X      Y      Z        X      Y      Z        X      Y      Z
 N          0.019  0.017 -0.269    0.081  0.008  0.000   -0.020  0.082 -0.052
 N          0.024 -0.007  0.269   -0.078 -0.019 -0.006    0.010 -0.085  0.051
 H         -0.130 -0.131 -0.604   -0.131 -0.039 -0.477    0.151 -0.110  0.401
 H         -0.151 -0.018 -0.095   -0.112  0.076  0.526   -0.042 -0.091 -0.481
 H         -0.172  0.059  0.598    0.126  0.006 -0.437    0.102  0.168 -0.451
 H         -0.142 -0.049  0.100    0.075  0.110  0.471   -0.071  0.077  0.538
 TransDip  -0.059 -0.014  0.000    0.016 -0.058  0.035   -0.054 -0.015  0.002

 Mode:                 7                      8                      9
 Frequency:      1682.53                1694.31                3558.25
 Force Cnst:      1.8205                 1.7867                 7.8311
 Red. Mass:       1.0915                 1.0563                 1.0498
 IR Active:          YES                    YES                    YES
 IR Intens:       18.739                 12.455                  3.978
 Raman Active:       YES                    YES                    YES
               X      Y      Z        X      Y      Z        X      Y      Z
 N         -0.006  0.022 -0.056   -0.019 -0.001  0.032   -0.029 -0.016  0.025
 N          0.001  0.023 -0.047   -0.018 -0.002 -0.044    0.031 -0.001  0.023
 H          0.165 -0.357  0.438   -0.112  0.274 -0.252    0.597 -0.049 -0.253
 H         -0.357 -0.043  0.368    0.281  0.030 -0.396   -0.184  0.273 -0.099
 H          0.002 -0.312  0.367    0.019 -0.376  0.343   -0.479 -0.282 -0.236
 H          0.268  0.091  0.265    0.335  0.120  0.472    0.042  0.287 -0.087
 TransDip   0.012 -0.114  0.078    0.112  0.012  0.010   -0.001 -0.001  0.064

 Mode:                10                     11                     12
 Frequency:      3563.07                3655.34                3657.86
 Force Cnst:      7.8444                 8.6335                 8.6267
 Red. Mass:       1.0487                 1.0967                 1.0943
 IR Active:          YES                    YES                    YES
 IR Intens:        0.114                  7.039                 11.674
 Raman Active:       YES                    YES                    YES
               X      Y      Z        X      Y      Z        X      Y      Z
 N         -0.022 -0.019  0.025    0.055 -0.043  0.003    0.033 -0.029  0.004
 N         -0.031  0.007 -0.027    0.020  0.040 -0.001   -0.028 -0.063  0.005
 H          0.505 -0.038 -0.208   -0.427  0.008  0.178   -0.206  0.001  0.084
 H         -0.207  0.317 -0.117   -0.328  0.583 -0.207   -0.234  0.403 -0.147
 H          0.484  0.281  0.231   -0.264 -0.135 -0.124    0.321  0.160  0.148
 H         -0.052 -0.395  0.123   -0.022 -0.411  0.126    0.049  0.709 -0.222
 TransDip  -0.010 -0.002 -0.003   -0.085  0.005 -0.002   -0.007  0.109 -0.006

 STANDARD THERMODYNAMIC QUANTITIES AT   298.18 K  AND     1.00 ATM

   This Molecule has  0 Imaginary Frequencies
   Zero point vibrational energy:       34.060 kcal/mol

   Atom    1 Element N  Has Mass   14.00307
   Atom    2 Element N  Has Mass   14.00307
   Atom    3 Element H  Has Mass    1.00783
   Atom    4 Element H  Has Mass    1.00783
   Atom    5 Element H  Has Mass    1.00783
   Atom    6 Element H  Has Mass    1.00783
   Molecular Mass:    32.037460 amu
   Principal axes and moments of inertia in atomic units:
                             1           2           3
    Eigenvalues --       12.19018    72.59721    72.65865
          X               0.02393     0.97710    -0.21143
          Y              -0.10423     0.21278     0.97153
          Z               0.99427    -0.00121     0.10694
   Rotational Symmetry Number is   1
   The Molecule is an Asymmetric Top
   Translational Enthalpy:        0.889 kcal/mol
   Rotational Enthalpy:           0.889 kcal/mol
   Vibrational Enthalpy:         34.320 kcal/mol
   gas constant (RT):             0.593 kcal/mol
   Translational Entropy:        36.325  cal/mol.K
   Rotational Entropy:           18.804  cal/mol.K
   Vibrational Entropy:           1.164  cal/mol.K

   Total Enthalpy:               36.690 kcal/mol
   Total Entropy:                56.293  cal/mol.K
 Total job time:  1728.28s(wall), 1669.00s(cpu) 
 Wed May  1 12:49:21 2013

        *************************************************************
        *                                                           *
        *  Thank you very much for using Q-Chem.  Have a nice day.  *
        *                                                           *
        *************************************************************


0 sent ACK to 0 
now end server 0 ... 
