Process 0 of 1 is on cl191.stfx.acenet.ca - thread support 1
initial socket setup ...start
initial socket setup ...done 
now start server 0 ... 

cmd = /usr/bin/ssh clhead /usr/local/qchem/bin/get_hostid 620658833 > /globalscratch/itamblyn/bnl/g297_b3lyp_neut_g03Large_worked/g2g71098/omega420/qchem10634/lic.dat
                  Welcome to Q-Chem
     A Quantum Leap Into The Future Of Chemistry

 Y. Shao, L. Fusti-Molnar, Y. Jung, J. Kussmann, C. Ochsenfeld,
 S. T. Brown, A. T. B. Gilbert, L. V. Slipchenko,S. V. Levchenko,
 D. P. O'Neill, R. A. DiStasio Jr., R. C. Lochan, T. Wang,
 G. J. O. Beran, N. A. Besley, J. M. Herbert, C. Y. Lin,
 T. Van Voorhis, S. H. Chien, A. Sodt, R. P. Steele, 
 V. A. Rassolov, P. E. Maslen, P. P. Korambath, R. D. Adamson,
 B. Austin, J. Baker, E. F. C. Byrd, H. Dachsel, R. J. Doerksen,
 A. Dreuw, B. D. Dunietz, A. D. Dutoi, T. R. Furlani,
 S. R. Gwaltney, A. Heyden, S. Hirata, C.-P. Hsu, G. Kedziora,
 R. Z. Khaliullin, P. Klunzinger, A. M. Lee, M. S. Lee, W. Liang,
 I. Lotan, N. Nair, B. Peters, E. I. Proynov, P. A. Pieniazek, 
 Y. M. Rhee, J. Ritchie, E. Rosta, C. D. Sherrill, 
 A. C. Simmonett, J. E. Subotnik, H. L. Woodcock III,
 W. Zhang, A. T. Bell, A. K. Chakraborty, D. M. Chipman,
 F. J. Keil, A. Warshel, W. J. Hehre, H. F. Schaefer III,
 J. Kong, A. I. Krylov, P. M. W. Gill, M. Head-Gordon,
 Q-Chem, Version 3.1, Q-Chem, Inc., Pittsburgh, PA (2007).

 Additional authors for Version 3.1: 
 Z. Gan, Y. Zhao, N. E. Schultz, D. Truhlar, E. Epifanovsky and M. Oana.

 Additional authors for Version 3.2: 
 R. Baer, B. R. Brooks, D. Casanova, J.-D. Chai, C.-L. Cheng, 
 C. Cramer, D. Crittenden, A. Ghysels, G. Hawkins, E. G. Hohenstein, 
 C. Kelley, W. Kurlancheek, D. Liotard, E. Livshits, P. Manohar, 
 A. Marenich, D. Neuhauser, R. Olson, M. A. Rohrdanz, K. S. Thanthiriwatte, 
 A. J. W. Thom, V. Vanovschi, C. F. Williams, Q. Wu and Z.-Q. You. 


 Intel X86 Linux Version

 Q-chem begins on Fri Apr 15 16:07:16 2011  

 Parallel job on  1  processors
Processing $rem in /usr/local/qchem/config/preferences.

theFileMan(): MAXOPENFILES=974 MAX_SUB_FILE_NUM=16
Maximum size of a physical file is 2.0 GB, maximum size of a tmp-file is 32.0 GB


--------------------------------------------------------------
User input:
--------------------------------------------------------------

$molecule
-1,2
 C
 N,1,rn1
 O,2,ro1,1,ao1
 O,2,ro2,1,ao2,3,to2,0
 H,1,rh1,2,ah1,3,th1,0
 H,1,rh2,2,ah2,5,th2,0
 H,1,rh3,2,ah3,5,th3,0

 rn1=1.49919618
 ro1=1.22676523
 ao1=117.0213243
 ro2=1.22676165
 ao2=117.02212404
 to2=181.89178544
 rh1=1.09240838
 ah1=106.82918485
 th1=89.04662497
 rh2=1.08852848
 ah2=108.05601167
 th2=118.84300819
 rh3=1.0885295
 ah3=108.0557423
 th3=-118.84193037

$end

$comment
negative
$end

$xc_functional
   X HF 1.0
   X BNL 1.0
   C LYP 1.0
$end

$rem
SYMMETRY_DECOMPOSITION	0
exchange 		general
BASIS                   g3large
omega			420
separate_jk		true
mem_static              760
max_scf_cycles          200
scf_final_print         1
sym_ignore              true
$end

--------------------------------------------------------------
 Writing REM_CC_EA            7
 ----------------------------------------------------
       Standard Nuclear Orientation (Angstroms)
    I     Atom         X            Y            Z
 ----------------------------------------------------
    1      C       0.000000     0.000000     0.000000
    2      N       0.000000     0.000000     1.499196
    3      O       1.092848     0.000000     2.056543
    4      O      -1.092242    -0.036077     2.056556
    5      H       0.017398    -1.045478    -0.316273
    6      H      -0.914717     0.484106    -0.337386
    7      H       0.898115     0.514257    -0.337381
 ----------------------------------------------------
 Nuclear Repulsion Energy =   124.4943888145 hartrees
 There are       17 alpha and       16 beta electrons
 Requested basis set is G3large
 There are 58 shells and 198 basis functions

Total QAlloc Memory Limit   2000 MB
Mega-Array Size       743 MB
MEM_STATIC part       760 MB

                       Distance Matrix (Angstroms)
             C (  1)   N (  2)   O (  3)   O (  4)   H (  5)   H (  6)
   N (  2)  1.499196
   O (  3)  2.328881  1.226765
   O (  4)  2.328888  1.226762  2.185388
   H (  5)  1.092408  2.095055  2.807111  2.807225
   H (  6)  1.088528  2.108103  3.161577  2.456229  1.791343
   H (  7)  1.088529  2.108100  2.456268  3.161538  1.791335  1.813082

 
 A cutoff of  1.0D-08 yielded   1579 shell pairs
 There are  18648 function pairs ( 23576 Cartesian)
Evaluating contribution to one-electron hamiltonian from nuclear
 Smallest overlap matrix eigenvalue = 3.57E-04
 Multipole matrices computed through 2nd order

  Scale SEOQF with 1.000000e-01/1.000000e-01/1.000000e-01

 Standard Electronic Orientation quadrupole field applied
 Nucleus-field energy     =    -0.0000000081 hartrees
 Guess from superposition of atomic densities
 Warning:  Energy on first SCF cycle will be non-variational
 An unrestricted hybrid HF-DFT SCF calculation will be
 performed using Pulay DIIS extrapolation
 Exchange:     1.0000 Hartree-Fock + 1.0000 BNL
 Correlation:  1.0000 LYP
 Using SG-1 standard quadrature grid
 SCF converges when DIIS error is below 1.0E-05
 Warning!  Inaccurate integrated density:
   Number of electrons =    33
   Numerical integral  =    32.000161738587
   Relative error      =    -3.0298129134 %
 ---------------------------------------
  Cycle       Energy         DIIS Error
 ---------------------------------------
    1    -243.6122380183      3.42E-02
    2    -242.5805528744      6.50E-03
    3    -242.5800430363      7.44E-03
    4    -242.7488359112      4.70E-04
    5    -242.7497983053      2.30E-04
    6    -242.7500901952      1.11E-04
    7    -242.7501643453      4.41E-05
    8    -242.7501867019      1.41E-05
    9    -242.7502023018      6.02E-06 Convergence criterion met
 ---------------------------------------
 One-Electron    Energy =  -588.8051221425
 Total Coulomb   Energy =   249.9743083793
 Alpha Exchange  Energy =    -3.5700238198
 Beta  Exchange  Energy =    -3.3515941916
 DFT   Exchange  Energy =   -20.3409592350
 DFT Correlation Energy =    -1.1512000986
 Nuclear Repu.   Energy =   124.4943888064
 Nuclear Attr.   Energy =  -830.9277541811
 Kinetic         Energy =   242.1226320386
 <S^2> = 0.7531
 SCF time:  CPU 110.07 s  wall 122.60 s
 Final Alpha MO Eigenvalues
            1           2           3           4           5           6
    1 -18.5425348 -18.5424949 -13.9701827  -9.8352565  -1.0814042  -0.9083756
            7           8           9          10          11          12
    1  -0.7205814  -0.5142826  -0.4450883  -0.4124950  -0.3980895  -0.3489634
           13          14          15          16          17          18
    1  -0.3346420  -0.2010010  -0.1742927  -0.1579811  -0.0107591   0.1446926
           19          20          21          22
    1   0.1811685   0.1834906   0.2273107   0.2695639
 Final Beta MO Eigenvalues
            1           2           3           4           5           6
    1 -18.5362568 -18.5362021 -13.9554292  -9.8361353  -1.0653053  -0.8963311
            7           8           9          10          11          12
    1  -0.7142813  -0.4959008  -0.4134255  -0.4009414  -0.3923917  -0.3414090
           13          14          15          16          17          18
    1  -0.3128266  -0.1676568  -0.1509107  -0.1476280   0.1400368   0.1714749
           19          20          21
    1   0.1770089   0.2242847   0.2662984
 Analysis of SCF Wavefunction
 
 --------------------------------------------------------------
                    Orbital Energies (a.u.)
 --------------------------------------------------------------
 
 Alpha MOs
 -- Occupied --
-18.543 -18.542 -13.970  -9.835  -1.081  -0.908  -0.721  -0.514
 -0.445  -0.412  -0.398  -0.349  -0.335  -0.201  -0.174  -0.158
 -0.011
 -- Virtual --
  0.145   0.181   0.183   0.227   0.270   0.274   0.289   0.322
  0.322   0.372   0.394   0.398   0.433   0.452   0.458   0.465
  0.481   0.505   0.506   0.517   0.546   0.635   0.661   0.679
  0.690   0.707   0.747   0.778   0.804   0.845   0.878   0.888
  0.955   0.994   1.113   1.127   1.204   1.208   1.218   1.275
  1.296   1.334   1.359   1.382   1.396   1.409   1.421   1.441
  1.470   1.482   1.553   1.562   1.578   1.680   1.686   1.704
  1.733   1.790   1.836   1.909   1.929   1.930   2.037   2.052
  2.127   2.177   2.212   2.422   2.437   2.592   2.744   2.804
  2.874   2.907   2.909   2.946   3.216   3.289   3.373   3.376
  3.404   3.476   3.545   3.572   3.705   3.736   3.772   3.793
  3.978   4.088   4.092   4.119   4.181   4.188   4.215   4.297
  4.400   4.425   4.536   4.605   4.628   4.698   4.804   4.814
  4.869   4.870   4.929   5.007   5.027   5.028   5.242   5.315
  5.360   5.382   5.407   5.439   5.449   5.457   5.480   5.583
  5.637   5.795   5.816   5.871   5.905   5.953   5.989   6.123
  6.174   6.442   6.740   6.924   7.114   7.164   7.172   7.209
  7.351   7.487   7.526   7.553   7.559   7.854   7.951   8.129
  8.274  24.651  28.277  28.348  28.373  36.340  37.689  38.400
 38.624  40.693  40.789  40.792  40.901  41.086  41.144  41.214
 41.432  41.442  41.505  43.937  43.943  43.995  44.009  44.046
 44.097  44.100  44.139  44.231  44.266  46.061  46.064  46.133
 46.190  46.710  47.083  50.567  50.608
 
 Beta MOs
 -- Occupied --
-18.536 -18.536 -13.955  -9.836  -1.065  -0.896  -0.714  -0.496
 -0.413  -0.401  -0.392  -0.341  -0.313  -0.168  -0.151  -0.148
 -- Virtual --
  0.140   0.171   0.177   0.224   0.266   0.270   0.286   0.317
  0.320   0.322   0.372   0.394   0.402   0.436   0.452   0.458
  0.464   0.480   0.505   0.514   0.523   0.547   0.635   0.663
  0.681   0.691   0.723   0.750   0.781   0.804   0.850   0.882
  0.892   0.961   0.996   1.114   1.146   1.208   1.216   1.226
  1.279   1.299   1.340   1.363   1.386   1.405   1.414   1.424
  1.445   1.481   1.486   1.559   1.571   1.584   1.686   1.687
  1.707   1.738   1.792   1.842   1.919   1.935   1.939   2.045
  2.067   2.135   2.184   2.230   2.427   2.453   2.604   2.750
  2.807   2.882   2.913   2.915   2.951   3.216   3.296   3.376
  3.378   3.405   3.476   3.549   3.574   3.709   3.739   3.776
  3.795   4.021   4.094   4.101   4.140   4.186   4.200   4.231
  4.317   4.403   4.428   4.542   4.617   4.633   4.708   4.817
  4.821   4.875   4.888   4.949   5.013   5.038   5.059   5.270
  5.329   5.376   5.391   5.435   5.453   5.463   5.477   5.495
  5.592   5.653   5.815   5.825   5.879   5.909   5.963   5.999
  6.130   6.188   6.449   6.759   6.944   7.135   7.184   7.194
  7.230   7.363   7.494   7.545   7.567   7.573   7.861   7.961
  8.140   8.284  24.650  28.276  28.347  28.373  36.360  37.716
 38.410  38.633  40.727  40.821  40.824  40.918  41.099  41.144
 41.213  41.431  41.441  41.504  43.953  43.961  44.012  44.025
 44.053  44.113  44.116  44.145  44.239  44.274  46.074  46.077
 46.138  46.195  46.714  47.088  50.574  50.616
 --------------------------------------------------------------
 
          Ground-State Mulliken Net Atomic Charges

     Atom                 Charge (a.u.)    Spin (a.u.)
  --------------------------------------------------------
      1 C                    -0.325475      -0.052606
      2 N                     0.146422       0.402435
      3 O                    -0.517299       0.259751
      4 O                    -0.517280       0.259876
      5 H                     0.009185       0.105086
      6 H                     0.102254       0.012708
      7 H                     0.102193       0.012751
  --------------------------------------------------------
  Sum of atomic charges =    -1.000000
  Sum of spin   charges =     1.000000

 -----------------------------------------------------------------
                    Cartesian Multipole Moments
 -----------------------------------------------------------------
    Charge (ESU x 10^10)
                -4.8032
    Dipole Moment (Debye)
         X      -0.0074      Y       0.4210      Z     -10.6750
       Tot      10.6833
    Quadrupole Moments (Debye-Ang)
        XX     -36.3808     XY      -0.1408     YY     -27.8683
        XZ      -0.0024     YZ       0.1042     ZZ     -52.2765
    Octapole Moments (Debye-Ang^2)
       XXX      -0.0730    XXY       1.4406    XYY      -0.0062
       YYY       3.2199    XXZ     -53.4700    XYZ      -0.3119
       YYZ     -34.6125    XZZ      -0.0286    YZZ       1.6013
       ZZZ    -158.6787
    Hexadecapole Moments (Debye-Ang^3)
      XXXX    -153.9344   XXXY      -0.8526   XXYY     -34.1220
      XYYY      -0.8415   YYYY     -51.3996   XXXZ      -0.0298
      XXYZ       0.5504   XYYZ       0.0032   YYYZ       0.8431
      XXZZ    -136.3018   XYZZ      -0.8251   YYZZ     -86.3302
      XZZZ      -0.0484   YZZZ       2.5898   ZZZZ    -578.0486
 -----------------------------------------------------------------
 Total job time:  125.80s(wall), 110.31s(cpu) 
 Fri Apr 15 16:09:22 2011

        *************************************************************
        *                                                           *
        *  Thank you very much for using Q-Chem.  Have a nice day.  *
        *                                                           *
        *************************************************************


0 sent ACK to 0 
now end server 0 ... 
 
**********************************************************************
Job 2 of 3 
**********************************************************************
 
Process 0 of 1 is on cl191.stfx.acenet.ca - thread support 1
initial socket setup ...start
initial socket setup ...done 
now start server 0 ... 

cmd = /usr/bin/ssh clhead /usr/local/qchem/bin/get_hostid 1115660201 > /globalscratch/itamblyn/bnl/g297_b3lyp_neut_g03Large_worked/g2g71098/omega420/qchem10634/lic.dat
                  Welcome to Q-Chem
     A Quantum Leap Into The Future Of Chemistry

 Y. Shao, L. Fusti-Molnar, Y. Jung, J. Kussmann, C. Ochsenfeld,
 S. T. Brown, A. T. B. Gilbert, L. V. Slipchenko,S. V. Levchenko,
 D. P. O'Neill, R. A. DiStasio Jr., R. C. Lochan, T. Wang,
 G. J. O. Beran, N. A. Besley, J. M. Herbert, C. Y. Lin,
 T. Van Voorhis, S. H. Chien, A. Sodt, R. P. Steele, 
 V. A. Rassolov, P. E. Maslen, P. P. Korambath, R. D. Adamson,
 B. Austin, J. Baker, E. F. C. Byrd, H. Dachsel, R. J. Doerksen,
 A. Dreuw, B. D. Dunietz, A. D. Dutoi, T. R. Furlani,
 S. R. Gwaltney, A. Heyden, S. Hirata, C.-P. Hsu, G. Kedziora,
 R. Z. Khaliullin, P. Klunzinger, A. M. Lee, M. S. Lee, W. Liang,
 I. Lotan, N. Nair, B. Peters, E. I. Proynov, P. A. Pieniazek, 
 Y. M. Rhee, J. Ritchie, E. Rosta, C. D. Sherrill, 
 A. C. Simmonett, J. E. Subotnik, H. L. Woodcock III,
 W. Zhang, A. T. Bell, A. K. Chakraborty, D. M. Chipman,
 F. J. Keil, A. Warshel, W. J. Hehre, H. F. Schaefer III,
 J. Kong, A. I. Krylov, P. M. W. Gill, M. Head-Gordon,
 Q-Chem, Version 3.1, Q-Chem, Inc., Pittsburgh, PA (2007).

 Additional authors for Version 3.1: 
 Z. Gan, Y. Zhao, N. E. Schultz, D. Truhlar, E. Epifanovsky and M. Oana.

 Additional authors for Version 3.2: 
 R. Baer, B. R. Brooks, D. Casanova, J.-D. Chai, C.-L. Cheng, 
 C. Cramer, D. Crittenden, A. Ghysels, G. Hawkins, E. G. Hohenstein, 
 C. Kelley, W. Kurlancheek, D. Liotard, E. Livshits, P. Manohar, 
 A. Marenich, D. Neuhauser, R. Olson, M. A. Rohrdanz, K. S. Thanthiriwatte, 
 A. J. W. Thom, V. Vanovschi, C. F. Williams, Q. Wu and Z.-Q. You. 


 Intel X86 Linux Version

 Q-chem begins on Fri Apr 15 16:09:25 2011  

 Parallel job on  1  processors
Processing $rem in /usr/local/qchem/config/preferences.

theFileMan(): MAXOPENFILES=974 MAX_SUB_FILE_NUM=16
Maximum size of a physical file is 2.0 GB, maximum size of a tmp-file is 32.0 GB


--------------------------------------------------------------
User input:
--------------------------------------------------------------

$molecule
0,1
 C
 N,1,rn1
 O,2,ro1,1,ao1
 O,2,ro2,1,ao2,3,to2,0
 H,1,rh1,2,ah1,3,th1,0
 H,1,rh2,2,ah2,5,th2,0
 H,1,rh3,2,ah3,5,th3,0

 rn1=1.49919618
 ro1=1.22676523
 ao1=117.0213243
 ro2=1.22676165
 ao2=117.02212404
 to2=181.89178544
 rh1=1.09240838
 ah1=106.82918485
 th1=89.04662497
 rh2=1.08852848
 ah2=108.05601167
 th2=118.84300819
 rh3=1.0885295
 ah3=108.0557423
 th3=-118.84193037

$end

$comment
neutral
$end

$xc_functional
   X HF 1.0
   X BNL 1.0
   C LYP 1.0
$end

$rem
SYMMETRY_DECOMPOSITION	0
exchange 		general
BASIS                   g3large
omega			420
separate_jk		true
mem_static              760
max_scf_cycles          200
scf_final_print         1
sym_ignore              true
$end

--------------------------------------------------------------
 Writing REM_CC_EA            7
 ----------------------------------------------------
       Standard Nuclear Orientation (Angstroms)
    I     Atom         X            Y            Z
 ----------------------------------------------------
    1      C       0.000000     0.000000     0.000000
    2      N       0.000000     0.000000     1.499196
    3      O       1.092848     0.000000     2.056543
    4      O      -1.092242    -0.036077     2.056556
    5      H       0.017398    -1.045478    -0.316273
    6      H      -0.914717     0.484106    -0.337386
    7      H       0.898115     0.514257    -0.337381
 ----------------------------------------------------
 Nuclear Repulsion Energy =   124.4943888145 hartrees
 There are       16 alpha and       16 beta electrons
 Requested basis set is G3large
 There are 58 shells and 198 basis functions

Total QAlloc Memory Limit   2000 MB
Mega-Array Size       743 MB
MEM_STATIC part       760 MB

                       Distance Matrix (Angstroms)
             C (  1)   N (  2)   O (  3)   O (  4)   H (  5)   H (  6)
   N (  2)  1.499196
   O (  3)  2.328881  1.226765
   O (  4)  2.328888  1.226762  2.185388
   H (  5)  1.092408  2.095055  2.807111  2.807225
   H (  6)  1.088528  2.108103  3.161577  2.456229  1.791343
   H (  7)  1.088529  2.108100  2.456268  3.161538  1.791335  1.813082

 
 A cutoff of  1.0D-08 yielded   1579 shell pairs
 There are  18648 function pairs ( 23576 Cartesian)
Evaluating contribution to one-electron hamiltonian from nuclear
 Smallest overlap matrix eigenvalue = 3.57E-04
 Multipole matrices computed through 2nd order

  Scale SEOQF with 1.000000e-01/1.000000e-01/1.000000e-01

 Standard Electronic Orientation quadrupole field applied
 Nucleus-field energy     =    -0.0000000081 hartrees
 Guess from superposition of atomic densities
 Warning:  Energy on first SCF cycle will be non-variational
 A restricted hybrid HF-DFT SCF calculation will be
 performed using Pulay DIIS extrapolation
 Exchange:     1.0000 Hartree-Fock + 1.0000 BNL
 Correlation:  1.0000 LYP
 Using SG-1 standard quadrature grid
 SCF converges when DIIS error is below 1.0E-05
 ---------------------------------------
  Cycle       Energy         DIIS Error
 ---------------------------------------
    1    -243.6122380183      3.42E-02
    2    -242.5427875480      7.60E-03
    3    -242.4442203946      1.02E-02
    4    -242.7469913375      5.31E-04
    5    -242.7476497908      4.23E-04
    6    -242.7482175950      1.79E-04
    7    -242.7483567946      4.66E-05
    8    -242.7483822895      1.77E-05
    9    -242.7483897898      6.65E-06 Convergence criterion met
 ---------------------------------------
 One-Electron    Energy =  -580.0004392766
 Total Coulomb   Energy =   240.8064800190
 Alpha Exchange  Energy =    -3.3716796584
 Beta  Exchange  Energy =    -3.3716796584
 DFT   Exchange  Energy =   -20.1830736975
 DFT Correlation Energy =    -1.1223863243
 Nuclear Repu.   Energy =   124.4943888064
 Nuclear Attr.   Energy =  -821.6385574117
 Kinetic         Energy =   241.6381181351
 SCF time:  CPU 88.39 s  wall 112.84 s
 Final Alpha MO Eigenvalues
            1           2           3           4           5           6
    1 -18.8471808 -18.8471195 -14.3193332 -10.0611431  -1.3786197  -1.2028160
            7           8           9          10          11          12
    1  -0.9716997  -0.7630732  -0.7080084  -0.6852427  -0.6625793  -0.5858156
           13          14          15          16          17          18
    1  -0.5656460  -0.4486791  -0.4472162  -0.4350937   0.0048338   0.0225035
           19          20          21
    1   0.0595857   0.0605158   0.0759313
 Analysis of SCF Wavefunction
 
 --------------------------------------------------------------
                    Orbital Energies (a.u.)
 --------------------------------------------------------------
 
 Alpha MOs
 -- Occupied --
-18.847 -18.847 -14.319 -10.061  -1.379  -1.203  -0.972  -0.763
 -0.708  -0.685  -0.663  -0.586  -0.566  -0.449  -0.447  -0.435
 -- Virtual --
  0.005   0.023   0.060   0.061   0.076   0.121   0.126   0.136
  0.158   0.158   0.188   0.220   0.220   0.227   0.266   0.274
  0.282   0.296   0.303   0.328   0.335   0.372   0.428   0.437
  0.437   0.483   0.494   0.525   0.575   0.613   0.626   0.660
  0.696   0.725   0.780   0.872   0.909   0.958   0.971   0.980
  1.054   1.071   1.098   1.126   1.152   1.157   1.186   1.191
  1.207   1.237   1.247   1.323   1.330   1.349   1.450   1.475
  1.491   1.502   1.561   1.608   1.643   1.678   1.678   1.780
  1.797   1.864   1.903   1.949   2.168   2.172   2.327   2.497
  2.574   2.605   2.662   2.677   2.689   2.998   3.039   3.139
  3.155   3.185   3.248   3.292   3.344   3.471   3.489   3.536
  3.554   3.685   3.818   3.849   3.855   3.928   3.939   3.959
  4.028   4.181   4.210   4.303   4.365   4.377   4.416   4.524
  4.591   4.592   4.612   4.662   4.738   4.741   4.765   4.954
  5.032   5.077   5.102   5.116   5.158   5.167   5.171   5.196
  5.314   5.352   5.511   5.536   5.606   5.678   5.689   5.731
  5.852   5.886   6.153   6.445   6.630   6.827   6.879   6.886
  6.922   7.056   7.200   7.238   7.266   7.272   7.571   7.660
  7.840   7.984  24.424  28.049  28.122  28.149  35.998  37.342
 38.056  38.278  40.353  40.448  40.450  40.560  40.745  40.919
 40.985  41.206  41.215  41.279  43.637  43.644  43.695  43.709
 43.745  43.795  43.798  43.838  43.930  43.964  45.756  45.759
 45.832  45.889  46.405  46.779  50.264  50.306
 --------------------------------------------------------------
 
          Ground-State Mulliken Net Atomic Charges

     Atom                 Charge (a.u.)
  ----------------------------------------
      1 C                    -0.295458
      2 N                     0.223174
      3 O                    -0.202275
      4 O                    -0.202308
      5 H                     0.155571
      6 H                     0.160671
      7 H                     0.160625
  ----------------------------------------
  Sum of atomic charges =     0.000000

 -----------------------------------------------------------------
                    Cartesian Multipole Moments
 -----------------------------------------------------------------
    Charge (ESU x 10^10)
                 0.0000
    Dipole Moment (Debye)
         X      -0.0003      Y       0.0176      Z      -3.9112
       Tot       3.9113
    Quadrupole Moments (Debye-Ang)
        XX     -27.3228     XY      -0.0867     YY     -22.0902
        XZ      -0.0028     YZ       0.1618     ZZ     -33.0258
    Octapole Moments (Debye-Ang^2)
       XXX      -0.0652    XXY       1.3119    XYY       0.0492
       YYY      -0.3277    XXZ     -38.9549    XYZ      -0.1596
       YYZ     -29.2949    XZZ      -0.0107    YZZ       0.6186
       ZZZ    -114.2619
    Hexadecapole Moments (Debye-Ang^3)
      XXXX    -115.1175   XXXY      -0.7745   XXYY     -22.7735
      XYYY      -0.7015   YYYY     -25.8743   XXXZ      -0.0039
      XXYZ       0.0882   XYYZ      -0.0260   YYYZ       1.7559
      XXZZ     -97.5404   XYZZ      -0.5227   YYZZ     -65.8493
      XZZZ      -0.0382   YZZZ       2.2664   ZZZZ    -441.0994
 -----------------------------------------------------------------
 Total job time:  115.68s(wall), 88.63s(cpu) 
 Fri Apr 15 16:11:20 2011

        *************************************************************
        *                                                           *
        *  Thank you very much for using Q-Chem.  Have a nice day.  *
        *                                                           *
        *************************************************************


0 sent ACK to 0 
now end server 0 ... 
 
**********************************************************************
Job 3 of 3 
**********************************************************************
 
Process 0 of 1 is on cl191.stfx.acenet.ca - thread support 1
initial socket setup ...start
initial socket setup ...done 
now start server 0 ... 

cmd = /usr/bin/ssh clhead /usr/local/qchem/bin/get_hostid 1434719046 > /globalscratch/itamblyn/bnl/g297_b3lyp_neut_g03Large_worked/g2g71098/omega420/qchem10634/lic.dat
                  Welcome to Q-Chem
     A Quantum Leap Into The Future Of Chemistry

 Y. Shao, L. Fusti-Molnar, Y. Jung, J. Kussmann, C. Ochsenfeld,
 S. T. Brown, A. T. B. Gilbert, L. V. Slipchenko,S. V. Levchenko,
 D. P. O'Neill, R. A. DiStasio Jr., R. C. Lochan, T. Wang,
 G. J. O. Beran, N. A. Besley, J. M. Herbert, C. Y. Lin,
 T. Van Voorhis, S. H. Chien, A. Sodt, R. P. Steele, 
 V. A. Rassolov, P. E. Maslen, P. P. Korambath, R. D. Adamson,
 B. Austin, J. Baker, E. F. C. Byrd, H. Dachsel, R. J. Doerksen,
 A. Dreuw, B. D. Dunietz, A. D. Dutoi, T. R. Furlani,
 S. R. Gwaltney, A. Heyden, S. Hirata, C.-P. Hsu, G. Kedziora,
 R. Z. Khaliullin, P. Klunzinger, A. M. Lee, M. S. Lee, W. Liang,
 I. Lotan, N. Nair, B. Peters, E. I. Proynov, P. A. Pieniazek, 
 Y. M. Rhee, J. Ritchie, E. Rosta, C. D. Sherrill, 
 A. C. Simmonett, J. E. Subotnik, H. L. Woodcock III,
 W. Zhang, A. T. Bell, A. K. Chakraborty, D. M. Chipman,
 F. J. Keil, A. Warshel, W. J. Hehre, H. F. Schaefer III,
 J. Kong, A. I. Krylov, P. M. W. Gill, M. Head-Gordon,
 Q-Chem, Version 3.1, Q-Chem, Inc., Pittsburgh, PA (2007).

 Additional authors for Version 3.1: 
 Z. Gan, Y. Zhao, N. E. Schultz, D. Truhlar, E. Epifanovsky and M. Oana.

 Additional authors for Version 3.2: 
 R. Baer, B. R. Brooks, D. Casanova, J.-D. Chai, C.-L. Cheng, 
 C. Cramer, D. Crittenden, A. Ghysels, G. Hawkins, E. G. Hohenstein, 
 C. Kelley, W. Kurlancheek, D. Liotard, E. Livshits, P. Manohar, 
 A. Marenich, D. Neuhauser, R. Olson, M. A. Rohrdanz, K. S. Thanthiriwatte, 
 A. J. W. Thom, V. Vanovschi, C. F. Williams, Q. Wu and Z.-Q. You. 


 Intel X86 Linux Version

 Q-chem begins on Fri Apr 15 16:11:24 2011  

 Parallel job on  1  processors
Processing $rem in /usr/local/qchem/config/preferences.

theFileMan(): MAXOPENFILES=974 MAX_SUB_FILE_NUM=16
Maximum size of a physical file is 2.0 GB, maximum size of a tmp-file is 32.0 GB


--------------------------------------------------------------
User input:
--------------------------------------------------------------

$molecule
1,2
 C
 N,1,rn1
 O,2,ro1,1,ao1
 O,2,ro2,1,ao2,3,to2,0
 H,1,rh1,2,ah1,3,th1,0
 H,1,rh2,2,ah2,5,th2,0
 H,1,rh3,2,ah3,5,th3,0

 rn1=1.49919618
 ro1=1.22676523
 ao1=117.0213243
 ro2=1.22676165
 ao2=117.02212404
 to2=181.89178544
 rh1=1.09240838
 ah1=106.82918485
 th1=89.04662497
 rh2=1.08852848
 ah2=108.05601167
 th2=118.84300819
 rh3=1.0885295
 ah3=108.0557423
 th3=-118.84193037

$end

$comment
positive
$end

$xc_functional
   X HF 1.0
   X BNL 1.0
   C LYP 1.0
$end

$rem
SYMMETRY_DECOMPOSITION	0
exchange 		general
BASIS                   g3large
omega			420
separate_jk		true
mem_static              760
max_scf_cycles          200
scf_final_print         1
sym_ignore              true
$end

--------------------------------------------------------------
 Writing REM_CC_EA            7
 ----------------------------------------------------
       Standard Nuclear Orientation (Angstroms)
    I     Atom         X            Y            Z
 ----------------------------------------------------
    1      C       0.000000     0.000000     0.000000
    2      N       0.000000     0.000000     1.499196
    3      O       1.092848     0.000000     2.056543
    4      O      -1.092242    -0.036077     2.056556
    5      H       0.017398    -1.045478    -0.316273
    6      H      -0.914717     0.484106    -0.337386
    7      H       0.898115     0.514257    -0.337381
 ----------------------------------------------------
 Nuclear Repulsion Energy =   124.4943888145 hartrees
 There are       16 alpha and       15 beta electrons
 Requested basis set is G3large
 There are 58 shells and 198 basis functions

Total QAlloc Memory Limit   2000 MB
Mega-Array Size       743 MB
MEM_STATIC part       760 MB

                       Distance Matrix (Angstroms)
             C (  1)   N (  2)   O (  3)   O (  4)   H (  5)   H (  6)
   N (  2)  1.499196
   O (  3)  2.328881  1.226765
   O (  4)  2.328888  1.226762  2.185388
   H (  5)  1.092408  2.095055  2.807111  2.807225
   H (  6)  1.088528  2.108103  3.161577  2.456229  1.791343
   H (  7)  1.088529  2.108100  2.456268  3.161538  1.791335  1.813082

 
 A cutoff of  1.0D-08 yielded   1579 shell pairs
 There are  18648 function pairs ( 23576 Cartesian)
Evaluating contribution to one-electron hamiltonian from nuclear
 Smallest overlap matrix eigenvalue = 3.57E-04
 Multipole matrices computed through 2nd order

  Scale SEOQF with 1.000000e-01/1.000000e-01/1.000000e-01

 Standard Electronic Orientation quadrupole field applied
 Nucleus-field energy     =    -0.0000000081 hartrees
 Guess from superposition of atomic densities
 Warning:  Energy on first SCF cycle will be non-variational
 An unrestricted hybrid HF-DFT SCF calculation will be
 performed using Pulay DIIS extrapolation
 Exchange:     1.0000 Hartree-Fock + 1.0000 BNL
 Correlation:  1.0000 LYP
 Using SG-1 standard quadrature grid
 SCF converges when DIIS error is below 1.0E-05
 Warning!  Inaccurate integrated density:
   Number of electrons =    31
   Numerical integral  =    32.000161738587
   Relative error      =     3.2263281890 %
 ---------------------------------------
  Cycle       Energy         DIIS Error
 ---------------------------------------
    1    -243.6122380183      3.42E-02
    2    -242.0516071334      7.77E-03
    3    -241.8616502382      1.18E-02
    4    -242.2997824738      1.83E-03
    5    -242.3101018364      8.27E-04
    6    -242.3128984712      2.56E-04
    7    -242.3133911722      7.80E-05
    8    -242.3136083127      4.12E-05
    9    -242.3137182621      2.23E-05
   10    -242.3137787246      1.72E-05
   11    -242.3138833234      1.53E-05
   12    -242.3139869173      1.19E-05
   13    -242.3140828464      9.97E-06 Convergence criterion met
 ---------------------------------------
 One-Electron    Energy =  -570.2021277374
 Total Coulomb   Energy =   231.0621238789
 Alpha Exchange  Energy =    -3.3948467743
 Beta  Exchange  Energy =    -3.1655127044
 DFT   Exchange  Energy =   -20.0252855795
 DFT Correlation Energy =    -1.0828227361
 Nuclear Repu.   Energy =   124.4943888064
 Nuclear Attr.   Energy =  -811.5327950215
 Kinetic         Energy =   241.3306672841
 <S^2> = 0.7634
 SCF time:  CPU 158.86 s  wall 178.86 s
 Final Alpha MO Eigenvalues
            1           2           3           4           5           6
    1 -19.2856001 -19.1681481 -14.6239295 -10.3061519  -1.7266712  -1.5435085
            7           8           9          10          11          12
    1  -1.2528966  -1.0794842  -1.0182223  -0.9936486  -0.9786691  -0.8569420
           13          14          15          16          17          18
    1  -0.8194859  -0.8173661  -0.7765067  -0.7316082  -0.2925145  -0.1285815
           19          20          21
    1  -0.0907424  -0.0805334  -0.0761261
 Final Beta MO Eigenvalues
            1           2           3           4           5           6
    1 -19.2580086 -19.1686254 -14.6238783 -10.3049343  -1.7032020  -1.5221572
            7           8           9          10          11          12
    1  -1.2375364  -1.0499279  -1.0077747  -0.9694876  -0.9431595  -0.8208653
           13          14          15          16          17          18
    1  -0.8059468  -0.7682398  -0.7288027  -0.4314003  -0.2891395  -0.1274960
           19          20
    1  -0.0887367  -0.0799067
 Analysis of SCF Wavefunction
 
 --------------------------------------------------------------
                    Orbital Energies (a.u.)
 --------------------------------------------------------------
 
 Alpha MOs
 -- Occupied --
-19.286 -19.168 -14.624 -10.306  -1.727  -1.544  -1.253  -1.079
 -1.018  -0.994  -0.979  -0.857  -0.819  -0.817  -0.777  -0.732
 -- Virtual --
 -0.293  -0.129  -0.091  -0.081  -0.076  -0.062  -0.042  -0.033
 -0.015   0.002   0.004   0.013   0.044   0.047   0.055   0.074
  0.090   0.103   0.117   0.138   0.147   0.158   0.168   0.195
  0.215   0.280   0.286   0.310   0.375   0.417   0.418   0.436
  0.485   0.501   0.554   0.608   0.682   0.697   0.719   0.725
  0.813   0.819   0.849   0.866   0.870   0.913   0.938   0.944
  0.958   0.991   1.001   1.065   1.097   1.108   1.200   1.224
  1.262   1.273   1.302   1.335   1.362   1.388   1.409   1.492
  1.520   1.565   1.595   1.653   1.869   1.895   2.036   2.210
  2.300   2.328   2.374   2.431   2.436   2.770   2.775   2.890
  2.925   2.951   3.004   3.022   3.104   3.216   3.223   3.289
  3.298   3.397   3.518   3.580   3.592   3.655   3.666   3.699
  3.767   3.948   3.978   4.048   4.069   4.113   4.129   4.227
  4.282   4.324   4.358   4.383   4.424   4.430   4.502   4.628
  4.662   4.701   4.727   4.796   4.821   4.826   4.862   4.876
  5.008   5.021   5.181   5.207   5.281   5.379   5.434   5.481
  5.548   5.574   5.802   6.108   6.301   6.410   6.453   6.562
  6.602   6.725   6.817   6.872   6.929   6.954   7.218   7.303
  7.501   7.660  24.179  27.803  27.879  27.905  35.692  37.037
 37.753  37.971  40.047  40.142  40.144  40.253  40.438  40.675
 40.737  40.960  40.969  41.035  43.179  43.242  43.316  43.324
 43.356  43.400  43.474  43.480  43.505  43.629  45.334  45.393
 45.438  45.547  46.025  46.413  49.845  49.970
 
 Beta MOs
 -- Occupied --
-19.258 -19.169 -14.624 -10.305  -1.703  -1.522  -1.238  -1.050
 -1.008  -0.969  -0.943  -0.821  -0.806  -0.768  -0.729
 -- Virtual --
 -0.431  -0.289  -0.127  -0.089  -0.080  -0.076  -0.057  -0.040
 -0.032  -0.012   0.003   0.009   0.015   0.046   0.050   0.059
  0.076   0.092   0.106   0.119   0.141   0.148   0.164   0.182
  0.196   0.219   0.282   0.288   0.311   0.378   0.419   0.420
  0.438   0.489   0.503   0.558   0.611   0.691   0.698   0.723
  0.727   0.820   0.822   0.852   0.876   0.890   0.919   0.941
  0.948   0.963   0.997   1.003   1.069   1.101   1.112   1.208
  1.235   1.271   1.277   1.309   1.351   1.371   1.405   1.415
  1.503   1.528   1.582   1.605   1.664   1.876   1.904   2.043
  2.222   2.310   2.332   2.387   2.434   2.439   2.771   2.780
  2.895   2.927   2.954   3.008   3.027   3.107   3.223   3.226
  3.292   3.302   3.399   3.522   3.584   3.594   3.660   3.670
  3.702   3.771   3.951   3.981   4.053   4.082   4.117   4.137
  4.235   4.292   4.332   4.364   4.393   4.438   4.439   4.508
  4.641   4.711   4.749   4.772   4.808   4.843   4.843   4.866
  4.883   5.022   5.038   5.203   5.223   5.297   5.393   5.438
  5.485   5.562   5.582   5.829   6.121   6.311   6.490   6.540
  6.567   6.604   6.738   6.868   6.901   6.952   6.955   7.249
  7.331   7.517   7.670  24.181  27.805  27.880  27.906  35.693
 37.038  37.753  37.971  40.049  40.143  40.145  40.253  40.438
 40.677  40.739  40.962  40.971  41.036  43.250  43.312  43.319
 43.372  43.374  43.411  43.473  43.496  43.547  43.633  45.356
 45.434  45.443  45.550  46.038  46.422  49.877  49.971
 --------------------------------------------------------------
 
          Ground-State Mulliken Net Atomic Charges

     Atom                 Charge (a.u.)    Spin (a.u.)
  --------------------------------------------------------
      1 C                    -0.256471       0.050538
      2 N                     0.234253       0.011649
      3 O                     0.053862      -0.023435
      4 O                     0.322024       0.942236
      5 H                     0.226581      -0.000412
      6 H                     0.198434       0.001496
      7 H                     0.221317       0.017929
  --------------------------------------------------------
  Sum of atomic charges =     1.000000
  Sum of spin   charges =     1.000000

 -----------------------------------------------------------------
                    Cartesian Multipole Moments
 -----------------------------------------------------------------
    Charge (ESU x 10^10)
                 4.8032
    Dipole Moment (Debye)
         X      -1.1276      Y      -0.0824      Z       3.5112
       Tot       3.6888
    Quadrupole Moments (Debye-Ang)
        XX     -19.1965     XY       0.0558     YY     -19.4993
        XZ      -2.5305     YZ      -0.0552     ZZ     -13.1336
    Octapole Moments (Debye-Ang^2)
       XXX      -2.1854    XXY       1.4353    XYY       0.1518
       YYY      -0.7811    XXZ     -25.6171    XYZ       0.0605
       YYZ     -26.4942    XZZ      -5.5099    YZZ       0.0735
       ZZZ     -65.7152
    Hexadecapole Moments (Debye-Ang^3)
      XXXX     -88.6802   XXXY      -0.4341   XXYY     -18.7608
      XYYY      -0.5673   YYYY     -20.5413   XXXZ      -3.7817
      XXYZ      -0.3680   XYYZ      -0.0260   YYYZ       1.7339
      XXZZ     -65.9818   XYZZ       0.0621   YYZZ     -57.1310
      XZZZ     -14.7533   YZZZ       0.7444   ZZZZ    -302.9127
 -----------------------------------------------------------------
 Total job time:  181.63s(wall), 159.12s(cpu) 
 Fri Apr 15 16:14:25 2011

        *************************************************************
        *                                                           *
        *  Thank you very much for using Q-Chem.  Have a nice day.  *
        *                                                           *
        *************************************************************


0 sent ACK to 0 
now end server 0 ... 
