Process 0 of 1 is on cl136 - thread support 1
initial socket setup ...start
initial socket setup ...done 
now start server 0 ... 

cmd = /usr/bin/ssh clhead /usr/local/qchem/bin/get_hostid 1572929820 > /tmp/1603087.1.medium.q/qchem2221/lic.dat

cmd = /usr/bin/ssh clhead /usr/local/qchem/bin/get_hostid 1572929820 > /tmp/1603087.1.medium.q/qchem2221/lic.dat

cmd = /usr/bin/ssh clhead /usr/local/qchem/bin/get_hostid 1572929820 > /tmp/1603087.1.medium.q/qchem2221/lic.dat

cmd = /usr/bin/ssh clhead /usr/local/qchem/bin/get_hostid 1572929820 > /tmp/1603087.1.medium.q/qchem2221/lic.dat

cmd = /usr/bin/ssh clhead /usr/local/qchem/bin/get_hostid 1572929820 > /tmp/1603087.1.medium.q/qchem2221/lic.dat
                  Welcome to Q-Chem
     A Quantum Leap Into The Future Of Chemistry

 Y. Shao, L. Fusti-Molnar, Y. Jung, J. Kussmann, C. Ochsenfeld,
 S. T. Brown, A. T. B. Gilbert, L. V. Slipchenko,S. V. Levchenko,
 D. P. O'Neill, R. A. DiStasio Jr., R. C. Lochan, T. Wang,
 G. J. O. Beran, N. A. Besley, J. M. Herbert, C. Y. Lin,
 T. Van Voorhis, S. H. Chien, A. Sodt, R. P. Steele, 
 V. A. Rassolov, P. E. Maslen, P. P. Korambath, R. D. Adamson,
 B. Austin, J. Baker, E. F. C. Byrd, H. Dachsel, R. J. Doerksen,
 A. Dreuw, B. D. Dunietz, A. D. Dutoi, T. R. Furlani,
 S. R. Gwaltney, A. Heyden, S. Hirata, C.-P. Hsu, G. Kedziora,
 R. Z. Khaliullin, P. Klunzinger, A. M. Lee, M. S. Lee, W. Liang,
 I. Lotan, N. Nair, B. Peters, E. I. Proynov, P. A. Pieniazek, 
 Y. M. Rhee, J. Ritchie, E. Rosta, C. D. Sherrill, 
 A. C. Simmonett, J. E. Subotnik, H. L. Woodcock III,
 W. Zhang, A. T. Bell, A. K. Chakraborty, D. M. Chipman,
 F. J. Keil, A. Warshel, W. J. Hehre, H. F. Schaefer III,
 J. Kong, A. I. Krylov, P. M. W. Gill, M. Head-Gordon,
 Q-Chem, Version 3.1, Q-Chem, Inc., Pittsburgh, PA (2007).

 Additional authors for Version 3.1: 
 Z. Gan, Y. Zhao, N. E. Schultz, D. Truhlar, E. Epifanovsky and M. Oana.

 Additional authors for Version 3.2: 
 R. Baer, B. R. Brooks, D. Casanova, J.-D. Chai, C.-L. Cheng, 
 C. Cramer, D. Crittenden, A. Ghysels, G. Hawkins, E. G. Hohenstein, 
 C. Kelley, W. Kurlancheek, D. Liotard, E. Livshits, P. Manohar, 
 A. Marenich, D. Neuhauser, R. Olson, M. A. Rohrdanz, K. S. Thanthiriwatte, 
 A. J. W. Thom, V. Vanovschi, C. F. Williams, Q. Wu and Z.-Q. You. 


 Intel X86 Linux Version

 Q-chem begins on Wed Mar 26 01:14:35 2014  

 Parallel job on  1  processors
Processing $rem in /usr/local/qchem/config/preferences.

theFileMan(): MAXOPENFILES=974 MAX_SUB_FILE_NUM=16
Maximum size of a physical file is 2.0 GB, maximum size of a tmp-file is 32.0 GB


--------------------------------------------------------------
User input:
--------------------------------------------------------------

$molecule
-1,2
C          0.00000        0.00000        0.00427
C          0.00000        0.00000        1.34256
Cl         1.44225        0.00000       -0.90517
Cl        -1.44225        0.00000       -0.90517
Cl        -1.44225        0.00000        2.25200
Cl         1.44225        0.00000        2.25200
$end

$comment
negative
$end

$xc_functional
C PBE   1.00
X wPBE  1.00
$end

$rem
SYMMETRY_DECOMPOSITION	0
exchange 		general
LRC_DFT                 true
BASIS                   g3large
omega			500
mem_static              760
max_scf_cycles          200
scf_final_print         1
sym_ignore              true
$end

--------------------------------------------------------------
 Writing REM_CC_EA            6
 ----------------------------------------------------
       Standard Nuclear Orientation (Angstroms)
    I     Atom         X            Y            Z
 ----------------------------------------------------
    1      C       0.000000     0.000000     0.004270
    2      C       0.000000     0.000000     1.342560
    3      Cl      1.442250     0.000000    -0.905170
    4      Cl     -1.442250     0.000000    -0.905170
    5      Cl     -1.442250     0.000000     2.252000
    6      Cl      1.442250     0.000000     2.252000
 ----------------------------------------------------
 Nuclear Repulsion Energy =   496.1446596895 hartrees
 There are       41 alpha and       40 beta electrons
 Requested basis set is G3large
 There are 96 shells and 348 basis functions

Total QAlloc Memory Limit   2000 MB
Mega-Array Size       743 MB
MEM_STATIC part       760 MB

                       Distance Matrix (Angstroms)
             C (  1)   C (  2)   Cl(  3)   Cl(  4)   Cl(  5)
   C (  2)  1.338290
   Cl(  3)  1.705041  2.670651
   Cl(  4)  1.705041  2.670651  2.884500
   Cl(  5)  2.670651  1.705041  4.276454  3.157170
   Cl(  6)  2.670651  1.705041  3.157170  4.276454  2.884500
 
 A cutoff of  1.0D-08 yielded   3466 shell pairs
 There are  47748 function pairs ( 66451 Cartesian)
Evaluating contribution to one-electron hamiltonian from nuclear
 Smallest overlap matrix eigenvalue = 9.65E-06

 Q-Chem warning in module mkSTV.C, line 194:

 Overlap eigenvalue is smaller than square root of threshold

 Multipole matrices computed through 2nd order

  Scale SEOQF with 1.000000e-01/1.000000e-01/1.000000e-01

 Standard Electronic Orientation quadrupole field applied
 Nucleus-field energy     =    -0.0000000176 hartrees
 Guess from superposition of atomic densities
 Warning:  Energy on first SCF cycle will be non-variational
 Long-range K will be added via erf
 Coulomb attenuation parameter = 0.5 bohr**(-1)
 An unrestricted Kohn-Sham SCF calculation will be
 performed using Pulay DIIS extrapolation
 Exchange:  wPBE + LR-HF      Correlation:  PBE
 Using SG-1 standard quadrature grid
 SCF converges when DIIS error is below 1.0E-05
 Requested basis set is G3large
 There are 96 shells and 348 basis functions
 A cutoff of  1.0D-08 yielded   3466 shell pairs
 There are  47748 function pairs ( 66451 Cartesian)
 Warning!  Inaccurate integrated density:
   Number of electrons =    81
   Numerical integral  =    80.000162316382
   Relative error      =    -1.2343675106 %
 ---------------------------------------
  Cycle       Energy         DIIS Error
 ---------------------------------------
    1   -1917.9919703585      2.04E-02
    2   -1916.3723305639      1.59E-03
    3   -1916.4264314353      8.03E-04
    4   -1916.4347068332      2.88E-04
    5   -1916.4372266414      1.47E-04
    6   -1916.4379127957      3.97E-05
    7   -1916.4380416288      1.31E-05
    8   -1916.4380752563      5.93E-06 Convergence criterion met
 ---------------------------------------
 One-Electron    Energy = -3648.6112054040
 Total Coulomb   Energy =  1359.6397668457
 Alpha Exchange  Energy =   -10.2604852057
 Beta  Exchange  Energy =   -10.0256287728
 DFT   Exchange  Energy =  -100.2025573715
 DFT Correlation Energy =    -3.1226250200
 Nuclear Repu.   Energy =   496.1446596719
 Nuclear Attr.   Energy = -5562.6153310967
 Kinetic         Energy =  1914.0041256927
 <S^2> = 0.7588
 SCF time:  CPU 553.77 s  wall 558.69 s
 Final Alpha MO Eigenvalues
            1           2           3           4           5           6
    1-100.7712366-100.7712358-100.7711367-100.7711366 -10.0429514 -10.0423695
            7           8           9          10          11          12
    1  -9.2947361  -9.2947197  -9.2946517  -9.2946373  -7.1089018  -7.1089003
           13          14          15          16          17          18
    1  -7.1088300  -7.1088281  -7.0990025  -7.0990023  -7.0989319  -7.0989316
           19          20          21          22          23          24
    1  -7.0988586  -7.0988578  -7.0987882  -7.0987875  -0.9577629  -0.9035492
           25          26          27          28          29          30
    1  -0.8583795  -0.8318419  -0.6931268  -0.5301340  -0.4601554  -0.4561701
           31          32          33          34          35          36
    1  -0.4233151  -0.3755256  -0.3520356  -0.3091095  -0.3089621  -0.3068435
           37          38          39          40          41          42
    1  -0.2974194  -0.2957545  -0.2562381  -0.1975434  -0.0181849   0.1870673
           43          44          45          46
    1   0.1950912   0.1959209   0.2047963   0.2466595
 Final Beta MO Eigenvalues
            1           2           3           4           5           6
    1-100.7712634-100.7712626-100.7711634-100.7711631 -10.0353294 -10.0345497
            7           8           9          10          11          12
    1  -9.2946956  -9.2946794  -9.2946112  -9.2945971  -7.1091641  -7.1091620
           13          14          15          16          17          18
    1  -7.1090916  -7.1090894  -7.0988953  -7.0988946  -7.0988248  -7.0988241
           19          20          21          22          23          24
    1  -7.0986147  -7.0986133  -7.0985436  -7.0985423  -0.9488773  -0.8967005
           25          26          27          28          29          30
    1  -0.8572112  -0.8307153  -0.6847766  -0.5113667  -0.4532917  -0.4517597
           31          32          33          34          35          36
    1  -0.3926965  -0.3722935  -0.3308138  -0.3083536  -0.3063612  -0.3024865
           37          38          39          40          41          42
    1  -0.2973032  -0.2873358  -0.2560988  -0.1462678   0.1880348   0.1963736
           43          44          45
    1   0.1965515   0.2052808   0.2469714
 Analysis of SCF Wavefunction
 
 --------------------------------------------------------------
                    Orbital Energies (a.u.)
 --------------------------------------------------------------
 
 Alpha MOs
 -- Occupied --
*******-100.771-100.771-100.771 -10.043 -10.042  -9.295  -9.295
 -9.295  -9.295  -7.109  -7.109  -7.109  -7.109  -7.099  -7.099
 -7.099  -7.099  -7.099  -7.099  -7.099  -7.099  -0.958  -0.904
 -0.858  -0.832  -0.693  -0.530  -0.460  -0.456  -0.423  -0.376
 -0.352  -0.309  -0.309  -0.307  -0.297  -0.296  -0.256  -0.198
 -0.018
 -- Virtual --
  0.187   0.195   0.196   0.205   0.247   0.254   0.263   0.265
  0.268   0.271   0.275   0.295   0.300   0.311   0.323   0.323
  0.328   0.343   0.353   0.358   0.360   0.371   0.397   0.404
  0.413   0.418   0.429   0.465   0.485   0.487   0.524   0.539
  0.544   0.567   0.573   0.606   0.607   0.622   0.626   0.639
  0.639   0.676   0.682   0.688   0.710   0.718   0.724   0.725
  0.741   0.742   0.762   0.770   0.795   0.808   0.811   0.827
  0.855   0.891   0.891   0.901   0.943   0.966   1.011   1.048
  1.050   1.055   1.069   1.092   1.118   1.141   1.178   1.215
  1.235   1.265   1.267   1.296   1.312   1.319   1.329   1.342
  1.353   1.355   1.380   1.382   1.392   1.393   1.408   1.414
  1.417   1.431   1.434   1.440   1.450   1.451   1.456   1.479
  1.496   1.500   1.525   1.548   1.557   1.569   1.584   1.593
  1.628   1.688   1.691   1.708   1.719   1.730   1.760   1.782
  1.813   1.853   1.886   1.889   1.910   1.925   1.968   1.974
  1.984   1.986   1.987   2.067   2.091   2.093   2.134   2.144
  2.167   2.348   2.438   2.455   2.468   2.520   2.536   2.604
  2.624   2.631   2.712   2.767   2.828   2.899   2.910   3.061
  3.166   3.170   3.194   3.329   3.330   3.428   3.441   3.485
  3.603   3.608   3.615   3.677   3.748   3.767   3.785   3.819
  3.824   3.905   3.926   3.954   3.978   4.076   4.228   4.292
  4.300   4.603   4.607   4.637   4.642   4.644   4.657   4.666
  4.670   4.672   4.722   4.730   4.731   4.733   4.760   4.763
  4.783   4.787   4.791   4.797   4.816   4.843   4.885   4.891
  4.904   4.905   4.949   4.952   4.957   5.034   5.072   5.246
  5.313   5.338   5.357   5.373   5.380   5.397   5.404   5.462
  5.476   5.495   5.517   5.561   5.596   5.623   5.636   5.774
  5.856   5.993   6.147   6.420   6.429  10.066  10.195  10.242
 10.376  20.796  20.805  20.819  20.846  20.851  20.879  20.886
 20.936  21.045  21.131  21.178  21.207  23.884  24.753  27.334
 27.338  27.370  27.379  27.385  27.386  27.392  27.403  27.406
 27.419  27.428  27.436  27.438  27.462  27.463  27.470  27.472
 27.548  27.553  27.588  27.607  27.729  28.436  28.443  28.537
 28.653  37.034  37.035  37.036  37.037  37.037  37.037  37.038
 37.041  37.046  37.046  37.047  37.048  37.049  37.049  37.050
 37.051  37.051  37.054  37.055  37.057  37.061  37.067  37.068
 37.069  37.072  37.074  37.079  37.087  41.052  41.107  41.147
 41.328  41.329  41.376  41.410  41.425  41.469  41.498 215.958
216.100 216.137 216.311
 
 Beta MOs
 -- Occupied --
*******-100.771-100.771-100.771 -10.035 -10.035  -9.295  -9.295
 -9.295  -9.295  -7.109  -7.109  -7.109  -7.109  -7.099  -7.099
 -7.099  -7.099  -7.099  -7.099  -7.099  -7.099  -0.949  -0.897
 -0.857  -0.831  -0.685  -0.511  -0.453  -0.452  -0.393  -0.372
 -0.331  -0.308  -0.306  -0.302  -0.297  -0.287  -0.256  -0.146
 -- Virtual --
  0.188   0.196   0.197   0.205   0.247   0.254   0.256   0.265
  0.268   0.271   0.276   0.294   0.296   0.301   0.313   0.326
  0.328   0.330   0.354   0.355   0.358   0.375   0.375   0.396
  0.406   0.414   0.420   0.430   0.469   0.490   0.492   0.528
  0.540   0.545   0.568   0.576   0.612   0.618   0.623   0.626
  0.643   0.649   0.678   0.682   0.690   0.726   0.726   0.727
  0.728   0.741   0.742   0.763   0.776   0.809   0.815   0.816
  0.830   0.861   0.892   0.906   0.907   0.950   0.974   1.012
  1.051   1.053   1.067   1.084   1.113   1.125   1.148   1.183
  1.221   1.237   1.268   1.276   1.306   1.314   1.323   1.332
  1.343   1.356   1.356   1.381   1.383   1.392   1.395   1.410
  1.415   1.418   1.434   1.435   1.445   1.450   1.454   1.457
  1.481   1.501   1.501   1.525   1.551   1.560   1.577   1.585
  1.596   1.632   1.688   1.695   1.711   1.721   1.735   1.761
  1.792   1.814   1.856   1.892   1.896   1.920   1.933   1.972
  1.984   1.986   1.988   1.998   2.075   2.094   2.096   2.137
  2.146   2.167   2.358   2.442   2.459   2.471   2.524   2.536
  2.609   2.626   2.633   2.716   2.772   2.831   2.902   2.912
  3.098   3.185   3.205   3.212   3.347   3.352   3.449   3.459
  3.506   3.610   3.617   3.632   3.700   3.773   3.780   3.817
  3.829   3.844   3.928   3.944   3.969   4.012   4.103   4.235
  4.301   4.322   4.607   4.611   4.639   4.643   4.646   4.658
  4.668   4.672   4.674   4.723   4.733   4.734   4.735   4.761
  4.764   4.784   4.789   4.791   4.798   4.819   4.845   4.888
  4.892   4.904   4.905   4.948   4.957   4.974   5.036   5.075
  5.248   5.314   5.338   5.357   5.374   5.381   5.397   5.409
  5.464   5.478   5.496   5.519   5.563   5.599   5.624   5.636
  5.777   5.857   5.994   6.149   6.422   6.432  10.066  10.196
 10.242  10.376  20.797  20.805  20.819  20.846  20.852  20.879
 20.886  20.936  21.044  21.130  21.177  21.206  23.893  24.761
 27.335  27.338  27.374  27.379  27.385  27.388  27.393  27.404
 27.407  27.420  27.428  27.436  27.438  27.462  27.464  27.471
 27.472  27.548  27.568  27.588  27.608  27.749  28.440  28.447
 28.542  28.658  37.034  37.035  37.036  37.037  37.037  37.037
 37.038  37.041  37.046  37.046  37.047  37.048  37.049  37.049
 37.050  37.051  37.051  37.054  37.055  37.057  37.061  37.067
 37.068  37.069  37.072  37.074  37.079  37.087  41.065  41.115
 41.163  41.341  41.343  41.390  41.412  41.439  41.474  41.500
215.958 216.100 216.137 216.311
 --------------------------------------------------------------
 
          Ground-State Mulliken Net Atomic Charges

     Atom                 Charge (a.u.)    Spin (a.u.)
  --------------------------------------------------------
      1 C                     0.468985       0.429645
      2 C                     0.469164       0.429806
      3 Cl                   -0.484632       0.035056
      4 Cl                   -0.484450       0.035254
      5 Cl                   -0.484642       0.035018
      6 Cl                   -0.484424       0.035221
  --------------------------------------------------------
  Sum of atomic charges =    -1.000000
  Sum of spin   charges =     1.000000

 -----------------------------------------------------------------
                    Cartesian Multipole Moments
 -----------------------------------------------------------------
    Charge (ESU x 10^10)
                -4.8032
    Dipole Moment (Debye)
         X       0.0000      Y       0.0000      Z      -3.2345
       Tot       3.2345
    Quadrupole Moments (Debye-Ang)
        XX     -73.6475     XY       0.0121     YY     -66.3344
        XZ       0.0006     YZ      -0.0116     ZZ     -79.7678
    Octapole Moments (Debye-Ang^2)
       XXX       0.0001    XXY       0.0000    XYY       0.0000
       YYY       0.0000    XXZ     -49.5953    XYZ       0.0082
       YYZ     -44.6706    XZZ       0.0008    YZZ      -0.0156
       ZZZ    -158.2169
    Hexadecapole Moments (Debye-Ang^3)
      XXXX    -738.9276   XXXY       0.1166   XXYY    -144.8157
      XYYY       0.0389   YYYY     -81.2208   XXXZ       0.0024
      XXYZ      -0.1438   XYYZ      -0.0004   YYYZ      -0.0419
      XXZZ    -317.6751   XYZZ       0.1026   YYZZ    -202.3457
      XZZZ       0.0020   YZZZ      -0.1093   ZZZZ   -1157.8111
 -----------------------------------------------------------------
 Total job time:  559.38s(wall), 554.36s(cpu) 
 Wed Mar 26 01:23:55 2014

        *************************************************************
        *                                                           *
        *  Thank you very much for using Q-Chem.  Have a nice day.  *
        *                                                           *
        *************************************************************


0 sent ACK to 0 
now end server 0 ... 
 
**********************************************************************
Job 2 of 3 
**********************************************************************
 
Process 0 of 1 is on cl136 - thread support 1
initial socket setup ...start
initial socket setup ...done 
now start server 0 ... 

cmd = /usr/bin/ssh clhead /usr/local/qchem/bin/get_hostid 9080482 > /tmp/1603087.1.medium.q/qchem2221/lic.dat

cmd = /usr/bin/ssh clhead /usr/local/qchem/bin/get_hostid 9080482 > /tmp/1603087.1.medium.q/qchem2221/lic.dat

cmd = /usr/bin/ssh clhead /usr/local/qchem/bin/get_hostid 9080482 > /tmp/1603087.1.medium.q/qchem2221/lic.dat

cmd = /usr/bin/ssh clhead /usr/local/qchem/bin/get_hostid 9080482 > /tmp/1603087.1.medium.q/qchem2221/lic.dat

cmd = /usr/bin/ssh clhead /usr/local/qchem/bin/get_hostid 9080482 > /tmp/1603087.1.medium.q/qchem2221/lic.dat
                  Welcome to Q-Chem
     A Quantum Leap Into The Future Of Chemistry

 Y. Shao, L. Fusti-Molnar, Y. Jung, J. Kussmann, C. Ochsenfeld,
 S. T. Brown, A. T. B. Gilbert, L. V. Slipchenko,S. V. Levchenko,
 D. P. O'Neill, R. A. DiStasio Jr., R. C. Lochan, T. Wang,
 G. J. O. Beran, N. A. Besley, J. M. Herbert, C. Y. Lin,
 T. Van Voorhis, S. H. Chien, A. Sodt, R. P. Steele, 
 V. A. Rassolov, P. E. Maslen, P. P. Korambath, R. D. Adamson,
 B. Austin, J. Baker, E. F. C. Byrd, H. Dachsel, R. J. Doerksen,
 A. Dreuw, B. D. Dunietz, A. D. Dutoi, T. R. Furlani,
 S. R. Gwaltney, A. Heyden, S. Hirata, C.-P. Hsu, G. Kedziora,
 R. Z. Khaliullin, P. Klunzinger, A. M. Lee, M. S. Lee, W. Liang,
 I. Lotan, N. Nair, B. Peters, E. I. Proynov, P. A. Pieniazek, 
 Y. M. Rhee, J. Ritchie, E. Rosta, C. D. Sherrill, 
 A. C. Simmonett, J. E. Subotnik, H. L. Woodcock III,
 W. Zhang, A. T. Bell, A. K. Chakraborty, D. M. Chipman,
 F. J. Keil, A. Warshel, W. J. Hehre, H. F. Schaefer III,
 J. Kong, A. I. Krylov, P. M. W. Gill, M. Head-Gordon,
 Q-Chem, Version 3.1, Q-Chem, Inc., Pittsburgh, PA (2007).

 Additional authors for Version 3.1: 
 Z. Gan, Y. Zhao, N. E. Schultz, D. Truhlar, E. Epifanovsky and M. Oana.

 Additional authors for Version 3.2: 
 R. Baer, B. R. Brooks, D. Casanova, J.-D. Chai, C.-L. Cheng, 
 C. Cramer, D. Crittenden, A. Ghysels, G. Hawkins, E. G. Hohenstein, 
 C. Kelley, W. Kurlancheek, D. Liotard, E. Livshits, P. Manohar, 
 A. Marenich, D. Neuhauser, R. Olson, M. A. Rohrdanz, K. S. Thanthiriwatte, 
 A. J. W. Thom, V. Vanovschi, C. F. Williams, Q. Wu and Z.-Q. You. 


 Intel X86 Linux Version

 Q-chem begins on Wed Mar 26 01:23:59 2014  

 Parallel job on  1  processors
Processing $rem in /usr/local/qchem/config/preferences.

theFileMan(): MAXOPENFILES=974 MAX_SUB_FILE_NUM=16
Maximum size of a physical file is 2.0 GB, maximum size of a tmp-file is 32.0 GB


--------------------------------------------------------------
User input:
--------------------------------------------------------------

$molecule
0,1
C          0.00000        0.00000        0.00427
C          0.00000        0.00000        1.34256
Cl         1.44225        0.00000       -0.90517
Cl        -1.44225        0.00000       -0.90517
Cl        -1.44225        0.00000        2.25200
Cl         1.44225        0.00000        2.25200
$end

$comment
neutral
$end

$xc_functional
C PBE   1.00
X wPBE  1.00
$end


$rem
SYMMETRY_DECOMPOSITION	0
LRC_DFT                 true
exchange 		general
BASIS                   g3large
omega			500
mem_static              760
max_scf_cycles          200
scf_final_print         1
sym_ignore              true
$end

--------------------------------------------------------------
 Writing REM_CC_EA            6
 ----------------------------------------------------
       Standard Nuclear Orientation (Angstroms)
    I     Atom         X            Y            Z
 ----------------------------------------------------
    1      C       0.000000     0.000000     0.004270
    2      C       0.000000     0.000000     1.342560
    3      Cl      1.442250     0.000000    -0.905170
    4      Cl     -1.442250     0.000000    -0.905170
    5      Cl     -1.442250     0.000000     2.252000
    6      Cl      1.442250     0.000000     2.252000
 ----------------------------------------------------
 Nuclear Repulsion Energy =   496.1446596895 hartrees
 There are       40 alpha and       40 beta electrons
 Requested basis set is G3large
 There are 96 shells and 348 basis functions

Total QAlloc Memory Limit   2000 MB
Mega-Array Size       743 MB
MEM_STATIC part       760 MB

                       Distance Matrix (Angstroms)
             C (  1)   C (  2)   Cl(  3)   Cl(  4)   Cl(  5)
   C (  2)  1.338290
   Cl(  3)  1.705041  2.670651
   Cl(  4)  1.705041  2.670651  2.884500
   Cl(  5)  2.670651  1.705041  4.276454  3.157170
   Cl(  6)  2.670651  1.705041  3.157170  4.276454  2.884500
 
 A cutoff of  1.0D-08 yielded   3466 shell pairs
 There are  47748 function pairs ( 66451 Cartesian)
Evaluating contribution to one-electron hamiltonian from nuclear
 Smallest overlap matrix eigenvalue = 9.65E-06

 Q-Chem warning in module mkSTV.C, line 194:

 Overlap eigenvalue is smaller than square root of threshold

 Multipole matrices computed through 2nd order

  Scale SEOQF with 1.000000e-01/1.000000e-01/1.000000e-01

 Standard Electronic Orientation quadrupole field applied
 Nucleus-field energy     =    -0.0000000176 hartrees
 Guess from superposition of atomic densities
 Warning:  Energy on first SCF cycle will be non-variational
 Long-range K will be added via erf
 Coulomb attenuation parameter = 0.5 bohr**(-1)
 A restricted Kohn-Sham SCF calculation will be
 performed using Pulay DIIS extrapolation
 Exchange:  wPBE + LR-HF      Correlation:  PBE
 Using SG-1 standard quadrature grid
 SCF converges when DIIS error is below 1.0E-05
 Requested basis set is G3large
 There are 96 shells and 348 basis functions
 A cutoff of  1.0D-08 yielded   3466 shell pairs
 There are  47748 function pairs ( 66451 Cartesian)
 ---------------------------------------
  Cycle       Energy         DIIS Error
 ---------------------------------------
    1   -1917.9919703585      2.04E-02
    2   -1916.3394699645      2.42E-03
    3   -1916.3698509084      2.46E-03
    4   -1916.4463524671      2.79E-04
    5   -1916.4491477855      1.13E-04
    6   -1916.4495998418      3.21E-05
    7   -1916.4496462743      8.08E-06 Convergence criterion met
 ---------------------------------------
 One-Electron    Energy = -3632.3362011122
 Total Coulomb   Energy =  1343.0135654617
 Alpha Exchange  Energy =   -10.0458636674
 Beta  Exchange  Energy =   -10.0458636674
 DFT   Exchange  Energy =  -100.0900210137
 DFT Correlation Energy =    -3.0899219472
 Nuclear Repu.   Energy =   496.1446596719
 Nuclear Attr.   Energy = -5545.9678483975
 Kinetic         Energy =  1913.6316472853
 SCF time:  CPU 397.44 s  wall 401.37 s
 Final Alpha MO Eigenvalues
            1           2           3           4           5           6
    1-100.9701715-100.9701712-100.9700434-100.9700429 -10.3100906 -10.3092906
            7           8           9          10          11          12
    1  -9.4941029  -9.4940877  -9.4940079  -9.4939954  -7.3094832  -7.3094811
           13          14          15          16          17          18
    1  -7.3094003  -7.3093982  -7.2980764  -7.2980752  -7.2979925  -7.2979913
           19          20          21          22          23          24
    1  -7.2971954  -7.2971947  -7.2971105  -7.2971096  -1.1720667  -1.1085954
           25          26          27          28          29          30
    1  -1.0613446  -1.0322583  -0.9128699  -0.7274003  -0.6700058  -0.6634345
           31          32          33          34          35          36
    1  -0.6209317  -0.5785622  -0.5355890  -0.5076250  -0.5001658  -0.4980104
           37          38          39          40          41          42
    1  -0.4903926  -0.4823232  -0.4487269  -0.3781277   0.0414916   0.0573258
           43          44          45
    1   0.0642938   0.0704057   0.0909654
 Analysis of SCF Wavefunction
 
 --------------------------------------------------------------
                    Orbital Energies (a.u.)
 --------------------------------------------------------------
 
 Alpha MOs
 -- Occupied --
*******-100.970-100.970-100.970 -10.310 -10.309  -9.494  -9.494
 -9.494  -9.494  -7.309  -7.309  -7.309  -7.309  -7.298  -7.298
 -7.298  -7.298  -7.297  -7.297  -7.297  -7.297  -1.172  -1.109
 -1.061  -1.032  -0.913  -0.727  -0.670  -0.663  -0.621  -0.579
 -0.536  -0.508  -0.500  -0.498  -0.490  -0.482  -0.449  -0.378
 -- Virtual --
  0.041   0.057   0.064   0.070   0.091   0.092   0.105   0.106
  0.111   0.125   0.139   0.140   0.156   0.167   0.169   0.171
  0.183   0.191   0.203   0.206   0.214   0.219   0.231   0.247
  0.260   0.275   0.276   0.284   0.285   0.303   0.311   0.343
  0.360   0.371   0.385   0.396   0.431   0.435   0.450   0.453
  0.459   0.461   0.499   0.509   0.527   0.544   0.549   0.553
  0.565   0.571   0.573   0.592   0.593   0.619   0.646   0.657
  0.657   0.678   0.697   0.709   0.713   0.742   0.768   0.835
  0.851   0.854   0.868   0.883   0.900   0.917   0.950   0.995
  1.023   1.042   1.077   1.079   1.107   1.123   1.130   1.142
  1.153   1.166   1.169   1.194   1.195   1.203   1.205   1.223
  1.229   1.232   1.245   1.246   1.255   1.262   1.263   1.271
  1.292   1.307   1.310   1.329   1.359   1.370   1.371   1.400
  1.405   1.437   1.500   1.504   1.519   1.536   1.539   1.574
  1.589   1.633   1.661   1.688   1.699   1.716   1.732   1.773
  1.782   1.785   1.797   1.801   1.876   1.889   1.897   1.942
  1.956   1.972   2.148   2.242   2.264   2.276   2.329   2.346
  2.413   2.423   2.440   2.512   2.575   2.621   2.702   2.716
  2.831   2.936   2.941   2.962   3.103   3.109   3.206   3.219
  3.260   3.379   3.386   3.389   3.454   3.518   3.546   3.563
  3.596   3.605   3.680   3.698   3.730   3.748   3.850   4.002
  4.071   4.075   4.388   4.394   4.441   4.445   4.446   4.459
  4.470   4.475   4.477   4.521   4.527   4.532   4.536   4.562
  4.563   4.582   4.590   4.594   4.597   4.613   4.643   4.684
  4.691   4.704   4.706   4.727   4.749   4.757   4.825   4.866
  5.037   5.116   5.141   5.160   5.177   5.184   5.186   5.201
  5.261   5.275   5.297   5.313   5.360   5.393   5.423   5.435
  5.568   5.650   5.789   5.941   6.215   6.221   9.868   9.997
 10.044  10.178  20.598  20.606  20.620  20.648  20.653  20.681
 20.689  20.738  20.845  20.930  20.978  21.006  23.622  24.491
 27.136  27.140  27.146  27.180  27.185  27.186  27.192  27.194
 27.208  27.221  27.229  27.235  27.236  27.261  27.263  27.270
 27.272  27.317  27.344  27.378  27.396  27.469  28.174  28.193
 28.285  28.398  36.835  36.836  36.837  36.838  36.838  36.838
 36.839  36.842  36.848  36.848  36.848  36.849  36.850  36.850
 36.850  36.851  36.853  36.854  36.856  36.857  36.861  36.867
 36.869  36.869  36.873  36.874  36.879  36.887  40.785  40.840
 40.881  41.061  41.063  41.110  41.143  41.159  41.202  41.231
215.760 215.901 215.938 216.112
 --------------------------------------------------------------
 
          Ground-State Mulliken Net Atomic Charges

     Atom                 Charge (a.u.)
  ----------------------------------------
      1 C                     0.591783
      2 C                     0.591396
      3 Cl                   -0.295511
      4 Cl                   -0.296199
      5 Cl                   -0.295404
      6 Cl                   -0.296065
  ----------------------------------------
  Sum of atomic charges =     0.000000

 -----------------------------------------------------------------
                    Cartesian Multipole Moments
 -----------------------------------------------------------------
    Charge (ESU x 10^10)
                 0.0000
    Dipole Moment (Debye)
         X       0.0000      Y       0.0000      Z       0.0000
       Tot       0.0000
    Quadrupole Moments (Debye-Ang)
        XX     -58.1163     XY       0.0021     YY     -60.9511
        XZ      -0.0012     YZ      -0.0008     ZZ     -60.0566
    Octapole Moments (Debye-Ang^2)
       XXX       0.0000    XXY       0.0000    XYY       0.0000
       YYY       0.0000    XXZ     -39.1364    XYZ       0.0014
       YYZ     -41.0454    XZZ      -0.0016    YZZ      -0.0011
       ZZZ    -121.3289
    Hexadecapole Moments (Debye-Ang^3)
      XXXX    -638.6881   XXXY       0.0053   XXYY    -127.3275
      XYYY       0.0031   YYYY     -67.0455   XXXZ      -0.0050
      XXYZ      -0.0076   XYYZ      -0.0001   YYYZ      -0.0011
      XXZZ    -246.0561   XYZZ       0.0172   YYZZ    -180.5055
      XZZZ      -0.0030   YZZZ      -0.0088   ZZZZ    -990.8594
 -----------------------------------------------------------------
 Total job time:  402.02s(wall), 398.01s(cpu) 
 Wed Mar 26 01:30:41 2014

        *************************************************************
        *                                                           *
        *  Thank you very much for using Q-Chem.  Have a nice day.  *
        *                                                           *
        *************************************************************


0 sent ACK to 0 
now end server 0 ... 
 
**********************************************************************
Job 3 of 3 
**********************************************************************
 
Process 0 of 1 is on cl136 - thread support 1
initial socket setup ...start
initial socket setup ...done 
now start server 0 ... 

cmd = /usr/bin/ssh clhead /usr/local/qchem/bin/get_hostid 2146623443 > /tmp/1603087.1.medium.q/qchem2221/lic.dat

cmd = /usr/bin/ssh clhead /usr/local/qchem/bin/get_hostid 2146623443 > /tmp/1603087.1.medium.q/qchem2221/lic.dat

cmd = /usr/bin/ssh clhead /usr/local/qchem/bin/get_hostid 2146623443 > /tmp/1603087.1.medium.q/qchem2221/lic.dat

cmd = /usr/bin/ssh clhead /usr/local/qchem/bin/get_hostid 2146623443 > /tmp/1603087.1.medium.q/qchem2221/lic.dat

cmd = /usr/bin/ssh clhead /usr/local/qchem/bin/get_hostid 2146623443 > /tmp/1603087.1.medium.q/qchem2221/lic.dat
                  Welcome to Q-Chem
     A Quantum Leap Into The Future Of Chemistry

 Y. Shao, L. Fusti-Molnar, Y. Jung, J. Kussmann, C. Ochsenfeld,
 S. T. Brown, A. T. B. Gilbert, L. V. Slipchenko,S. V. Levchenko,
 D. P. O'Neill, R. A. DiStasio Jr., R. C. Lochan, T. Wang,
 G. J. O. Beran, N. A. Besley, J. M. Herbert, C. Y. Lin,
 T. Van Voorhis, S. H. Chien, A. Sodt, R. P. Steele, 
 V. A. Rassolov, P. E. Maslen, P. P. Korambath, R. D. Adamson,
 B. Austin, J. Baker, E. F. C. Byrd, H. Dachsel, R. J. Doerksen,
 A. Dreuw, B. D. Dunietz, A. D. Dutoi, T. R. Furlani,
 S. R. Gwaltney, A. Heyden, S. Hirata, C.-P. Hsu, G. Kedziora,
 R. Z. Khaliullin, P. Klunzinger, A. M. Lee, M. S. Lee, W. Liang,
 I. Lotan, N. Nair, B. Peters, E. I. Proynov, P. A. Pieniazek, 
 Y. M. Rhee, J. Ritchie, E. Rosta, C. D. Sherrill, 
 A. C. Simmonett, J. E. Subotnik, H. L. Woodcock III,
 W. Zhang, A. T. Bell, A. K. Chakraborty, D. M. Chipman,
 F. J. Keil, A. Warshel, W. J. Hehre, H. F. Schaefer III,
 J. Kong, A. I. Krylov, P. M. W. Gill, M. Head-Gordon,
 Q-Chem, Version 3.1, Q-Chem, Inc., Pittsburgh, PA (2007).

 Additional authors for Version 3.1: 
 Z. Gan, Y. Zhao, N. E. Schultz, D. Truhlar, E. Epifanovsky and M. Oana.

 Additional authors for Version 3.2: 
 R. Baer, B. R. Brooks, D. Casanova, J.-D. Chai, C.-L. Cheng, 
 C. Cramer, D. Crittenden, A. Ghysels, G. Hawkins, E. G. Hohenstein, 
 C. Kelley, W. Kurlancheek, D. Liotard, E. Livshits, P. Manohar, 
 A. Marenich, D. Neuhauser, R. Olson, M. A. Rohrdanz, K. S. Thanthiriwatte, 
 A. J. W. Thom, V. Vanovschi, C. F. Williams, Q. Wu and Z.-Q. You. 


 Intel X86 Linux Version

 Q-chem begins on Wed Mar 26 01:30:46 2014  

 Parallel job on  1  processors
Processing $rem in /usr/local/qchem/config/preferences.

theFileMan(): MAXOPENFILES=974 MAX_SUB_FILE_NUM=16
Maximum size of a physical file is 2.0 GB, maximum size of a tmp-file is 32.0 GB


--------------------------------------------------------------
User input:
--------------------------------------------------------------

$molecule
1,2
C          0.00000        0.00000        0.00427
C          0.00000        0.00000        1.34256
Cl         1.44225        0.00000       -0.90517
Cl        -1.44225        0.00000       -0.90517
Cl        -1.44225        0.00000        2.25200
Cl         1.44225        0.00000        2.25200
$end

$comment
positive
$end

$xc_functional
C PBE   1.00
X wPBE  1.00
$end

$rem
SYMMETRY_DECOMPOSITION	0
LRC_DFT                 true
exchange 		general
BASIS                   g3large
omega			500
mem_static              760
max_scf_cycles          200
scf_final_print         1
sym_ignore              true
$end

--------------------------------------------------------------
 Writing REM_CC_EA            6
 ----------------------------------------------------
       Standard Nuclear Orientation (Angstroms)
    I     Atom         X            Y            Z
 ----------------------------------------------------
    1      C       0.000000     0.000000     0.004270
    2      C       0.000000     0.000000     1.342560
    3      Cl      1.442250     0.000000    -0.905170
    4      Cl     -1.442250     0.000000    -0.905170
    5      Cl     -1.442250     0.000000     2.252000
    6      Cl      1.442250     0.000000     2.252000
 ----------------------------------------------------
 Nuclear Repulsion Energy =   496.1446596895 hartrees
 There are       40 alpha and       39 beta electrons
 Requested basis set is G3large
 There are 96 shells and 348 basis functions

Total QAlloc Memory Limit   2000 MB
Mega-Array Size       743 MB
MEM_STATIC part       760 MB

                       Distance Matrix (Angstroms)
             C (  1)   C (  2)   Cl(  3)   Cl(  4)   Cl(  5)
   C (  2)  1.338290
   Cl(  3)  1.705041  2.670651
   Cl(  4)  1.705041  2.670651  2.884500
   Cl(  5)  2.670651  1.705041  4.276454  3.157170
   Cl(  6)  2.670651  1.705041  3.157170  4.276454  2.884500
 
 A cutoff of  1.0D-08 yielded   3466 shell pairs
 There are  47748 function pairs ( 66451 Cartesian)
Evaluating contribution to one-electron hamiltonian from nuclear
 Smallest overlap matrix eigenvalue = 9.65E-06

 Q-Chem warning in module mkSTV.C, line 194:

 Overlap eigenvalue is smaller than square root of threshold

 Multipole matrices computed through 2nd order

  Scale SEOQF with 1.000000e-01/1.000000e-01/1.000000e-01

 Standard Electronic Orientation quadrupole field applied
 Nucleus-field energy     =    -0.0000000176 hartrees
 Guess from superposition of atomic densities
 Warning:  Energy on first SCF cycle will be non-variational
 Long-range K will be added via erf
 Coulomb attenuation parameter = 0.5 bohr**(-1)
 An unrestricted Kohn-Sham SCF calculation will be
 performed using Pulay DIIS extrapolation
 Exchange:  wPBE + LR-HF      Correlation:  PBE
 Using SG-1 standard quadrature grid
 SCF converges when DIIS error is below 1.0E-05
 Requested basis set is G3large
 There are 96 shells and 348 basis functions
 A cutoff of  1.0D-08 yielded   3466 shell pairs
 There are  47748 function pairs ( 66451 Cartesian)
 Warning!  Inaccurate integrated density:
   Number of electrons =    79
   Numerical integral  =    80.000162316382
   Relative error      =     1.2660282486 %
 ---------------------------------------
  Cycle       Energy         DIIS Error
 ---------------------------------------
    1   -1917.9919703585      2.04E-02
    2   -1915.8565773041      3.48E-03
    3   -1915.8219765202      4.46E-03
    4   -1916.0868086910      3.85E-04
    5   -1916.0912057388      1.63E-04
    6   -1916.0924267006      5.98E-05
    7   -1916.0927896607      1.97E-05
    8   -1916.0928837296      8.00E-06 Convergence criterion met
 ---------------------------------------
 One-Electron    Energy = -3615.0707080833
 Total Coulomb   Energy =  1325.7293493575
 Alpha Exchange  Energy =   -10.0670090053
 Beta  Exchange  Energy =    -9.8126515389
 DFT   Exchange  Energy =   -99.9658384535
 DFT Correlation Energy =    -3.0506856780
 Nuclear Repu.   Energy =   496.1446596719
 Nuclear Attr.   Energy = -5528.2461334438
 Kinetic         Energy =  1913.1754253605
 <S^2> = 0.7574
 SCF time:  CPU 555.81 s  wall 559.72 s
 Final Alpha MO Eigenvalues
            1           2           3           4           5           6
    1-101.1881261-101.1881195-101.1878418-101.1878397 -10.5683634 -10.5675390
            7           8           9          10          11          12
    1  -9.7100144  -9.7100053  -9.7097979  -9.7097933  -7.5255815  -7.5255757
           13          14          15          16          17          18
    1  -7.5253657  -7.5253633  -7.5162574  -7.5162524  -7.5160328  -7.5160313
           19          20          21          22          23          24
    1  -7.5118339  -7.5118290  -7.5116213  -7.5116199  -1.4030474  -1.3235250
           25          26          27          28          29          30
    1  -1.2748928  -1.2436451  -1.1552908  -0.9423745  -0.8875053  -0.8824117
           31          32          33          34          35          36
    1  -0.8599150  -0.7897126  -0.7502828  -0.7157774  -0.7074878  -0.7033485
           37          38          39          40          41          42
    1  -0.6927331  -0.6918293  -0.6517333  -0.6128109  -0.1953501  -0.1307690
           43          44          45
    1  -0.1106096  -0.1080923  -0.0809677
 Final Beta MO Eigenvalues
            1           2           3           4           5           6
    1-101.1873173-101.1873108-101.1870370-101.1870353 -10.5633690 -10.5627184
            7           8           9          10          11          12
    1  -9.7092786  -9.7092694  -9.7090658  -9.7090581  -7.5253201  -7.5253149
           13          14          15          16          17          18
    1  -7.5251079  -7.5251057  -7.5138411  -7.5138361  -7.5136266  -7.5136256
           19          20          21          22          23          24
    1  -7.5114181  -7.5114132  -7.5112078  -7.5112064  -1.3901867  -1.3187355
           25          26          27          28          29          30
    1  -1.2697181  -1.2378521  -1.1323582  -0.9326297  -0.8829335  -0.8761514
           31          32          33          34          35          36
    1  -0.8062597  -0.7869565  -0.7267466  -0.7129443  -0.7014089  -0.6910263
           37          38          39          40          41          42
    1  -0.6744572  -0.6627098  -0.6496924  -0.3337730  -0.1410245  -0.1256093
           43          44
    1  -0.1039203  -0.0997550
 Analysis of SCF Wavefunction
 
 --------------------------------------------------------------
                    Orbital Energies (a.u.)
 --------------------------------------------------------------
 
 Alpha MOs
 -- Occupied --
*******-101.188-101.188-101.188 -10.568 -10.568  -9.710  -9.710
 -9.710  -9.710  -7.526  -7.526  -7.525  -7.525  -7.516  -7.516
 -7.516  -7.516  -7.512  -7.512  -7.512  -7.512  -1.403  -1.324
 -1.275  -1.244  -1.155  -0.942  -0.888  -0.882  -0.860  -0.790
 -0.750  -0.716  -0.707  -0.703  -0.693  -0.692  -0.652  -0.613
 -- Virtual --
 -0.195  -0.131  -0.111  -0.108  -0.081  -0.041  -0.038  -0.034
 -0.029  -0.016   0.004   0.004   0.006   0.032   0.034   0.042
  0.042   0.043   0.048   0.051   0.064   0.082   0.091   0.093
  0.095   0.098   0.106   0.124   0.125   0.137   0.169   0.174
  0.184   0.187   0.204   0.212   0.243   0.245   0.262   0.270
  0.271   0.277   0.315   0.330   0.353   0.357   0.364   0.375
  0.388   0.399   0.409   0.415   0.418   0.431   0.468   0.481
  0.490   0.494   0.506   0.523   0.532   0.535   0.568   0.645
  0.654   0.655   0.669   0.686   0.688   0.703   0.751   0.806
  0.823   0.843   0.881   0.883   0.909   0.922   0.933   0.942
  0.955   0.968   0.974   0.996   1.005   1.006   1.007   1.029
  1.034   1.036   1.049   1.050   1.059   1.066   1.067   1.076
  1.097   1.107   1.113   1.126   1.159   1.162   1.175   1.207
  1.209   1.234   1.301   1.313   1.322   1.340   1.343   1.383
  1.383   1.446   1.457   1.477   1.498   1.511   1.526   1.567
  1.573   1.594   1.597   1.608   1.673   1.678   1.694   1.745
  1.761   1.770   1.937   2.040   2.058   2.070   2.125   2.147
  2.206   2.214   2.239   2.306   2.373   2.407   2.500   2.514
  2.576   2.682   2.693   2.703   2.860   2.875   2.967   2.981
  3.021   3.151   3.153   3.155   3.216   3.263   3.320   3.326
  3.362   3.381   3.441   3.455   3.495   3.500   3.599   3.771
  3.832   3.845   4.164   4.170   4.228   4.228   4.234   4.247
  4.257   4.263   4.265   4.303   4.313   4.315   4.325   4.350
  4.351   4.370   4.376   4.384   4.384   4.393   4.434   4.468
  4.477   4.485   4.492   4.497   4.540   4.547   4.608   4.650
  4.820   4.904   4.929   4.949   4.955   4.964   4.972   4.989
  5.045   5.059   5.085   5.097   5.144   5.176   5.211   5.224
  5.352   5.434   5.573   5.725   6.000   6.004   9.656   9.785
  9.832   9.966  20.381  20.389  20.403  20.435  20.435  20.468
 20.475  20.524  20.629  20.714  20.763  20.791  23.367  24.233
 26.903  26.920  26.923  26.963  26.968  26.969  26.969  26.978
 26.992  27.005  27.013  27.018  27.019  27.041  27.048  27.053
 27.056  27.079  27.126  27.157  27.174  27.208  27.921  27.948
 28.039  28.150  36.619  36.619  36.621  36.622  36.622  36.622
 36.623  36.626  36.632  36.632  36.633  36.633  36.634  36.634
 36.634  36.636  36.637  36.637  36.641  36.642  36.645  36.652
 36.653  36.654  36.658  36.658  36.663  36.671  40.523  40.583
 40.618  40.799  40.801  40.848  40.888  40.897  40.946  40.976
215.542 215.684 215.721 215.895
 
 Beta MOs
 -- Occupied --
*******-101.187-101.187-101.187 -10.563 -10.563  -9.709  -9.709
 -9.709  -9.709  -7.525  -7.525  -7.525  -7.525  -7.514  -7.514
 -7.514  -7.514  -7.511  -7.511  -7.511  -7.511  -1.390  -1.319
 -1.270  -1.238  -1.132  -0.933  -0.883  -0.876  -0.806  -0.787
 -0.727  -0.713  -0.701  -0.691  -0.674  -0.663  -0.650
 -- Virtual --
 -0.334  -0.141  -0.126  -0.104  -0.100  -0.081  -0.041  -0.038
 -0.032  -0.028  -0.014   0.004   0.005   0.007   0.033   0.034
  0.043   0.045   0.047   0.049   0.051   0.065   0.082   0.093
  0.097   0.099   0.099   0.114   0.125   0.126   0.138   0.170
  0.176   0.185   0.192   0.205   0.217   0.250   0.251   0.273
  0.277   0.280   0.281   0.319   0.330   0.363   0.368   0.371
  0.380   0.389   0.400   0.410   0.417   0.423   0.438   0.472
  0.485   0.496   0.506   0.509   0.525   0.533   0.548   0.570
  0.654   0.655   0.658   0.673   0.692   0.699   0.718   0.753
  0.809   0.825   0.845   0.886   0.886   0.912   0.927   0.936
  0.948   0.959   0.973   0.977   1.001   1.007   1.009   1.011
  1.034   1.038   1.041   1.052   1.054   1.064   1.068   1.072
  1.081   1.100   1.111   1.114   1.130   1.164   1.168   1.178
  1.211   1.211   1.239   1.306   1.316   1.325   1.343   1.347
  1.384   1.392   1.447   1.465   1.484   1.502   1.519   1.533
  1.573   1.577   1.598   1.602   1.609   1.681   1.681   1.697
  1.747   1.763   1.773   1.944   2.041   2.066   2.077   2.132
  2.149   2.214   2.215   2.241   2.308   2.375   2.411   2.501
  2.515   2.603   2.709   2.712   2.725   2.878   2.886   2.984
  2.994   3.036   3.158   3.161   3.164   3.232   3.288   3.323
  3.342   3.374   3.385   3.457   3.469   3.507   3.522   3.621
  3.776   3.850   3.850   4.167   4.174   4.236   4.237   4.241
  4.252   4.264   4.271   4.272   4.308   4.322   4.322   4.330
  4.355   4.356   4.375   4.383   4.388   4.390   4.401   4.435
  4.475   4.484   4.495   4.499   4.502   4.541   4.548   4.610
  4.653   4.822   4.906   4.931   4.951   4.960   4.967   4.974
  4.991   5.048   5.062   5.087   5.100   5.147   5.179   5.212
  5.225   5.353   5.436   5.575   5.727   6.001   6.006   9.657
  9.786   9.833   9.967  20.384  20.392  20.407  20.435  20.439
 20.468  20.475  20.525  20.630  20.715  20.763  20.792  23.372
 24.238  26.913  26.922  26.925  26.966  26.970  26.970  26.972
 26.979  26.994  27.007  27.014  27.019  27.020  27.043  27.048
 27.055  27.056  27.086  27.127  27.158  27.174  27.221  27.924
 27.951  28.042  28.153  36.620  36.620  36.622  36.623  36.623
 36.623  36.624  36.627  36.633  36.633  36.633  36.633  36.634
 36.634  36.635  36.636  36.638  36.638  36.642  36.642  36.646
 36.652  36.653  36.654  36.658  36.658  36.664  36.672  40.533
 40.588  40.630  40.808  40.811  40.858  40.890  40.906  40.949
 40.978 215.543 215.684 215.722 215.896
 --------------------------------------------------------------
 
          Ground-State Mulliken Net Atomic Charges

     Atom                 Charge (a.u.)    Spin (a.u.)
  --------------------------------------------------------
      1 C                     0.674387       0.283615
      2 C                     0.674278       0.283517
      3 Cl                   -0.086757       0.108361
      4 Cl                   -0.087604       0.108068
      5 Cl                   -0.086763       0.108358
      6 Cl                   -0.087541       0.108081
  --------------------------------------------------------
  Sum of atomic charges =     1.000000
  Sum of spin   charges =     1.000000

 -----------------------------------------------------------------
                    Cartesian Multipole Moments
 -----------------------------------------------------------------
    Charge (ESU x 10^10)
                 4.8032
    Dipole Moment (Debye)
         X       0.0000      Y       0.0000      Z       3.2346
       Tot       3.2346
    Quadrupole Moments (Debye-Ang)
        XX     -43.6935     XY      -0.0093     YY     -56.3193
        XZ      -0.0014     YZ      -0.0027     ZZ     -41.3816
    Octapole Moments (Debye-Ang^2)
       XXX       0.0000    XXY       0.0000    XYY       0.0000
       YYY       0.0000    XXZ     -29.4238    XYZ      -0.0062
       YYZ     -37.9262    XZZ      -0.0019    YZZ      -0.0036
       ZZZ     -86.5345
    Hexadecapole Moments (Debye-Ang^3)
      XXXX    -560.0216   XXXY      -0.0737   XXYY    -114.3481
      XYYY      -0.0086   YYYY     -57.4505   XXXZ      -0.0063
      XXYZ      -0.0019   XYYZ      -0.0045   YYYZ      -0.0023
      XXZZ    -185.5291   XYZZ       0.0000   YYZZ    -163.6528
      XZZZ      -0.0116   YZZZ      -0.0276   ZZZZ    -843.3524
 -----------------------------------------------------------------
 Total job time:  560.37s(wall), 556.39s(cpu) 
 Wed Mar 26 01:40:06 2014

        *************************************************************
        *                                                           *
        *  Thank you very much for using Q-Chem.  Have a nice day.  *
        *                                                           *
        *************************************************************


0 sent ACK to 0 
now end server 0 ... 
