Process 0 of 1 is on cl222.stfx.acenet.ca - thread support 1
initial socket setup ...start
initial socket setup ...done 
now start server 0 ... 

cmd = /usr/bin/ssh clhead /usr/local/qchem/bin/get_hostid 1874344425 > /globalscratch/itamblyn/bnl/g297_b3lyp_neut_g03Large_worked/g2g71134/omega500/qchem17459/lic.dat
                  Welcome to Q-Chem
     A Quantum Leap Into The Future Of Chemistry

 Y. Shao, L. Fusti-Molnar, Y. Jung, J. Kussmann, C. Ochsenfeld,
 S. T. Brown, A. T. B. Gilbert, L. V. Slipchenko,S. V. Levchenko,
 D. P. O'Neill, R. A. DiStasio Jr., R. C. Lochan, T. Wang,
 G. J. O. Beran, N. A. Besley, J. M. Herbert, C. Y. Lin,
 T. Van Voorhis, S. H. Chien, A. Sodt, R. P. Steele, 
 V. A. Rassolov, P. E. Maslen, P. P. Korambath, R. D. Adamson,
 B. Austin, J. Baker, E. F. C. Byrd, H. Dachsel, R. J. Doerksen,
 A. Dreuw, B. D. Dunietz, A. D. Dutoi, T. R. Furlani,
 S. R. Gwaltney, A. Heyden, S. Hirata, C.-P. Hsu, G. Kedziora,
 R. Z. Khaliullin, P. Klunzinger, A. M. Lee, M. S. Lee, W. Liang,
 I. Lotan, N. Nair, B. Peters, E. I. Proynov, P. A. Pieniazek, 
 Y. M. Rhee, J. Ritchie, E. Rosta, C. D. Sherrill, 
 A. C. Simmonett, J. E. Subotnik, H. L. Woodcock III,
 W. Zhang, A. T. Bell, A. K. Chakraborty, D. M. Chipman,
 F. J. Keil, A. Warshel, W. J. Hehre, H. F. Schaefer III,
 J. Kong, A. I. Krylov, P. M. W. Gill, M. Head-Gordon,
 Q-Chem, Version 3.1, Q-Chem, Inc., Pittsburgh, PA (2007).

 Additional authors for Version 3.1: 
 Z. Gan, Y. Zhao, N. E. Schultz, D. Truhlar, E. Epifanovsky and M. Oana.

 Additional authors for Version 3.2: 
 R. Baer, B. R. Brooks, D. Casanova, J.-D. Chai, C.-L. Cheng, 
 C. Cramer, D. Crittenden, A. Ghysels, G. Hawkins, E. G. Hohenstein, 
 C. Kelley, W. Kurlancheek, D. Liotard, E. Livshits, P. Manohar, 
 A. Marenich, D. Neuhauser, R. Olson, M. A. Rohrdanz, K. S. Thanthiriwatte, 
 A. J. W. Thom, V. Vanovschi, C. F. Williams, Q. Wu and Z.-Q. You. 


 Intel X86 Linux Version

 Q-chem begins on Tue Apr 12 22:44:16 2011  

 Parallel job on  1  processors
Processing $rem in /usr/local/qchem/config/preferences.

theFileMan(): MAXOPENFILES=974 MAX_SUB_FILE_NUM=16
Maximum size of a physical file is 2.0 GB, maximum size of a tmp-file is 32.0 GB


--------------------------------------------------------------
User input:
--------------------------------------------------------------

$molecule
-1,2
H
H,1,r

r=0.74264369

$end

$comment
negative
$end

$xc_functional
   X HF 1.0
   X BNL 1.0
   C LYP 1.0
$end

$rem
SYMMETRY_DECOMPOSITION	0
exchange 		general
BASIS                   g3large
omega			500
separate_jk		true
mem_static              760
max_scf_cycles          200
scf_final_print         1
sym_ignore              true
$end

--------------------------------------------------------------
 Writing REM_CC_EA            2
 ----------------------------------------------------
       Standard Nuclear Orientation (Angstroms)
    I     Atom         X            Y            Z
 ----------------------------------------------------
    1      H       0.000000     0.000000     0.000000
    2      H       0.000000     0.000000     0.742644
 ----------------------------------------------------
 Nuclear Repulsion Energy =     0.7125586845 hartrees
 There are        2 alpha and        1 beta electrons
 Requested basis set is G3large
 There are 12 shells and 20 basis functions

Total QAlloc Memory Limit   2000 MB
Mega-Array Size       743 MB
MEM_STATIC part       760 MB

                       Distance Matrix (Angstroms)
             H (  1)
   H (  2)  0.742644
 
 A cutoff of  1.0D-08 yielded     78 shell pairs
 There are    222 function pairs
Evaluating contribution to one-electron hamiltonian from nuclear
 Smallest overlap matrix eigenvalue = 3.03E-03
 Multipole matrices computed through 2nd order

  Scale SEOQF with 1.000000e+00/1.000000e+00/1.000000e+00

 Standard Electronic Orientation quadrupole field applied
 Nucleus-field energy     =    -0.0000000006 hartrees
 Guess from superposition of atomic densities
 Warning:  Energy on first SCF cycle will be non-variational
 An unrestricted hybrid HF-DFT SCF calculation will be
 performed using Pulay DIIS extrapolation
 Exchange:     1.0000 Hartree-Fock + 1.0000 BNL
 Correlation:  1.0000 LYP
 Using SG-1 standard quadrature grid
 SCF converges when DIIS error is below 1.0E-05
 Warning!  Inaccurate integrated density:
   Number of electrons =     3
   Numerical integral  =     2.000000900694
   Relative error      =   -33.3333033102 %
 ---------------------------------------
  Cycle       Energy         DIIS Error
 ---------------------------------------
    1      -0.8903403303      2.30E-02
    2      -1.0787699212      3.49E-03
    3      -1.0836364206      1.14E-03
    4      -1.0845001501      4.70E-04
    5      -1.0846785993      1.04E-04
    6      -1.0846884959      8.27E-06 Convergence criterion met
 ---------------------------------------
 One-Electron    Energy =    -2.8063348163
 Total Coulomb   Energy =     1.7657489958
 Alpha Exchange  Energy =    -0.2914730036
 Beta  Exchange  Energy =    -0.2068657375
 DFT   Exchange  Energy =    -0.2164454813
 DFT Correlation Energy =    -0.0418771369
 Nuclear Repu.   Energy =     0.7125586839
 Nuclear Attr.   Energy =    -3.9734103960
 Kinetic         Energy =     1.1670755797
 <S^2> = 0.7503
 SCF time:  CPU 0.35 s  wall 7.34 s
 Final Alpha MO Eigenvalues
            1           2           3           4           5           6
    1  -0.3793315   0.0667791   0.1927303   0.3775103   0.6036396   0.8110492
            7
    1   0.8110536
 Final Beta MO Eigenvalues
            1           2           3           4           5           6
    1  -0.3747831   0.1997202   0.2009584   0.3873555   0.5959549   0.8120241
 Analysis of SCF Wavefunction
 
 --------------------------------------------------------------
                    Orbital Energies (a.u.)
 --------------------------------------------------------------
 
 Alpha MOs
 -- Occupied --
 -0.379   0.067
 -- Virtual --
  0.193   0.378   0.604   0.811   0.811   0.870   1.234   1.244
  1.244   1.737   2.611   2.797   3.735   3.735   4.065   4.543
  4.543   5.949
 
 Beta MOs
 -- Occupied --
 -0.375
 -- Virtual --
  0.200   0.201   0.387   0.596   0.812   0.812   0.866   1.239
  1.247   1.247   1.736   2.610   2.797   3.736   3.736   4.067
  4.545   4.545   5.952
 --------------------------------------------------------------
 
          Ground-State Mulliken Net Atomic Charges

     Atom                 Charge (a.u.)    Spin (a.u.)
  --------------------------------------------------------
      1 H                    -0.499994       0.500009
      2 H                    -0.500006       0.499991
  --------------------------------------------------------
  Sum of atomic charges =    -1.000000
  Sum of spin   charges =     1.000000

 -----------------------------------------------------------------
                    Cartesian Multipole Moments
 -----------------------------------------------------------------
    Charge (ESU x 10^10)
                -4.8032
    Dipole Moment (Debye)
         X       0.0000      Y       0.0000      Z      -1.7834
       Tot       1.7834
    Quadrupole Moments (Debye-Ang)
        XX     -12.0987     XY       0.0000     YY     -12.0987
        XZ       0.0000     YZ       0.0000     ZZ     -32.0916
    Octapole Moments (Debye-Ang^2)
       XXX       0.0000    XXY       0.0000    XYY       0.0000
       YYY       0.0000    XXZ      -4.4923    XYZ       0.0000
       YYZ      -4.4923    XZZ       0.0000    YZZ       0.0000
       ZZZ     -35.2563
    Hexadecapole Moments (Debye-Ang^3)
      XXXX     -62.5586   XXXY       0.0000   XXYY     -20.8529
      XYYY       0.0000   YYYY     -62.5586   XXXZ       0.0000
      XXYZ       0.0000   XYYZ       0.0000   YYYZ       0.0000
      XXZZ     -63.2409   XYZZ       0.0000   YYZZ     -63.2409
      XZZZ       0.0000   YZZZ       0.0000   ZZZZ    -335.6055
 -----------------------------------------------------------------
 Total job time:  16.93s(wall), 0.39s(cpu) 
 Tue Apr 12 22:44:33 2011

        *************************************************************
        *                                                           *
        *  Thank you very much for using Q-Chem.  Have a nice day.  *
        *                                                           *
        *************************************************************


0 sent ACK to 0 
now end server 0 ... 
 
**********************************************************************
Job 2 of 3 
**********************************************************************
 
Process 0 of 1 is on cl222.stfx.acenet.ca - thread support 1
initial socket setup ...start
initial socket setup ...done 
now start server 0 ... 

cmd = /usr/bin/ssh clhead /usr/local/qchem/bin/get_hostid 1938439859 > /globalscratch/itamblyn/bnl/g297_b3lyp_neut_g03Large_worked/g2g71134/omega500/qchem17459/lic.dat
                  Welcome to Q-Chem
     A Quantum Leap Into The Future Of Chemistry

 Y. Shao, L. Fusti-Molnar, Y. Jung, J. Kussmann, C. Ochsenfeld,
 S. T. Brown, A. T. B. Gilbert, L. V. Slipchenko,S. V. Levchenko,
 D. P. O'Neill, R. A. DiStasio Jr., R. C. Lochan, T. Wang,
 G. J. O. Beran, N. A. Besley, J. M. Herbert, C. Y. Lin,
 T. Van Voorhis, S. H. Chien, A. Sodt, R. P. Steele, 
 V. A. Rassolov, P. E. Maslen, P. P. Korambath, R. D. Adamson,
 B. Austin, J. Baker, E. F. C. Byrd, H. Dachsel, R. J. Doerksen,
 A. Dreuw, B. D. Dunietz, A. D. Dutoi, T. R. Furlani,
 S. R. Gwaltney, A. Heyden, S. Hirata, C.-P. Hsu, G. Kedziora,
 R. Z. Khaliullin, P. Klunzinger, A. M. Lee, M. S. Lee, W. Liang,
 I. Lotan, N. Nair, B. Peters, E. I. Proynov, P. A. Pieniazek, 
 Y. M. Rhee, J. Ritchie, E. Rosta, C. D. Sherrill, 
 A. C. Simmonett, J. E. Subotnik, H. L. Woodcock III,
 W. Zhang, A. T. Bell, A. K. Chakraborty, D. M. Chipman,
 F. J. Keil, A. Warshel, W. J. Hehre, H. F. Schaefer III,
 J. Kong, A. I. Krylov, P. M. W. Gill, M. Head-Gordon,
 Q-Chem, Version 3.1, Q-Chem, Inc., Pittsburgh, PA (2007).

 Additional authors for Version 3.1: 
 Z. Gan, Y. Zhao, N. E. Schultz, D. Truhlar, E. Epifanovsky and M. Oana.

 Additional authors for Version 3.2: 
 R. Baer, B. R. Brooks, D. Casanova, J.-D. Chai, C.-L. Cheng, 
 C. Cramer, D. Crittenden, A. Ghysels, G. Hawkins, E. G. Hohenstein, 
 C. Kelley, W. Kurlancheek, D. Liotard, E. Livshits, P. Manohar, 
 A. Marenich, D. Neuhauser, R. Olson, M. A. Rohrdanz, K. S. Thanthiriwatte, 
 A. J. W. Thom, V. Vanovschi, C. F. Williams, Q. Wu and Z.-Q. You. 


 Intel X86 Linux Version

 Q-chem begins on Tue Apr 12 22:44:37 2011  

 Parallel job on  1  processors
Processing $rem in /usr/local/qchem/config/preferences.

theFileMan(): MAXOPENFILES=974 MAX_SUB_FILE_NUM=16
Maximum size of a physical file is 2.0 GB, maximum size of a tmp-file is 32.0 GB


--------------------------------------------------------------
User input:
--------------------------------------------------------------

$molecule
0,1
H
H,1,r

r=0.74264369

$end

$comment
neutral
$end

$xc_functional
   X HF 1.0
   X BNL 1.0
   C LYP 1.0
$end

$rem
SYMMETRY_DECOMPOSITION	0
exchange 		general
BASIS                   g3large
omega			500
separate_jk		true
mem_static              760
max_scf_cycles          200
scf_final_print         1
sym_ignore              true
$end

--------------------------------------------------------------
 Writing REM_CC_EA            2
 ----------------------------------------------------
       Standard Nuclear Orientation (Angstroms)
    I     Atom         X            Y            Z
 ----------------------------------------------------
    1      H       0.000000     0.000000     0.000000
    2      H       0.000000     0.000000     0.742644
 ----------------------------------------------------
 Nuclear Repulsion Energy =     0.7125586845 hartrees
 There are        1 alpha and        1 beta electrons
 Requested basis set is G3large
 There are 12 shells and 20 basis functions

Total QAlloc Memory Limit   2000 MB
Mega-Array Size       743 MB
MEM_STATIC part       760 MB

                       Distance Matrix (Angstroms)
             H (  1)
   H (  2)  0.742644
 
 A cutoff of  1.0D-08 yielded     78 shell pairs
 There are    222 function pairs
Evaluating contribution to one-electron hamiltonian from nuclear
 Smallest overlap matrix eigenvalue = 3.03E-03
 Multipole matrices computed through 2nd order

  Scale SEOQF with 1.000000e+00/1.000000e+00/1.000000e+00

 Standard Electronic Orientation quadrupole field applied
 Nucleus-field energy     =    -0.0000000006 hartrees
 Guess from superposition of atomic densities
 Warning:  Energy on first SCF cycle will be non-variational
 A restricted hybrid HF-DFT SCF calculation will be
 performed using Pulay DIIS extrapolation
 Exchange:     1.0000 Hartree-Fock + 1.0000 BNL
 Correlation:  1.0000 LYP
 Using SG-1 standard quadrature grid
 SCF converges when DIIS error is below 1.0E-05
 ---------------------------------------
  Cycle       Energy         DIIS Error
 ---------------------------------------
    1      -0.8903403303      2.30E-02
    2      -1.1507187799      1.10E-03
    3      -1.1508246618      1.85E-04
    4      -1.1508282720      1.83E-05
    5      -1.1508283280      1.05E-06 Convergence criterion met
 ---------------------------------------
 One-Electron    Energy =    -2.4913766641
 Total Coulomb   Energy =     1.2929805698
 Alpha Exchange  Energy =    -0.2080202893
 Beta  Exchange  Energy =    -0.2080202893
 DFT   Exchange  Energy =    -0.2108497763
 DFT Correlation Energy =    -0.0381005627
 Nuclear Repu.   Energy =     0.7125586839
 Nuclear Attr.   Energy =    -3.5868336752
 Kinetic         Energy =     1.0954570112
 SCF time:  CPU 0.28 s  wall 9.86 s
 Final Alpha MO Eigenvalues
            1           2           3           4           5           6
    1  -0.5687518   0.0630236   0.0671251   0.2173270   0.4290928   0.6221788
 Analysis of SCF Wavefunction
 
 --------------------------------------------------------------
                    Orbital Energies (a.u.)
 --------------------------------------------------------------
 
 Alpha MOs
 -- Occupied --
 -0.569
 -- Virtual --
  0.063   0.067   0.217   0.429   0.622   0.622   0.683   1.043
  1.055   1.055   1.542   2.422   2.605   3.543   3.543   3.870
  4.349   4.349   5.754
 --------------------------------------------------------------
 
          Ground-State Mulliken Net Atomic Charges

     Atom                 Charge (a.u.)
  ----------------------------------------
      1 H                    -0.000003
      2 H                     0.000003
  ----------------------------------------
  Sum of atomic charges =     0.000000

 -----------------------------------------------------------------
                    Cartesian Multipole Moments
 -----------------------------------------------------------------
    Charge (ESU x 10^10)
                 0.0000
    Dipole Moment (Debye)
         X       0.0000      Y       0.0000      Z       0.0000
       Tot       0.0000
    Quadrupole Moments (Debye-Ang)
        XX      -2.1890     XY       0.0000     YY      -2.1890
        XZ       0.0000     YZ       0.0000     ZZ      -1.5866
    Octapole Moments (Debye-Ang^2)
       XXX       0.0000    XXY       0.0000    XYY       0.0000
       YYY       0.0000    XXZ      -0.8128    XYZ       0.0000
       YYZ      -0.8128    XZZ       0.0000    YZZ       0.0000
       ZZZ      -1.7674
    Hexadecapole Moments (Debye-Ang^3)
      XXXX      -2.3183   XXXY       0.0000   XXYY      -0.7728
      XYYY       0.0000   YYYY      -2.3183   XXXZ       0.0000
      XXYZ       0.0000   XYYZ       0.0000   YYYZ       0.0000
      XXZZ      -1.2305   XYZZ       0.0000   YYZZ      -1.2305
      XZZZ       0.0000   YZZZ       0.0000   ZZZZ      -4.4577
 -----------------------------------------------------------------
 Total job time:  14.93s(wall), 0.33s(cpu) 
 Tue Apr 12 22:44:51 2011

        *************************************************************
        *                                                           *
        *  Thank you very much for using Q-Chem.  Have a nice day.  *
        *                                                           *
        *************************************************************


0 sent ACK to 0 
now end server 0 ... 
 
**********************************************************************
Job 3 of 3 
**********************************************************************
 
Process 0 of 1 is on cl222.stfx.acenet.ca - thread support 1
initial socket setup ...start
initial socket setup ...done 
now start server 0 ... 

cmd = /usr/bin/ssh clhead /usr/local/qchem/bin/get_hostid 1384231999 > /globalscratch/itamblyn/bnl/g297_b3lyp_neut_g03Large_worked/g2g71134/omega500/qchem17459/lic.dat
                  Welcome to Q-Chem
     A Quantum Leap Into The Future Of Chemistry

 Y. Shao, L. Fusti-Molnar, Y. Jung, J. Kussmann, C. Ochsenfeld,
 S. T. Brown, A. T. B. Gilbert, L. V. Slipchenko,S. V. Levchenko,
 D. P. O'Neill, R. A. DiStasio Jr., R. C. Lochan, T. Wang,
 G. J. O. Beran, N. A. Besley, J. M. Herbert, C. Y. Lin,
 T. Van Voorhis, S. H. Chien, A. Sodt, R. P. Steele, 
 V. A. Rassolov, P. E. Maslen, P. P. Korambath, R. D. Adamson,
 B. Austin, J. Baker, E. F. C. Byrd, H. Dachsel, R. J. Doerksen,
 A. Dreuw, B. D. Dunietz, A. D. Dutoi, T. R. Furlani,
 S. R. Gwaltney, A. Heyden, S. Hirata, C.-P. Hsu, G. Kedziora,
 R. Z. Khaliullin, P. Klunzinger, A. M. Lee, M. S. Lee, W. Liang,
 I. Lotan, N. Nair, B. Peters, E. I. Proynov, P. A. Pieniazek, 
 Y. M. Rhee, J. Ritchie, E. Rosta, C. D. Sherrill, 
 A. C. Simmonett, J. E. Subotnik, H. L. Woodcock III,
 W. Zhang, A. T. Bell, A. K. Chakraborty, D. M. Chipman,
 F. J. Keil, A. Warshel, W. J. Hehre, H. F. Schaefer III,
 J. Kong, A. I. Krylov, P. M. W. Gill, M. Head-Gordon,
 Q-Chem, Version 3.1, Q-Chem, Inc., Pittsburgh, PA (2007).

 Additional authors for Version 3.1: 
 Z. Gan, Y. Zhao, N. E. Schultz, D. Truhlar, E. Epifanovsky and M. Oana.

 Additional authors for Version 3.2: 
 R. Baer, B. R. Brooks, D. Casanova, J.-D. Chai, C.-L. Cheng, 
 C. Cramer, D. Crittenden, A. Ghysels, G. Hawkins, E. G. Hohenstein, 
 C. Kelley, W. Kurlancheek, D. Liotard, E. Livshits, P. Manohar, 
 A. Marenich, D. Neuhauser, R. Olson, M. A. Rohrdanz, K. S. Thanthiriwatte, 
 A. J. W. Thom, V. Vanovschi, C. F. Williams, Q. Wu and Z.-Q. You. 


 Intel X86 Linux Version

 Q-chem begins on Tue Apr 12 22:45:00 2011  

 Parallel job on  1  processors
Processing $rem in /usr/local/qchem/config/preferences.

theFileMan(): MAXOPENFILES=974 MAX_SUB_FILE_NUM=16
Maximum size of a physical file is 2.0 GB, maximum size of a tmp-file is 32.0 GB


--------------------------------------------------------------
User input:
--------------------------------------------------------------

$molecule
1,2
H
H,1,r

r=0.74264369

$end

$comment
positive
$end

$xc_functional
   X HF 1.0
   X BNL 1.0
   C LYP 1.0
$end

$rem
SYMMETRY_DECOMPOSITION	0
exchange 		general
BASIS                   g3large
omega			500
separate_jk		true
mem_static              760
max_scf_cycles          200
scf_final_print         1
sym_ignore              true
$end

--------------------------------------------------------------
 Writing REM_CC_EA            2
 ----------------------------------------------------
       Standard Nuclear Orientation (Angstroms)
    I     Atom         X            Y            Z
 ----------------------------------------------------
    1      H       0.000000     0.000000     0.000000
    2      H       0.000000     0.000000     0.742644
 ----------------------------------------------------
 Nuclear Repulsion Energy =     0.7125586845 hartrees
 There are        1 alpha and        0 beta electrons
 Requested basis set is G3large
 There are 12 shells and 20 basis functions

Total QAlloc Memory Limit   2000 MB
Mega-Array Size       743 MB
MEM_STATIC part       760 MB

                       Distance Matrix (Angstroms)
             H (  1)
   H (  2)  0.742644
 
 A cutoff of  1.0D-08 yielded     78 shell pairs
 There are    222 function pairs
Evaluating contribution to one-electron hamiltonian from nuclear
 Smallest overlap matrix eigenvalue = 3.03E-03
 Multipole matrices computed through 2nd order

  Scale SEOQF with 1.000000e+00/1.000000e+00/1.000000e+00

 Standard Electronic Orientation quadrupole field applied
 Nucleus-field energy     =    -0.0000000006 hartrees
 Guess from superposition of atomic densities
 Warning:  Energy on first SCF cycle will be non-variational
 An unrestricted hybrid HF-DFT SCF calculation will be
 performed using Pulay DIIS extrapolation
 Exchange:     1.0000 Hartree-Fock + 1.0000 BNL
 Correlation:  1.0000 LYP
 Using SG-1 standard quadrature grid
 SCF converges when DIIS error is below 1.0E-05
 Warning!  Inaccurate integrated density:
   Number of electrons =     1
   Numerical integral  =     2.000000900694
   Relative error      =   100.0000900694 %
 ---------------------------------------
  Cycle       Energy         DIIS Error
 ---------------------------------------
    1      -0.8903403303      2.30E-02
    2      -0.5211312126      1.28E-02
    3      -0.5526700023      1.43E-03
    4      -0.5527811283      5.91E-04
    5      -0.5528494510      1.40E-05
    6      -0.5528494874      6.40E-07 Convergence criterion met
 ---------------------------------------
 One-Electron    Energy =    -1.2818068440
 Total Coulomb   Energy =     0.3820967962
 Alpha Exchange  Energy =    -0.2239414038
 Beta  Exchange  Energy =     0.0000000000
 DFT   Exchange  Energy =    -0.1417567197
 DFT Correlation Energy =     0.0000000000
 Nuclear Repu.   Energy =     0.7125586839
 Nuclear Attr.   Energy =    -2.0322995498
 Kinetic         Energy =     0.7504927058
 <S^2> = 0.7500
 SCF time:  CPU 0.32 s  wall 8.79 s
 Final Alpha MO Eigenvalues
            1           2           3           4           5           6
    1  -1.1926339  -0.2171053  -0.1390382  -0.0485522   0.1148279   0.1527160
 Final Beta MO Eigenvalues
            1           2           3           4           5
    1  -0.6355706  -0.1899278  -0.1345655  -0.0350028   0.1313880
 Analysis of SCF Wavefunction
 
 --------------------------------------------------------------
                    Orbital Energies (a.u.)
 --------------------------------------------------------------
 
 Alpha MOs
 -- Occupied --
 -1.193
 -- Virtual --
 -0.217  -0.139  -0.049   0.115   0.153   0.153   0.288   0.621
  0.639   0.639   1.152   1.841   2.030   2.921   2.921   3.238
  3.731   3.731   5.116
 --------------------------------------------------------------
 
          Ground-State Mulliken Net Atomic Charges

     Atom                 Charge (a.u.)    Spin (a.u.)
  --------------------------------------------------------
      1 H                     0.500003       0.499997
      2 H                     0.499997       0.500003
  --------------------------------------------------------
  Sum of atomic charges =     1.000000
  Sum of spin   charges =     1.000000

 -----------------------------------------------------------------
                    Cartesian Multipole Moments
 -----------------------------------------------------------------
    Charge (ESU x 10^10)
                 4.8032
    Dipole Moment (Debye)
         X       0.0000      Y       0.0000      Z       1.7835
       Tot       1.7835
    Quadrupole Moments (Debye-Ang)
        XX      -0.7236     XY       0.0000     YY      -0.7236
        XZ       0.0000     YZ       0.0000     ZZ       0.9732
    Octapole Moments (Debye-Ang^2)
       XXX       0.0000    XXY       0.0000    XYY       0.0000
       YYY       0.0000    XXZ      -0.2687    XYZ       0.0000
       YYZ      -0.2687    XZZ       0.0000    YZZ       0.0000
       ZZZ       0.5922
    Hexadecapole Moments (Debye-Ang^3)
      XXXX      -0.4551   XXXY       0.0000   XXYY      -0.1517
      XYYY       0.0000   YYYY      -0.4551   XXXZ       0.0000
      XXYZ       0.0000   XYYZ       0.0000   YYYZ       0.0000
      XXZZ      -0.2898   XYZZ       0.0000   YYZZ      -0.2898
      XZZZ       0.0000   YZZZ       0.0000   ZZZZ      -0.1760
 -----------------------------------------------------------------
 Total job time:  15.48s(wall), 0.35s(cpu) 
 Tue Apr 12 22:45:15 2011

        *************************************************************
        *                                                           *
        *  Thank you very much for using Q-Chem.  Have a nice day.  *
        *                                                           *
        *************************************************************


0 sent ACK to 0 
now end server 0 ... 
