Process 0 of 1 is on cl033.stfx.acenet.ca - thread support 1
initial socket setup ...start
initial socket setup ...done 
now start server 0 ... 

cmd = /usr/bin/ssh clhead /usr/local/qchem/bin/get_hostid 927249117 > /scratch/tmp/6027506.1.short.q/qchem10373/lic.dat
                  Welcome to Q-Chem
     A Quantum Leap Into The Future Of Chemistry

 Y. Shao, L. Fusti-Molnar, Y. Jung, J. Kussmann, C. Ochsenfeld,
 S. T. Brown, A. T. B. Gilbert, L. V. Slipchenko,S. V. Levchenko,
 D. P. O'Neill, R. A. DiStasio Jr., R. C. Lochan, T. Wang,
 G. J. O. Beran, N. A. Besley, J. M. Herbert, C. Y. Lin,
 T. Van Voorhis, S. H. Chien, A. Sodt, R. P. Steele, 
 V. A. Rassolov, P. E. Maslen, P. P. Korambath, R. D. Adamson,
 B. Austin, J. Baker, E. F. C. Byrd, H. Dachsel, R. J. Doerksen,
 A. Dreuw, B. D. Dunietz, A. D. Dutoi, T. R. Furlani,
 S. R. Gwaltney, A. Heyden, S. Hirata, C.-P. Hsu, G. Kedziora,
 R. Z. Khaliullin, P. Klunzinger, A. M. Lee, M. S. Lee, W. Liang,
 I. Lotan, N. Nair, B. Peters, E. I. Proynov, P. A. Pieniazek, 
 Y. M. Rhee, J. Ritchie, E. Rosta, C. D. Sherrill, 
 A. C. Simmonett, J. E. Subotnik, H. L. Woodcock III,
 W. Zhang, A. T. Bell, A. K. Chakraborty, D. M. Chipman,
 F. J. Keil, A. Warshel, W. J. Hehre, H. F. Schaefer III,
 J. Kong, A. I. Krylov, P. M. W. Gill, M. Head-Gordon,
 Q-Chem, Version 3.1, Q-Chem, Inc., Pittsburgh, PA (2007).

 Additional authors for Version 3.1: 
 Z. Gan, Y. Zhao, N. E. Schultz, D. Truhlar, E. Epifanovsky and M. Oana.

 Additional authors for Version 3.2: 
 R. Baer, B. R. Brooks, D. Casanova, J.-D. Chai, C.-L. Cheng, 
 C. Cramer, D. Crittenden, A. Ghysels, G. Hawkins, E. G. Hohenstein, 
 C. Kelley, W. Kurlancheek, D. Liotard, E. Livshits, P. Manohar, 
 A. Marenich, D. Neuhauser, R. Olson, M. A. Rohrdanz, K. S. Thanthiriwatte, 
 A. J. W. Thom, V. Vanovschi, C. F. Williams, Q. Wu and Z.-Q. You. 


 Intel X86 Linux Version

 Q-chem begins on Mon Jun  3 14:59:35 2013  

 Parallel job on  1  processors
Processing $rem in /usr/local/qchem/config/preferences.

theFileMan(): MAXOPENFILES=974 MAX_SUB_FILE_NUM=16
Maximum size of a physical file is 2.0 GB, maximum size of a tmp-file is 32.0 GB


--------------------------------------------------------------
User input:
--------------------------------------------------------------

$molecule
0,3
C
C,1,cc
Cl,1,ccl,2,cccl
O,1,co,2,cco,3,180.,0
H,2,ch,1,hcc,4,0.,0
H,2,ch2,1,h2cc,5,hcch,0
H,2,ch2,1,h2cc,5,-hcch,0

cc=1.50396188
ccl=1.83438954
co=1.18713355
ch=1.09202164
ch2=1.0943179
cccl=111.67292061
cco=128.04760265
hcc=109.03442969
h2cc=109.74484983
hcch=121.02696626

$end

$comment
spin
$end

$rem
   EXCHANGE B3LYP
   UNRESTRICTED TRUE
   BASIS G3large 
   SCF_PRINT 1
   PDB_PRINT 2
   INCDFT false
   VARTHRESH 0
   MAX_SCF_CYCLES 1000
   MEM_STATIC 256
   MEM_TOTAL 3000
   THRESH 140
   ITHRSH 14
   XC_GRID 75000302
   SCF_CONVERGENCE 6
$end
--------------------------------------------------------------
 Writing REM_CC_EA            0
 ----------------------------------------------------
       Standard Nuclear Orientation (Angstroms)
    I     Atom         X            Y            Z
 ----------------------------------------------------
    1      C       0.485723    -0.241849     0.000000
    2      C       1.320593     1.009108     0.000000
    3      Cl     -1.308276     0.140971     0.000000
    4      O       0.857173    -1.369373     0.000000
    5      H       2.376947     0.732292     0.000000
    6      H       1.084232     1.611318    -0.882615
    7      H       1.084232     1.611318     0.882615
 ----------------------------------------------------
 Molecular Point Group                 Cs    NOp =  2
 Largest Abelian Subgroup              Cs    NOp =  2
 Nuclear Repulsion Energy =   147.6590127440 hartrees
 There are       21 alpha and       19 beta electrons
 Requested basis set is G3large
 There are 67 shells and 222 basis functions

Total QAlloc Memory Limit   3000 MB
Mega-Array Size       251 MB
MEM_STATIC part       256 MB

                       Distance Matrix (Angstroms)
             C (  1)   C (  2)   Cl(  3)   O (  4)   H (  5)   H (  6)
   C (  2)  1.503962
   Cl(  3)  1.834390  2.768504
   O (  4)  1.187134  2.423207  2.640134
   H (  5)  2.127364  1.092022  3.732363  2.593590
   H (  6)  2.138095  1.094318  2.943642  3.116903  1.795218
   H (  7)  2.138095  1.094318  2.943642  3.116903  1.795218  1.765229

 
 A cutoff of  1.0D-14 yielded   2136 shell pairs
 There are  23748 function pairs ( 30949 Cartesian)
Evaluating contribution to one-electron hamiltonian from nuclear
 Smallest overlap matrix eigenvalue = 1.14E-04
 Multipole matrices computed through 2nd order

  Scale SEOQF with 1.000000e-01/1.000000e-01/1.000000e-01

 Standard Electronic Orientation quadrupole field applied
 Nucleus-field energy     =     0.0000000038 hartrees
 Guess from superposition of atomic densities
 Warning:  Energy on first SCF cycle will be non-variational
 An unrestricted hybrid HF-DFT SCF calculation will be
 performed using Pulay DIIS extrapolation
 Exchange:     0.2000 Hartree-Fock + 0.0800 Slater + 0.7200 Becke88
 Correlation:  0.8100 LYP + 0.1900 VWN1RPA
 Using Euler-Maclaurin-Lebedev (75,302) quadrature formula
 SCF converges when DIIS error is below 1.0E-06
 Maximum number of SCF iterations = 1000

NRad = 75 NAng = 302
 ---------------------------------------
  Cycle       Energy         DIIS Error
 ---------------------------------------
    1    -613.9713804837      2.80E-02

NRad = 75 NAng = 302
    2    -560.1232009133      6.20E-01

NRad = 75 NAng = 302
    3    -613.0081120953      7.77E-03

NRad = 75 NAng = 302
    4    -611.1888714748      1.64E-02

NRad = 75 NAng = 302
    5    -613.1735613993      4.77E-03

NRad = 75 NAng = 302
    6    -613.3267225177      2.30E-03

NRad = 75 NAng = 302
    7    -613.3561037466      1.25E-03

NRad = 75 NAng = 302
    8    -613.3655379813      6.78E-04

NRad = 75 NAng = 302
    9    -613.3695479900      2.10E-04

NRad = 75 NAng = 302
   10    -613.3698393729      1.16E-04

NRad = 75 NAng = 302
   11    -613.3699693902      4.30E-05

NRad = 75 NAng = 302
   12    -613.3699891119      2.11E-05

NRad = 75 NAng = 302
   13    -613.3699928717      6.75E-06

NRad = 75 NAng = 302
   14    -613.3699929524      1.80E-06

NRad = 75 NAng = 302
   15    -613.3699933276      6.56E-07 Convergence criterion met
 ---------------------------------------
 One-Electron    Energy = -1135.9062608583
 Total Coulomb   Energy =   423.6984788213
 Alpha Exchange  Energy =    -4.8466593226
 Beta  Exchange  Energy =    -4.5896174848
 DFT   Exchange  Energy =   -37.4967767363
 DFT Correlation Energy =    -1.8881704946
 Nuclear Repu.   Energy =   147.6590127478
 Nuclear Attr.   Energy = -1748.3592081609
 Kinetic         Energy =   612.4529473026
 <S^2> = 2.0085
 SCF time:  CPU 558.79 s  wall 562.44 s
 Analysis of SCF Wavefunction
 
 --------------------------------------------------------------
             Orbital Energies (a.u.) and Symmetries
 --------------------------------------------------------------
 
 Alpha MOs, Unrestricted
 -- Occupied --                  
-101.55  -19.22  -10.26  -10.21   -9.49   -7.25   -7.24   -7.24
  1 A'    2 A'    3 A'    4 A'    5 A'    6 A'    1 A"    7 A'                 
 -1.155  -0.866  -0.768  -0.592  -0.534  -0.505  -0.504  -0.434
  8 A'    9 A'   10 A'   11 A'   12 A'   13 A'    2 A"   14 A'                 
 -0.427  -0.371  -0.350  -0.339  -0.141
  3 A"   15 A'    4 A"   16 A'    5 A"                                         
 -- Virtual --                   
 -0.018  -0.002   0.025   0.030   0.034   0.063   0.074   0.079
 17 A'   18 A'   19 A'    6 A"   20 A'   21 A'   22 A'   23 A'                 
  0.083   0.086   0.112   0.118   0.122   0.126   0.142   0.154
  7 A"    8 A"   24 A'   25 A'    9 A"   26 A'   27 A'   28 A'                 
  0.161   0.200   0.217   0.236   0.243   0.267   0.275   0.276
 10 A"   29 A'   30 A'   31 A'   11 A"   32 A'   12 A"   33 A'                 
  0.297   0.317   0.326   0.342   0.411   0.420   0.435   0.452
 34 A'   35 A'   13 A"   36 A'   37 A'   14 A"   38 A'   39 A'                 
  0.461   0.472   0.502   0.531   0.549   0.552   0.576   0.618
 40 A'   15 A"   41 A'   16 A"   42 A'   17 A"   43 A'   44 A'                 
  0.629   0.635   0.705   0.734   0.762   0.800   0.813   0.851
 45 A'   18 A"   46 A'   47 A'   48 A'   19 A"   49 A'   20 A"                 
  0.907   0.931   0.990   1.030   1.036   1.042   1.045   1.061
 50 A'   21 A"   51 A'   22 A"   52 A'   53 A'   23 A"   24 A"                 
  1.062   1.090   1.091   1.106   1.113   1.142   1.143   1.198
 54 A'   55 A'   25 A"   56 A'   57 A'   26 A"   58 A'   59 A'                 
  1.203   1.249   1.284   1.287   1.330   1.348   1.369   1.398
 27 A"   60 A'   28 A"   61 A'   62 A'   29 A"   63 A'   30 A"                 
  1.426   1.456   1.503   1.520   1.553   1.607   1.613   1.738
 64 A'   31 A"   65 A'   66 A'   67 A'   68 A'   69 A'   70 A'                 
  1.746   1.819   1.994   2.140   2.148   2.304   2.388   2.436
 32 A"   71 A'   33 A"   34 A"   72 A'   73 A'   74 A'   75 A'                 
  2.507   2.562   2.646   2.684   2.750   2.780   2.894   2.913
 35 A"   76 A'   77 A'   36 A"   37 A"   78 A'   38 A"   79 A'                 
  2.967   3.043   3.043   3.081   3.153   3.160   3.161   3.222
 80 A'   39 A"   81 A'   40 A"   82 A'   83 A'   41 A"   84 A'                 
  3.279   3.343   3.390   3.424   3.438   3.503   3.568   3.592
 85 A'   42 A"   86 A'   43 A"   44 A"   87 A'   45 A"   88 A'                 
  3.663   3.776   3.811   3.880   3.923   4.053   4.072   4.138
 89 A'   90 A'   46 A"   91 A'   92 A'   47 A"   93 A'   94 A'                 
  4.173   4.228   4.327   4.332   4.342   4.381   4.395   4.415
 48 A"   95 A'   49 A"   96 A'   50 A"   97 A'   51 A"   98 A'                 
  4.451   4.465   4.479   4.516   4.566   4.657   4.922   4.950
 52 A"   99 A'   53 A"  100 A'  101 A'  102 A'   54 A"  103 A'                 
  4.955   5.007   5.018   5.064   5.074   5.110   5.159   5.408
 55 A"   56 A"  104 A'  105 A'   57 A"  106 A'  107 A'  108 A'                 
  5.424   5.533   5.594   5.607   5.719   6.293   6.524   6.704
 58 A"  109 A'  110 A'   59 A"  111 A'   60 A"  112 A'   61 A"                 
  6.738   6.946   7.169   7.303   7.550   9.772  20.593  20.634
113 A'  114 A'   62 A"  115 A'  116 A'  117 A'   63 A"  118 A'                 
 20.865  24.209  24.516  27.166  27.178  27.185  27.229  27.243
119 A'  120 A'  121 A'   64 A"  122 A'   65 A"  123 A'  124 A'                 
 27.338  27.726  28.085  28.088  28.140  28.485  36.887  36.888
 66 A"  125 A'  126 A'   67 A"  127 A'  128 A'   68 A"  129 A'                 
 36.891  36.894  36.895  36.903  36.906  40.994  41.010  41.062
 69 A"  130 A'   70 A"  131 A'  132 A'   71 A"  133 A'   72 A"                 
 41.075  41.080  41.109  41.148  41.153  41.211  41.248  43.630
 73 A"  134 A'  135 A'   74 A"  136 A'  137 A'  138 A'   75 A"                 
 43.635  43.773  43.818  43.918  45.764  45.855  46.612  50.155
139 A'   76 A"  140 A'  141 A'   77 A"  142 A'  143 A'  144 A'                 
216.334
145 A'                                                                         
 
 Beta MOs, Unrestricted
 -- Occupied --                  
-101.55  -19.20  -10.25  -10.21   -9.49   -7.25   -7.24   -7.24
  1 A'    2 A'    3 A'    4 A'    5 A'    6 A'    7 A'    1 A"                 
 -1.100  -0.847  -0.753  -0.555  -0.490  -0.467  -0.460  -0.420
  8 A'    9 A'   10 A'   11 A'   12 A'   13 A'    2 A"   14 A'                 
 -0.399  -0.335  -0.334
  3 A"    4 A"   15 A'                                                         
 -- Virtual --                   
 -0.227  -0.013  -0.006   0.016   0.027   0.032   0.035   0.068
 16 A'   17 A'    5 A"   18 A'   19 A'    6 A"   20 A'   21 A'                 
  0.075   0.080   0.086   0.088   0.113   0.120   0.123   0.132
 22 A'   23 A'    7 A"    8 A"   24 A'   25 A'    9 A"   26 A'                 
  0.144   0.156   0.165   0.203   0.219   0.245   0.250   0.277
 27 A'   28 A'   10 A"   29 A'   30 A'   31 A'   11 A"   32 A'                 
  0.279   0.282   0.302   0.328   0.345   0.349   0.423   0.425
 12 A"   33 A'   34 A'   35 A'   13 A"   36 A'   37 A'   14 A"                 
  0.437   0.460   0.476   0.485   0.510   0.537   0.552   0.566
 38 A'   39 A'   40 A'   15 A"   41 A'   16 A"   42 A'   17 A"                 
  0.583   0.627   0.637   0.651   0.713   0.746   0.765   0.812
 43 A'   44 A'   45 A'   18 A"   46 A'   47 A'   48 A'   19 A"                 
  0.821   0.861   0.917   0.946   1.000   1.040   1.044   1.056
 49 A'   20 A"   50 A'   21 A"   51 A'   22 A"   52 A'   53 A'                 
  1.061   1.067   1.070   1.100   1.101   1.123   1.126   1.148
 23 A"   24 A"   54 A'   25 A"   55 A'   56 A'   57 A'   58 A'                 
  1.153   1.212   1.213   1.259   1.292   1.296   1.337   1.362
 26 A"   59 A'   27 A"   60 A'   28 A"   61 A'   62 A'   29 A"                 
  1.378   1.406   1.437   1.473   1.512   1.531   1.568   1.621
 63 A'   30 A"   64 A'   31 A"   65 A'   66 A'   67 A'   68 A'                 
  1.632   1.768   1.783   1.842   2.014   2.148   2.159   2.312
 69 A'   70 A'   32 A"   71 A'   33 A"   34 A"   72 A'   73 A'                 
  2.409   2.453   2.522   2.571   2.658   2.725   2.793   2.799
 74 A'   75 A'   35 A"   76 A'   77 A'   36 A"   37 A"   78 A'                 
  2.898   2.930   3.002   3.056   3.057   3.104   3.160   3.172
 38 A"   79 A'   80 A'   39 A"   81 A'   40 A"   82 A'   83 A'                 
  3.184   3.229   3.287   3.369   3.411   3.441   3.478   3.525
 41 A"   84 A'   85 A'   42 A"   86 A'   43 A"   44 A"   87 A'                 
  3.584   3.604   3.681   3.784   3.819   3.890   3.932   4.067
 45 A"   88 A'   89 A'   90 A'   46 A"   91 A'   92 A'   47 A"                 
  4.083   4.148   4.186   4.236   4.331   4.339   4.351   4.388
 93 A'   94 A'   48 A"   95 A'   49 A"   96 A'   50 A"   97 A'                 
  4.408   4.425   4.464   4.475   4.488   4.526   4.584   4.675
 51 A"   98 A'   52 A"   99 A'   53 A"  100 A'  101 A'  102 A'                 
  4.973   4.991   5.007   5.022   5.037   5.090   5.092   5.162
 54 A"   55 A"  103 A'   56 A"  104 A'  105 A'   57 A"  106 A'                 
  5.176   5.434   5.465   5.550   5.601   5.616   5.744   6.323
107 A'  108 A'   58 A"  109 A'  110 A'   59 A"  111 A'   60 A"                 
  6.565   6.805   6.839   6.966   7.202   7.372   7.583   9.776
112 A'   61 A"  113 A'  114 A'   62 A"  115 A'  116 A'  117 A'                 
 20.595  20.636  20.872  24.211  24.528  27.168  27.180  27.189
 63 A"  118 A'  119 A'  120 A'  121 A'   64 A"  122 A'   65 A"                 
 27.233  27.246  27.365  27.730  28.088  28.089  28.141  28.490
123 A'  124 A'   66 A"  125 A'   67 A"  126 A'  127 A'  128 A'                 
 36.888  36.889  36.892  36.895  36.897  36.904  36.907  41.012
 68 A"  129 A'   69 A"  130 A'   70 A"  131 A'  132 A'   71 A"                 
 41.028  41.065  41.082  41.091  41.111  41.149  41.154  41.216
133 A'   72 A"  134 A'   73 A"  135 A'   74 A"  136 A'  137 A'                 
 41.251  43.690  43.696  43.795  43.862  43.943  45.790  45.903
138 A'   75 A"  139 A'   76 A"  140 A'  141 A'   77 A"  142 A'                 
 46.625  50.180 216.336
143 A'  144 A'  145 A'                                                         
 --------------------------------------------------------------
 
          Ground-State Mulliken Net Atomic Charges

     Atom                 Charge (a.u.)    Spin (a.u.)
  --------------------------------------------------------
      1 C                     0.202685       0.680999
      2 C                    -0.284170       0.054058
      3 Cl                   -0.185555       0.271029
      4 O                    -0.107615       0.913829
      5 H                     0.117936      -0.006248
      6 H                     0.128359       0.043167
      7 H                     0.128359       0.043167
  --------------------------------------------------------
  Sum of atomic charges =     0.000000
  Sum of spin   charges =     2.000000

 -----------------------------------------------------------------
                    Cartesian Multipole Moments
 -----------------------------------------------------------------
    Charge (ESU x 10^10)
                 0.0000
    Dipole Moment (Debye)
         X       1.1590      Y       1.5260      Z       0.0000
       Tot       1.9162
    Quadrupole Moments (Debye-Ang)
        XX     -28.6802     XY       1.6055     YY     -31.6263
        XZ       0.0000     YZ       0.0000     ZZ     -31.1821
    Octapole Moments (Debye-Ang^2)
       XXX       0.0483    XXY       1.1373    XYY      -1.8349
       YYY      -0.7140    XXZ       0.0000    XYZ       0.0000
       YYZ       0.0000    XZZ      -0.1108    YZZ      -0.7154
       ZZZ       0.0000
    Hexadecapole Moments (Debye-Ang^3)
      XXXX    -258.4549   XXXY      -7.6877   XXYY     -74.7570
      XYYY      -1.1506   YYYY    -158.6486   XXXZ       0.0000
      XXYZ       0.0000   XYYZ       0.0000   YYYZ       0.0000
      XXZZ     -56.0793   XYZZ      -1.0809   YYZZ     -31.9438
      XZZZ       0.0000   YZZZ       0.0000   ZZZZ     -41.3051
 -----------------------------------------------------------------
 Total job time:  563.13s(wall), 559.45s(cpu) 
 Mon Jun  3 15:08:58 2013

        *************************************************************
        *                                                           *
        *  Thank you very much for using Q-Chem.  Have a nice day.  *
        *                                                           *
        *************************************************************


0 sent ACK to 0 
now end server 0 ... 
