Process 0 of 1 is on cl135 - thread support 1
initial socket setup ...start
initial socket setup ...done 
now start server 0 ... 

cmd = /usr/bin/ssh clhead /usr/local/qchem/bin/get_hostid 933888942 > /tmp/1602386.1.medium.q/qchem30284/lic.dat

cmd = /usr/bin/ssh clhead /usr/local/qchem/bin/get_hostid 933888942 > /tmp/1602386.1.medium.q/qchem30284/lic.dat

cmd = /usr/bin/ssh clhead /usr/local/qchem/bin/get_hostid 933888942 > /tmp/1602386.1.medium.q/qchem30284/lic.dat

cmd = /usr/bin/ssh clhead /usr/local/qchem/bin/get_hostid 933888942 > /tmp/1602386.1.medium.q/qchem30284/lic.dat

cmd = /usr/bin/ssh clhead /usr/local/qchem/bin/get_hostid 933888942 > /tmp/1602386.1.medium.q/qchem30284/lic.dat
                  Welcome to Q-Chem
     A Quantum Leap Into The Future Of Chemistry

 Y. Shao, L. Fusti-Molnar, Y. Jung, J. Kussmann, C. Ochsenfeld,
 S. T. Brown, A. T. B. Gilbert, L. V. Slipchenko,S. V. Levchenko,
 D. P. O'Neill, R. A. DiStasio Jr., R. C. Lochan, T. Wang,
 G. J. O. Beran, N. A. Besley, J. M. Herbert, C. Y. Lin,
 T. Van Voorhis, S. H. Chien, A. Sodt, R. P. Steele, 
 V. A. Rassolov, P. E. Maslen, P. P. Korambath, R. D. Adamson,
 B. Austin, J. Baker, E. F. C. Byrd, H. Dachsel, R. J. Doerksen,
 A. Dreuw, B. D. Dunietz, A. D. Dutoi, T. R. Furlani,
 S. R. Gwaltney, A. Heyden, S. Hirata, C.-P. Hsu, G. Kedziora,
 R. Z. Khaliullin, P. Klunzinger, A. M. Lee, M. S. Lee, W. Liang,
 I. Lotan, N. Nair, B. Peters, E. I. Proynov, P. A. Pieniazek, 
 Y. M. Rhee, J. Ritchie, E. Rosta, C. D. Sherrill, 
 A. C. Simmonett, J. E. Subotnik, H. L. Woodcock III,
 W. Zhang, A. T. Bell, A. K. Chakraborty, D. M. Chipman,
 F. J. Keil, A. Warshel, W. J. Hehre, H. F. Schaefer III,
 J. Kong, A. I. Krylov, P. M. W. Gill, M. Head-Gordon,
 Q-Chem, Version 3.1, Q-Chem, Inc., Pittsburgh, PA (2007).

 Additional authors for Version 3.1: 
 Z. Gan, Y. Zhao, N. E. Schultz, D. Truhlar, E. Epifanovsky and M. Oana.

 Additional authors for Version 3.2: 
 R. Baer, B. R. Brooks, D. Casanova, J.-D. Chai, C.-L. Cheng, 
 C. Cramer, D. Crittenden, A. Ghysels, G. Hawkins, E. G. Hohenstein, 
 C. Kelley, W. Kurlancheek, D. Liotard, E. Livshits, P. Manohar, 
 A. Marenich, D. Neuhauser, R. Olson, M. A. Rohrdanz, K. S. Thanthiriwatte, 
 A. J. W. Thom, V. Vanovschi, C. F. Williams, Q. Wu and Z.-Q. You. 


 Intel X86 Linux Version

 Q-chem begins on Sun Mar 23 19:29:03 2014  

 Parallel job on  1  processors
Processing $rem in /usr/local/qchem/config/preferences.

theFileMan(): MAXOPENFILES=974 MAX_SUB_FILE_NUM=16
Maximum size of a physical file is 2.0 GB, maximum size of a tmp-file is 32.0 GB


--------------------------------------------------------------
User input:
--------------------------------------------------------------

$molecule
-1,1
C         -0.00017        0.00000       -0.00233
C          0.00868        0.00000        1.30341
H          0.93029        0.00000       -0.58611
H         -0.92923        0.00000       -0.57859
H          0.72813        0.00000        2.11653
$end

$comment
negative
$end

$xc_functional
C PBE   1.00
X wPBE  1.00
$end

$rem
SYMMETRY_DECOMPOSITION	0
exchange 		general
LRC_DFT                 true
BASIS                   g3large
omega			160
mem_static              760
max_scf_cycles          200
scf_final_print         1
sym_ignore              true
$end

--------------------------------------------------------------
 Writing REM_CC_EA            5
 ----------------------------------------------------
       Standard Nuclear Orientation (Angstroms)
    I     Atom         X            Y            Z
 ----------------------------------------------------
    1      C      -0.000170     0.000000    -0.002330
    2      C       0.008680     0.000000     1.303410
    3      H       0.930290     0.000000    -0.586110
    4      H      -0.929230     0.000000    -0.578590
    5      H       0.728130     0.000000     2.116530
 ----------------------------------------------------
 Nuclear Repulsion Energy =    28.3929478384 hartrees
 There are        8 alpha and        8 beta electrons
 Requested basis set is G3large
 There are 38 shells and 114 basis functions

Total QAlloc Memory Limit   2000 MB
Mega-Array Size       743 MB
MEM_STATIC part       760 MB

                       Distance Matrix (Angstroms)
             C (  1)   C (  2)   H (  3)   H (  4)
   C (  2)  1.305770
   H (  3)  1.098433  2.102297
   H (  4)  1.093265  2.102760  1.859535
   H (  5)  2.240533  1.085713  2.710190  3.163940
 
 A cutoff of  1.0D-08 yielded    732 shell pairs
 There are   6640 function pairs (  8147 Cartesian)
Evaluating contribution to one-electron hamiltonian from nuclear
 Smallest overlap matrix eigenvalue = 1.16E-04
 Multipole matrices computed through 2nd order

  Scale SEOQF with 1.000000e-01/1.000000e-01/1.000000e-01

 Standard Electronic Orientation quadrupole field applied
 Nucleus-field energy     =    -0.0000000016 hartrees
 Guess from superposition of atomic densities
 Warning:  Energy on first SCF cycle will be non-variational
 Long-range K will be added via erf
 Coulomb attenuation parameter = 0.16 bohr**(-1)
 A restricted Kohn-Sham SCF calculation will be
 performed using Pulay DIIS extrapolation
 Exchange:  wPBE + LR-HF      Correlation:  PBE
 Using SG-1 standard quadrature grid
 SCF converges when DIIS error is below 1.0E-05
 Requested basis set is G3large
 There are 38 shells and 114 basis functions
 A cutoff of  1.0D-08 yielded    732 shell pairs
 There are   6640 function pairs (  8147 Cartesian)
 Warning!  Inaccurate integrated density:
   Number of electrons =    16
   Numerical integral  =    14.999949395692
   Relative error      =    -6.2503162769 %
 ---------------------------------------
  Cycle       Energy         DIIS Error
 ---------------------------------------
    1     -78.0007938680      3.64E-02
    2     -77.6358578766      9.66E-03
    3     -76.8968179808      1.66E-02
    4     -77.7788098024      5.10E-03
    5     -77.8249907904      1.98E-03
    6     -77.8357222307      2.99E-04
    7     -77.8360636465      1.58E-04
    8     -77.8361225654      8.31E-05
    9     -77.8361393281      2.57E-05
   10     -77.8361415193      5.96E-06 Convergence criterion met
 ---------------------------------------
 One-Electron    Energy =  -163.5241726802
 Total Coulomb   Energy =    69.2775571286
 Alpha Exchange  Energy =    -0.6947665935
 Beta  Exchange  Energy =    -0.6947665935
 DFT   Exchange  Energy =   -10.1080248992
 DFT Correlation Energy =    -0.4849157185
 Nuclear Repu.   Energy =    28.3929478369
 Nuclear Attr.   Energy =  -241.1669047520
 Kinetic         Energy =    77.6427320719
 SCF time:  CPU 26.52 s  wall 28.84 s
 Final Alpha MO Eigenvalues
            1           2           3           4           5           6
    1  -9.7384076  -9.7036412  -0.5291083  -0.3521171  -0.2507658  -0.2205410
            7           8           9          10          11          12
    1  -0.0930027   0.0238526   0.1706372   0.1777082   0.1827543   0.2462294
           13
    1   0.2682560
 Analysis of SCF Wavefunction
 
 --------------------------------------------------------------
                    Orbital Energies (a.u.)
 --------------------------------------------------------------
 
 Alpha MOs
 -- Occupied --
 -9.738  -9.704  -0.529  -0.352  -0.251  -0.221  -0.093   0.024
 -- Virtual --
  0.171   0.178   0.183   0.246   0.268   0.270   0.287   0.326
  0.326   0.343   0.345   0.354   0.384   0.406   0.500   0.600
  0.686   0.712   0.738   0.772   0.783   0.809   0.848   0.856
  0.867   0.897   0.915   0.928   1.001   1.007   1.050   1.157
  1.194   1.226   1.300   1.360   1.417   1.453   1.568   1.594
  1.633   1.664   1.713   1.741   1.776   1.953   2.654   2.700
  2.865   2.892   2.897   2.920   2.984   3.001   3.046   3.103
  3.115   3.183   3.294   3.311   3.355   3.370   3.418   3.452
  3.455   3.532   3.546   3.598   3.636   3.717   3.832   3.928
  3.928   3.984   4.135   4.334   4.350   4.398   4.528   4.642
  4.682   4.827   5.020   5.336   5.467   5.609   5.760   6.352
 23.855  24.833  27.345  27.542  27.697  28.240  28.392  28.518
 40.953  41.017  41.054  41.249  41.251  41.291  41.366  41.396
 41.436  41.459
 --------------------------------------------------------------
 
          Ground-State Mulliken Net Atomic Charges

     Atom                 Charge (a.u.)
  ----------------------------------------
      1 C                    -0.721701
      2 C                    -0.206412
      3 H                    -0.172894
      4 H                     0.052503
      5 H                     0.048504
  ----------------------------------------
  Sum of atomic charges =    -1.000000

 -----------------------------------------------------------------
                    Cartesian Multipole Moments
 -----------------------------------------------------------------
    Charge (ESU x 10^10)
                -4.8032
    Dipole Moment (Debye)
         X       1.6730      Y       0.0007      Z      -5.1289
       Tot       5.3949
    Quadrupole Moments (Debye-Ang)
        XX     -22.1118     XY      -0.0028     YY     -20.2350
        XZ       6.1733     YZ       0.0037     ZZ     -28.9928
    Octapole Moments (Debye-Ang^2)
       XXX       2.0319    XXY       0.0008    XYY       1.2105
       YYY       0.0033    XXZ     -18.2843    XYZ      -0.0041
       YYZ     -13.7256    XZZ      10.3751    YZZ       0.0073
       ZZZ     -55.2745
    Hexadecapole Moments (Debye-Ang^3)
      XXXX     -74.6392   XXXY      -0.0107   XXYY     -19.6882
      XYYY      -0.0103   YYYY     -42.9212   XXXZ      18.4914
      XXYZ       0.0058   XYYZ       6.0286   YYYZ       0.0183
      XXZZ     -57.2291   XYZZ      -0.0145   YYZZ     -39.5379
      XZZZ      37.8477   YZZZ       0.0311   ZZZZ    -217.6431
 -----------------------------------------------------------------
 Total job time:  29.03s(wall), 26.63s(cpu) 
 Sun Mar 23 19:29:32 2014

        *************************************************************
        *                                                           *
        *  Thank you very much for using Q-Chem.  Have a nice day.  *
        *                                                           *
        *************************************************************


0 sent ACK to 0 
now end server 0 ... 
 
**********************************************************************
Job 2 of 3 
**********************************************************************
 
Process 0 of 1 is on cl135 - thread support 1
initial socket setup ...start
initial socket setup ...done 
now start server 0 ... 

cmd = /usr/bin/ssh clhead /usr/local/qchem/bin/get_hostid 252724810 > /tmp/1602386.1.medium.q/qchem30284/lic.dat

cmd = /usr/bin/ssh clhead /usr/local/qchem/bin/get_hostid 252724810 > /tmp/1602386.1.medium.q/qchem30284/lic.dat

cmd = /usr/bin/ssh clhead /usr/local/qchem/bin/get_hostid 252724810 > /tmp/1602386.1.medium.q/qchem30284/lic.dat

cmd = /usr/bin/ssh clhead /usr/local/qchem/bin/get_hostid 252724810 > /tmp/1602386.1.medium.q/qchem30284/lic.dat

cmd = /usr/bin/ssh clhead /usr/local/qchem/bin/get_hostid 252724810 > /tmp/1602386.1.medium.q/qchem30284/lic.dat
                  Welcome to Q-Chem
     A Quantum Leap Into The Future Of Chemistry

 Y. Shao, L. Fusti-Molnar, Y. Jung, J. Kussmann, C. Ochsenfeld,
 S. T. Brown, A. T. B. Gilbert, L. V. Slipchenko,S. V. Levchenko,
 D. P. O'Neill, R. A. DiStasio Jr., R. C. Lochan, T. Wang,
 G. J. O. Beran, N. A. Besley, J. M. Herbert, C. Y. Lin,
 T. Van Voorhis, S. H. Chien, A. Sodt, R. P. Steele, 
 V. A. Rassolov, P. E. Maslen, P. P. Korambath, R. D. Adamson,
 B. Austin, J. Baker, E. F. C. Byrd, H. Dachsel, R. J. Doerksen,
 A. Dreuw, B. D. Dunietz, A. D. Dutoi, T. R. Furlani,
 S. R. Gwaltney, A. Heyden, S. Hirata, C.-P. Hsu, G. Kedziora,
 R. Z. Khaliullin, P. Klunzinger, A. M. Lee, M. S. Lee, W. Liang,
 I. Lotan, N. Nair, B. Peters, E. I. Proynov, P. A. Pieniazek, 
 Y. M. Rhee, J. Ritchie, E. Rosta, C. D. Sherrill, 
 A. C. Simmonett, J. E. Subotnik, H. L. Woodcock III,
 W. Zhang, A. T. Bell, A. K. Chakraborty, D. M. Chipman,
 F. J. Keil, A. Warshel, W. J. Hehre, H. F. Schaefer III,
 J. Kong, A. I. Krylov, P. M. W. Gill, M. Head-Gordon,
 Q-Chem, Version 3.1, Q-Chem, Inc., Pittsburgh, PA (2007).

 Additional authors for Version 3.1: 
 Z. Gan, Y. Zhao, N. E. Schultz, D. Truhlar, E. Epifanovsky and M. Oana.

 Additional authors for Version 3.2: 
 R. Baer, B. R. Brooks, D. Casanova, J.-D. Chai, C.-L. Cheng, 
 C. Cramer, D. Crittenden, A. Ghysels, G. Hawkins, E. G. Hohenstein, 
 C. Kelley, W. Kurlancheek, D. Liotard, E. Livshits, P. Manohar, 
 A. Marenich, D. Neuhauser, R. Olson, M. A. Rohrdanz, K. S. Thanthiriwatte, 
 A. J. W. Thom, V. Vanovschi, C. F. Williams, Q. Wu and Z.-Q. You. 


 Intel X86 Linux Version

 Q-chem begins on Sun Mar 23 19:29:37 2014  

 Parallel job on  1  processors
Processing $rem in /usr/local/qchem/config/preferences.

theFileMan(): MAXOPENFILES=974 MAX_SUB_FILE_NUM=16
Maximum size of a physical file is 2.0 GB, maximum size of a tmp-file is 32.0 GB


--------------------------------------------------------------
User input:
--------------------------------------------------------------

$molecule
0,2
C         -0.00017        0.00000       -0.00233
C          0.00868        0.00000        1.30341
H          0.93029        0.00000       -0.58611
H         -0.92923        0.00000       -0.57859
H          0.72813        0.00000        2.11653
$end

$comment
neutral
$end

$xc_functional
C PBE   1.00
X wPBE  1.00
$end


$rem
SYMMETRY_DECOMPOSITION	0
LRC_DFT                 true
exchange 		general
BASIS                   g3large
omega			160
mem_static              760
max_scf_cycles          200
scf_final_print         1
sym_ignore              true
$end

--------------------------------------------------------------
 Writing REM_CC_EA            5
 ----------------------------------------------------
       Standard Nuclear Orientation (Angstroms)
    I     Atom         X            Y            Z
 ----------------------------------------------------
    1      C      -0.000170     0.000000    -0.002330
    2      C       0.008680     0.000000     1.303410
    3      H       0.930290     0.000000    -0.586110
    4      H      -0.929230     0.000000    -0.578590
    5      H       0.728130     0.000000     2.116530
 ----------------------------------------------------
 Nuclear Repulsion Energy =    28.3929478384 hartrees
 There are        8 alpha and        7 beta electrons
 Requested basis set is G3large
 There are 38 shells and 114 basis functions

Total QAlloc Memory Limit   2000 MB
Mega-Array Size       743 MB
MEM_STATIC part       760 MB

                       Distance Matrix (Angstroms)
             C (  1)   C (  2)   H (  3)   H (  4)
   C (  2)  1.305770
   H (  3)  1.098433  2.102297
   H (  4)  1.093265  2.102760  1.859535
   H (  5)  2.240533  1.085713  2.710190  3.163940
 
 A cutoff of  1.0D-08 yielded    732 shell pairs
 There are   6640 function pairs (  8147 Cartesian)
Evaluating contribution to one-electron hamiltonian from nuclear
 Smallest overlap matrix eigenvalue = 1.16E-04
 Multipole matrices computed through 2nd order

  Scale SEOQF with 1.000000e-01/1.000000e-01/1.000000e-01

 Standard Electronic Orientation quadrupole field applied
 Nucleus-field energy     =    -0.0000000016 hartrees
 Guess from superposition of atomic densities
 Warning:  Energy on first SCF cycle will be non-variational
 Long-range K will be added via erf
 Coulomb attenuation parameter = 0.16 bohr**(-1)
 An unrestricted Kohn-Sham SCF calculation will be
 performed using Pulay DIIS extrapolation
 Exchange:  wPBE + LR-HF      Correlation:  PBE
 Using SG-1 standard quadrature grid
 SCF converges when DIIS error is below 1.0E-05
 Requested basis set is G3large
 There are 38 shells and 114 basis functions
 A cutoff of  1.0D-08 yielded    732 shell pairs
 There are   6640 function pairs (  8147 Cartesian)
 ---------------------------------------
  Cycle       Energy         DIIS Error
 ---------------------------------------
    1     -78.0007938680      3.64E-02
    2     -77.7844612893      4.86E-03
    3     -77.8022658853      4.10E-03
    4     -77.8306057351      5.16E-04
    5     -77.8312599029      3.72E-04
    6     -77.8317343475      5.60E-05
    7     -77.8318559043      1.71E-05
    8     -77.8318824182      6.80E-06 Convergence criterion met
 ---------------------------------------
 One-Electron    Energy =  -159.6929122388
 Total Coulomb   Energy =    65.2491086716
 Alpha Exchange  Energy =    -0.7005859391
 Beta  Exchange  Energy =    -0.6135534873
 DFT   Exchange  Energy =   -10.0118967623
 DFT Correlation Energy =    -0.4549904991
 Nuclear Repu.   Energy =    28.3929478369
 Nuclear Attr.   Energy =  -237.2029762015
 Kinetic         Energy =    77.5100639627
 <S^2> = 0.7581
 SCF time:  CPU 24.99 s  wall 26.87 s
 Final Alpha MO Eigenvalues
            1           2           3           4           5           6
    1 -10.0014841  -9.9804027  -0.7919633  -0.6111364  -0.5043951  -0.4733070
            7           8           9          10          11          12
    1  -0.3443734  -0.2840508   0.0335782   0.0366581   0.0497591   0.0588330
           13
    1   0.1085337
 Final Beta MO Eigenvalues
            1           2           3           4           5           6
    1  -9.9875131  -9.9816015  -0.7772642  -0.5923694  -0.4910768  -0.4605469
            7           8           9          10          11          12
    1  -0.3360977  -0.0355404   0.0388446   0.0441115   0.0514790   0.0612645
 Analysis of SCF Wavefunction
 
 --------------------------------------------------------------
                    Orbital Energies (a.u.)
 --------------------------------------------------------------
 
 Alpha MOs
 -- Occupied --
-10.001  -9.980  -0.792  -0.611  -0.504  -0.473  -0.344  -0.284
 -- Virtual --
  0.034   0.037   0.050   0.059   0.109   0.121   0.126   0.159
  0.160   0.167   0.186   0.193   0.200   0.213   0.314   0.386
  0.473   0.491   0.528   0.541   0.561   0.584   0.625   0.626
  0.650   0.674   0.680   0.700   0.755   0.768   0.813   0.939
  0.962   1.009   1.073   1.122   1.183   1.218   1.336   1.358
  1.392   1.436   1.481   1.508   1.548   1.700   2.405   2.459
  2.601   2.636   2.644   2.664   2.718   2.728   2.762   2.833
  2.853   2.908   3.043   3.045   3.106   3.109   3.148   3.158
  3.194   3.274   3.276   3.316   3.363   3.449   3.569   3.657
  3.671   3.721   3.880   4.087   4.100   4.155   4.265   4.388
  4.420   4.560   4.755   5.073   5.202   5.347   5.517   6.082
 23.581  24.567  27.076  27.276  27.386  27.998  28.148  28.225
 40.683  40.713  40.811  40.970  40.986  41.024  41.084  41.127
 41.165  41.194
 
 Beta MOs
 -- Occupied --
 -9.988  -9.982  -0.777  -0.592  -0.491  -0.461  -0.336
 -- Virtual --
 -0.036   0.039   0.044   0.051   0.061   0.110   0.125   0.136
  0.162   0.162   0.172   0.188   0.197   0.207   0.222   0.324
  0.397   0.484   0.507   0.534   0.551   0.567   0.607   0.633
  0.651   0.663   0.686   0.688   0.718   0.780   0.786   0.837
  0.948   0.975   1.014   1.079   1.143   1.199   1.230   1.350
  1.371   1.420   1.448   1.491   1.521   1.560   1.729   2.416
  2.471   2.632   2.647   2.655   2.674   2.736   2.760   2.807
  2.858   2.864   2.948   3.052   3.062   3.115   3.132   3.181
  3.213   3.215   3.296   3.305   3.356   3.397   3.481   3.588
  3.679   3.684   3.743   3.900   4.104   4.113   4.164   4.284
  4.400   4.441   4.583   4.765   5.096   5.216   5.369   5.529
  6.103  23.591  24.574  27.081  27.279  27.423  27.997  28.148
 28.234  40.691  40.740  40.809  40.987  40.993  41.027  41.101
 41.130  41.174  41.200
 --------------------------------------------------------------
 
          Ground-State Mulliken Net Atomic Charges

     Atom                 Charge (a.u.)    Spin (a.u.)
  --------------------------------------------------------
      1 C                    -0.235292      -0.091522
      2 C                    -0.075576       0.951482
      3 H                     0.085157       0.085024
      4 H                     0.109042       0.035608
      5 H                     0.116669       0.019407
  --------------------------------------------------------
  Sum of atomic charges =     0.000000
  Sum of spin   charges =     1.000000

 -----------------------------------------------------------------
                    Cartesian Multipole Moments
 -----------------------------------------------------------------
    Charge (ESU x 10^10)
                 0.0000
    Dipole Moment (Debye)
         X       0.6403      Y       0.0004      Z      -0.3637
       Tot       0.7363
    Quadrupole Moments (Debye-Ang)
        XX     -12.4621     XY       0.0001     YY     -14.9607
        XZ       1.6187     YZ       0.0002     ZZ     -11.8998
    Octapole Moments (Debye-Ang^2)
       XXX      -0.9488    XXY       0.0004    XYY      -0.4449
       YYY       0.0020    XXZ      -8.7418    XYZ      -0.0021
       YYZ      -9.0259    XZZ       3.1615    YZZ       0.0012
       ZZZ     -20.6621
    Hexadecapole Moments (Debye-Ang^3)
      XXXX     -24.6272   XXXY       0.0002   XXYY      -7.8003
      XYYY      -0.0004   YYYY     -19.3582   XXXZ      -1.4717
      XXYZ       0.0000   XYYZ      -0.8272   YYYZ       0.0009
      XXZZ     -19.0241   XYZZ       0.0002   YYZZ     -20.3801
      XZZZ       5.7340   YZZZ       0.0006   ZZZZ     -86.9808
 -----------------------------------------------------------------
 Total job time:  27.02s(wall), 25.10s(cpu) 
 Sun Mar 23 19:30:04 2014

        *************************************************************
        *                                                           *
        *  Thank you very much for using Q-Chem.  Have a nice day.  *
        *                                                           *
        *************************************************************


0 sent ACK to 0 
now end server 0 ... 
 
**********************************************************************
Job 3 of 3 
**********************************************************************
 
Process 0 of 1 is on cl135 - thread support 1
initial socket setup ...start
initial socket setup ...done 
now start server 0 ... 

cmd = /usr/bin/ssh clhead /usr/local/qchem/bin/get_hostid 1549596446 > /tmp/1602386.1.medium.q/qchem30284/lic.dat

cmd = /usr/bin/ssh clhead /usr/local/qchem/bin/get_hostid 1549596446 > /tmp/1602386.1.medium.q/qchem30284/lic.dat

cmd = /usr/bin/ssh clhead /usr/local/qchem/bin/get_hostid 1549596446 > /tmp/1602386.1.medium.q/qchem30284/lic.dat

cmd = /usr/bin/ssh clhead /usr/local/qchem/bin/get_hostid 1549596446 > /tmp/1602386.1.medium.q/qchem30284/lic.dat

cmd = /usr/bin/ssh clhead /usr/local/qchem/bin/get_hostid 1549596446 > /tmp/1602386.1.medium.q/qchem30284/lic.dat
                  Welcome to Q-Chem
     A Quantum Leap Into The Future Of Chemistry

 Y. Shao, L. Fusti-Molnar, Y. Jung, J. Kussmann, C. Ochsenfeld,
 S. T. Brown, A. T. B. Gilbert, L. V. Slipchenko,S. V. Levchenko,
 D. P. O'Neill, R. A. DiStasio Jr., R. C. Lochan, T. Wang,
 G. J. O. Beran, N. A. Besley, J. M. Herbert, C. Y. Lin,
 T. Van Voorhis, S. H. Chien, A. Sodt, R. P. Steele, 
 V. A. Rassolov, P. E. Maslen, P. P. Korambath, R. D. Adamson,
 B. Austin, J. Baker, E. F. C. Byrd, H. Dachsel, R. J. Doerksen,
 A. Dreuw, B. D. Dunietz, A. D. Dutoi, T. R. Furlani,
 S. R. Gwaltney, A. Heyden, S. Hirata, C.-P. Hsu, G. Kedziora,
 R. Z. Khaliullin, P. Klunzinger, A. M. Lee, M. S. Lee, W. Liang,
 I. Lotan, N. Nair, B. Peters, E. I. Proynov, P. A. Pieniazek, 
 Y. M. Rhee, J. Ritchie, E. Rosta, C. D. Sherrill, 
 A. C. Simmonett, J. E. Subotnik, H. L. Woodcock III,
 W. Zhang, A. T. Bell, A. K. Chakraborty, D. M. Chipman,
 F. J. Keil, A. Warshel, W. J. Hehre, H. F. Schaefer III,
 J. Kong, A. I. Krylov, P. M. W. Gill, M. Head-Gordon,
 Q-Chem, Version 3.1, Q-Chem, Inc., Pittsburgh, PA (2007).

 Additional authors for Version 3.1: 
 Z. Gan, Y. Zhao, N. E. Schultz, D. Truhlar, E. Epifanovsky and M. Oana.

 Additional authors for Version 3.2: 
 R. Baer, B. R. Brooks, D. Casanova, J.-D. Chai, C.-L. Cheng, 
 C. Cramer, D. Crittenden, A. Ghysels, G. Hawkins, E. G. Hohenstein, 
 C. Kelley, W. Kurlancheek, D. Liotard, E. Livshits, P. Manohar, 
 A. Marenich, D. Neuhauser, R. Olson, M. A. Rohrdanz, K. S. Thanthiriwatte, 
 A. J. W. Thom, V. Vanovschi, C. F. Williams, Q. Wu and Z.-Q. You. 


 Intel X86 Linux Version

 Q-chem begins on Sun Mar 23 19:30:09 2014  

 Parallel job on  1  processors
Processing $rem in /usr/local/qchem/config/preferences.

theFileMan(): MAXOPENFILES=974 MAX_SUB_FILE_NUM=16
Maximum size of a physical file is 2.0 GB, maximum size of a tmp-file is 32.0 GB


--------------------------------------------------------------
User input:
--------------------------------------------------------------

$molecule
1,1
C         -0.00017        0.00000       -0.00233
C          0.00868        0.00000        1.30341
H          0.93029        0.00000       -0.58611
H         -0.92923        0.00000       -0.57859
H          0.72813        0.00000        2.11653
$end

$comment
positive
$end

$xc_functional
C PBE   1.00
X wPBE  1.00
$end

$rem
SYMMETRY_DECOMPOSITION	0
LRC_DFT                 true
exchange 		general
BASIS                   g3large
omega			160
mem_static              760
max_scf_cycles          200
scf_final_print         1
sym_ignore              true
$end

--------------------------------------------------------------
 Writing REM_CC_EA            5
 ----------------------------------------------------
       Standard Nuclear Orientation (Angstroms)
    I     Atom         X            Y            Z
 ----------------------------------------------------
    1      C      -0.000170     0.000000    -0.002330
    2      C       0.008680     0.000000     1.303410
    3      H       0.930290     0.000000    -0.586110
    4      H      -0.929230     0.000000    -0.578590
    5      H       0.728130     0.000000     2.116530
 ----------------------------------------------------
 Nuclear Repulsion Energy =    28.3929478384 hartrees
 There are        7 alpha and        7 beta electrons
 Requested basis set is G3large
 There are 38 shells and 114 basis functions

Total QAlloc Memory Limit   2000 MB
Mega-Array Size       743 MB
MEM_STATIC part       760 MB

                       Distance Matrix (Angstroms)
             C (  1)   C (  2)   H (  3)   H (  4)
   C (  2)  1.305770
   H (  3)  1.098433  2.102297
   H (  4)  1.093265  2.102760  1.859535
   H (  5)  2.240533  1.085713  2.710190  3.163940
 
 A cutoff of  1.0D-08 yielded    732 shell pairs
 There are   6640 function pairs (  8147 Cartesian)
Evaluating contribution to one-electron hamiltonian from nuclear
 Smallest overlap matrix eigenvalue = 1.16E-04
 Multipole matrices computed through 2nd order

  Scale SEOQF with 1.000000e-01/1.000000e-01/1.000000e-01

 Standard Electronic Orientation quadrupole field applied
 Nucleus-field energy     =    -0.0000000016 hartrees
 Guess from superposition of atomic densities
 Warning:  Energy on first SCF cycle will be non-variational
 Long-range K will be added via erf
 Coulomb attenuation parameter = 0.16 bohr**(-1)
 A restricted Kohn-Sham SCF calculation will be
 performed using Pulay DIIS extrapolation
 Exchange:  wPBE + LR-HF      Correlation:  PBE
 Using SG-1 standard quadrature grid
 SCF converges when DIIS error is below 1.0E-05
 Requested basis set is G3large
 There are 38 shells and 114 basis functions
 A cutoff of  1.0D-08 yielded    732 shell pairs
 There are   6640 function pairs (  8147 Cartesian)
 Warning!  Inaccurate integrated density:
   Number of electrons =    14
   Numerical integral  =    14.999949395692
   Relative error      =     7.1424956835 %
 ---------------------------------------
  Cycle       Energy         DIIS Error
 ---------------------------------------
    1     -78.0007938680      3.64E-02
    2     -77.4376167800      4.79E-03
    3     -77.3738584914      8.11E-03
    4     -77.4789089147      5.48E-04
    5     -77.4798475985      2.13E-04
    6     -77.4801526427      8.38E-05
    7     -77.4802771883      4.25E-05
    8     -77.4803313492      7.34E-06 Convergence criterion met
 ---------------------------------------
 One-Electron    Energy =  -154.8947398359
 Total Coulomb   Energy =    60.4556664046
 Alpha Exchange  Energy =    -0.6144402708
 Beta  Exchange  Energy =    -0.6144402708
 DFT   Exchange  Energy =    -9.7785070466
 DFT Correlation Energy =    -0.4268181665
 Nuclear Repu.   Energy =    28.3929478369
 Nuclear Attr.   Energy =  -231.9894701471
 Kinetic         Energy =    77.0947303113
 SCF time:  CPU 21.38 s  wall 23.29 s
 Final Alpha MO Eigenvalues
            1           2           3           4           5           6
    1 -10.3818651 -10.2970607  -1.1080402  -0.9147920  -0.8118382  -0.7724248
            7           8           9          10          11          12
    1  -0.6495342  -0.4130835  -0.2527449  -0.1321041  -0.1180193  -0.0958041
 Analysis of SCF Wavefunction
 
 --------------------------------------------------------------
                    Orbital Energies (a.u.)
 --------------------------------------------------------------
 
 Alpha MOs
 -- Occupied --
-10.382 -10.297  -1.108  -0.915  -0.812  -0.772  -0.650
 -- Virtual --
 -0.413  -0.253  -0.132  -0.118  -0.096  -0.067  -0.055  -0.037
 -0.034  -0.011  -0.011   0.005   0.017   0.023   0.038   0.113
  0.144   0.242   0.261   0.267   0.295   0.314   0.344   0.378
  0.389   0.409   0.413   0.431   0.463   0.487   0.514   0.565
  0.684   0.709   0.759   0.813   0.862   0.925   0.953   1.075
  1.095   1.131   1.183   1.216   1.246   1.290   1.433   2.115
  2.177   2.307   2.318   2.351   2.353   2.417   2.420   2.460
  2.527   2.543   2.607   2.732   2.744   2.802   2.809   2.847
  2.850   2.891   2.967   2.977   3.010   3.060   3.146   3.262
  3.343   3.365   3.417   3.584   3.797   3.801   3.866   3.958
  4.088   4.116   4.254   4.437   4.766   4.885   5.040   5.223
  5.767  23.231  24.229  26.720  26.938  27.015  27.682  27.830
 27.851  40.331  40.339  40.493  40.597  40.628  40.703  40.715
 40.788  40.823  40.867
 --------------------------------------------------------------
 
          Ground-State Mulliken Net Atomic Charges

     Atom                 Charge (a.u.)
  ----------------------------------------
      1 C                    -0.002634
      2 C                     0.335334
      3 H                     0.223407
      4 H                     0.203419
      5 H                     0.240474
  ----------------------------------------
  Sum of atomic charges =     1.000000

 -----------------------------------------------------------------
                    Cartesian Multipole Moments
 -----------------------------------------------------------------
    Charge (ESU x 10^10)
                 4.8032
    Dipole Moment (Debye)
         X       0.5787      Y       0.0001      Z       3.1656
       Tot       3.2181
    Quadrupole Moments (Debye-Ang)
        XX      -7.3096     XY      -0.0001     YY     -12.3143
        XZ       1.1415     YZ       0.0003     ZZ      -1.0506
    Octapole Moments (Debye-Ang^2)
       XXX      -0.5581    XXY       0.0000    XYY      -0.5362
       YYY       0.0001    XXZ      -5.4883    XYZ      -0.0005
       YYZ      -7.4399    XZZ       3.1323    YZZ       0.0005
       ZZZ      -2.3551
    Hexadecapole Moments (Debye-Ang^3)
      XXXX     -12.7460   XXXY       0.0000   XXYY      -4.9625
      XYYY      -0.0001   YYYY     -12.6186   XXXZ      -1.4154
      XXYZ       0.0000   XYYZ      -1.1327   YYYZ       0.0003
      XXZZ      -7.5134   XYZZ      -0.0007   YYZZ     -15.1502
      XZZZ       5.8810   YZZZ       0.0010   ZZZZ     -37.0280
 -----------------------------------------------------------------
 Total job time:  23.47s(wall), 21.48s(cpu) 
 Sun Mar 23 19:30:33 2014

        *************************************************************
        *                                                           *
        *  Thank you very much for using Q-Chem.  Have a nice day.  *
        *                                                           *
        *************************************************************


0 sent ACK to 0 
now end server 0 ... 
