Process 0 of 1 is on cl071.stfx.acenet.ca - thread support 1
initial socket setup ...start
initial socket setup ...done 
now start server 0 ... 

cmd = /usr/bin/ssh clhead /usr/local/qchem/bin/get_hostid 1602022087 > /scratch/tmp/5955697.1.short.q/qchem27656/lic.dat
                  Welcome to Q-Chem
     A Quantum Leap Into The Future Of Chemistry

 Y. Shao, L. Fusti-Molnar, Y. Jung, J. Kussmann, C. Ochsenfeld,
 S. T. Brown, A. T. B. Gilbert, L. V. Slipchenko,S. V. Levchenko,
 D. P. O'Neill, R. A. DiStasio Jr., R. C. Lochan, T. Wang,
 G. J. O. Beran, N. A. Besley, J. M. Herbert, C. Y. Lin,
 T. Van Voorhis, S. H. Chien, A. Sodt, R. P. Steele, 
 V. A. Rassolov, P. E. Maslen, P. P. Korambath, R. D. Adamson,
 B. Austin, J. Baker, E. F. C. Byrd, H. Dachsel, R. J. Doerksen,
 A. Dreuw, B. D. Dunietz, A. D. Dutoi, T. R. Furlani,
 S. R. Gwaltney, A. Heyden, S. Hirata, C.-P. Hsu, G. Kedziora,
 R. Z. Khaliullin, P. Klunzinger, A. M. Lee, M. S. Lee, W. Liang,
 I. Lotan, N. Nair, B. Peters, E. I. Proynov, P. A. Pieniazek, 
 Y. M. Rhee, J. Ritchie, E. Rosta, C. D. Sherrill, 
 A. C. Simmonett, J. E. Subotnik, H. L. Woodcock III,
 W. Zhang, A. T. Bell, A. K. Chakraborty, D. M. Chipman,
 F. J. Keil, A. Warshel, W. J. Hehre, H. F. Schaefer III,
 J. Kong, A. I. Krylov, P. M. W. Gill, M. Head-Gordon,
 Q-Chem, Version 3.1, Q-Chem, Inc., Pittsburgh, PA (2007).

 Additional authors for Version 3.1: 
 Z. Gan, Y. Zhao, N. E. Schultz, D. Truhlar, E. Epifanovsky and M. Oana.

 Additional authors for Version 3.2: 
 R. Baer, B. R. Brooks, D. Casanova, J.-D. Chai, C.-L. Cheng, 
 C. Cramer, D. Crittenden, A. Ghysels, G. Hawkins, E. G. Hohenstein, 
 C. Kelley, W. Kurlancheek, D. Liotard, E. Livshits, P. Manohar, 
 A. Marenich, D. Neuhauser, R. Olson, M. A. Rohrdanz, K. S. Thanthiriwatte, 
 A. J. W. Thom, V. Vanovschi, C. F. Williams, Q. Wu and Z.-Q. You. 


 Intel X86 Linux Version

 Q-chem begins on Tue Apr 30 21:13:49 2013  

 Parallel job on  1  processors
Processing $rem in /usr/local/qchem/config/preferences.

theFileMan(): MAXOPENFILES=974 MAX_SUB_FILE_NUM=16
Maximum size of a physical file is 2.0 GB, maximum size of a tmp-file is 32.0 GB


--------------------------------------------------------------
User input:
--------------------------------------------------------------

$molecule
-1,2
N
N,1,AA
H,1,AH4,2,H4AA
H,1,AH5,2,H5AA,3,H4AH5,1
H,2,AH4,1,H4AA,3,H4AAH7,0
H,2,AH5,1,H5AA,5,H4AH5,1

AA=1.4373691
AH4=1.02194422
AH5=1.01729305
H4AA=111.78265471
H5AA=106.64309317
H4AH5=106.81573564
H4AAH7=25.8658655

$end

$comment
negative
$end

$xc_functional
C PBE   1.00
X wPBE  1.00
$end

$rem
SYMMETRY_DECOMPOSITION	0
exchange 		general
LRC_DFT                 true
BASIS                   g3large
omega			430
mem_static              760
max_scf_cycles          200
scf_final_print         1
sym_ignore              true
$end

--------------------------------------------------------------
 Writing REM_CC_EA            6
 ----------------------------------------------------
       Standard Nuclear Orientation (Angstroms)
    I     Atom         X            Y            Z
 ----------------------------------------------------
    1      N       0.000000     0.000000     0.000000
    2      N       0.000000     0.000000     1.437369
    3      H       0.948976     0.000000    -0.379230
    4      H      -0.433361     0.873036    -0.291362
    5      H       0.853905     0.414006     1.816599
    6      H      -0.009070    -0.974634     1.728731
 ----------------------------------------------------
 Nuclear Repulsion Energy =    41.4146934044 hartrees
 There are       10 alpha and        9 beta electrons
 Requested basis set is G3large
 There are 44 shells and 124 basis functions

Total QAlloc Memory Limit   2000 MB
Mega-Array Size       743 MB
MEM_STATIC part       760 MB

                       Distance Matrix (Angstroms)
             N (  1)   N (  2)   H (  3)   H (  4)   H (  5)
   N (  2)  1.437369
   H (  3)  1.021944  2.049533
   H (  4)  1.017293  1.984567  1.637305
   H (  5)  2.049533  1.021944  2.236538  2.512223
   H (  6)  1.984567  1.017293  2.512223  2.770322  1.637305
 
 A cutoff of  1.0D-08 yielded    985 shell pairs
 There are   7857 function pairs (  9484 Cartesian)
Evaluating contribution to one-electron hamiltonian from nuclear
 Smallest overlap matrix eigenvalue = 3.53E-04
 Multipole matrices computed through 2nd order

  Scale SEOQF with 1.000000e-01/1.000000e-01/1.000000e-01

 Standard Electronic Orientation quadrupole field applied
 Nucleus-field energy     =    -0.0000000020 hartrees
 Guess from superposition of atomic densities
 Warning:  Energy on first SCF cycle will be non-variational
 Long-range K will be added via erf
 Coulomb attenuation parameter = 0.43 bohr**(-1)
 An unrestricted Kohn-Sham SCF calculation will be
 performed using Pulay DIIS extrapolation
 Exchange:  wPBE + LR-HF      Correlation:  PBE
 Using SG-1 standard quadrature grid
 SCF converges when DIIS error is below 1.0E-05
 Requested basis set is G3large
 There are 44 shells and 124 basis functions
 A cutoff of  1.0D-08 yielded    985 shell pairs
 There are   7857 function pairs (  9484 Cartesian)
 Warning!  Inaccurate integrated density:
   Number of electrons =    19
   Numerical integral  =    17.999931560745
   Relative error      =    -5.2635181013 %
 ---------------------------------------
  Cycle       Energy         DIIS Error
 ---------------------------------------
    1    -112.0328727127      3.90E-02
    2    -111.7451025909      4.96E-03
    3    -111.7803824494      4.19E-03
    4    -111.8080805327      4.47E-04
    5    -111.8099115707      1.79E-04
    6    -111.8107375121      6.94E-05
    7    -111.8110168079      3.87E-05
    8    -111.8111806943      2.49E-05
    9    -111.8112575581      9.29E-06 Convergence criterion met
 ---------------------------------------
 One-Electron    Energy =  -236.0270362420
 Total Coulomb   Energy =    98.1373346694
 Alpha Exchange  Energy =    -1.9894235327
 Beta  Exchange  Energy =    -1.9067798628
 DFT   Exchange  Energy =   -10.8444407507
 DFT Correlation Energy =    -0.5956052418
 Nuclear Repu.   Energy =    41.4146934024
 Nuclear Attr.   Energy =  -347.4533468478
 Kinetic         Energy =   111.4263106058
 <S^2> = 0.7502
 SCF time:  CPU 32.84 s  wall 34.39 s
 Final Alpha MO Eigenvalues
            1           2           3           4           5           6
    1 -14.0587314 -14.0586844  -0.9426307  -0.7362952  -0.4747049  -0.4617243
            7           8           9          10          11          12
    1  -0.4207781  -0.2279576  -0.2240817   0.0276473   0.1591147   0.1712276
           13          14          15
    1   0.1740079   0.3099331   0.3165480
 Final Beta MO Eigenvalues
            1           2           3           4           5           6
    1 -14.0581905 -14.0581465  -0.9415819  -0.7340131  -0.4720659  -0.4608532
            7           8           9          10          11          12
    1  -0.4195079  -0.2274344  -0.2235021   0.1651947   0.1725892   0.1902336
           13          14
    1   0.1947600   0.3131472
 Analysis of SCF Wavefunction
 
 --------------------------------------------------------------
                    Orbital Energies (a.u.)
 --------------------------------------------------------------
 
 Alpha MOs
 -- Occupied --
-14.059 -14.059  -0.943  -0.736  -0.475  -0.462  -0.421  -0.228
 -0.224   0.028
 -- Virtual --
  0.159   0.171   0.174   0.310   0.317   0.330   0.333   0.342
  0.366   0.383   0.401   0.409   0.430   0.450   0.485   0.517
  0.748   0.770   0.826   0.836   0.839   0.868   0.919   0.923
  0.963   0.977   0.992   1.016   1.146   1.165   1.235   1.255
  1.272   1.311   1.442   1.474   1.531   1.625   1.627   1.670
  1.715   1.787   1.822   1.907   1.957   2.020   2.087   2.134
  2.189   2.208   2.651   2.844   2.987   3.068   3.547   3.574
  3.647   3.656   3.667   3.734   3.802   3.825   3.874   3.982
  4.025   4.032   4.055   4.071   4.179   4.187   4.339   4.589
  4.599   4.674   4.679   4.870   4.913   4.996   5.047   5.161
  5.254   5.357   5.397   5.418   5.455   5.459   5.567   5.632
  5.727   5.765   5.800   5.892   6.489   6.666   6.682   6.707
 35.710  35.729  37.501  37.806  37.978  38.346  38.391  38.953
 40.754  40.780  40.784  40.829  40.840  40.854  40.870  40.898
 40.906  40.925
 
 Beta MOs
 -- Occupied --
-14.058 -14.058  -0.942  -0.734  -0.472  -0.461  -0.420  -0.227
 -0.224
 -- Virtual --
  0.165   0.173   0.190   0.195   0.313   0.317   0.333   0.334
  0.344   0.376   0.384   0.403   0.413   0.429   0.450   0.482
  0.519   0.747   0.769   0.826   0.837   0.838   0.868   0.920
  0.924   0.962   0.976   0.992   1.016   1.147   1.166   1.236
  1.257   1.273   1.312   1.443   1.475   1.533   1.627   1.628
  1.671   1.716   1.788   1.823   1.907   1.958   2.021   2.088
  2.134   2.190   2.209   2.651   2.843   2.988   3.068   3.548
  3.574   3.648   3.656   3.668   3.734   3.802   3.826   3.875
  3.983   4.025   4.033   4.056   4.071   4.180   4.188   4.339
  4.589   4.599   4.675   4.679   4.870   4.913   4.996   5.048
  5.162   5.256   5.358   5.399   5.418   5.456   5.460   5.568
  5.633   5.729   5.767   5.802   5.893   6.491   6.667   6.683
  6.708  35.710  35.730  37.501  37.806  37.979  38.347  38.392
 38.954  40.754  40.780  40.784  40.830  40.840  40.855  40.871
 40.899  40.907  40.926
 --------------------------------------------------------------
 
          Ground-State Mulliken Net Atomic Charges

     Atom                 Charge (a.u.)    Spin (a.u.)
  --------------------------------------------------------
      1 N                     0.112455      -0.460847
      2 N                     0.111849      -0.460309
      3 H                    -0.752827       0.936978
      4 H                     0.139758       0.024521
      5 H                    -0.751207       0.935261
      6 H                     0.139972       0.024395
  --------------------------------------------------------
  Sum of atomic charges =    -1.000000
  Sum of spin   charges =     1.000000

 -----------------------------------------------------------------
                    Cartesian Multipole Moments
 -----------------------------------------------------------------
    Charge (ESU x 10^10)
                -4.8032
    Dipole Moment (Debye)
         X      -6.0025      Y      -1.3765      Z      -3.4452
       Tot       7.0565
    Quadrupole Moments (Debye-Ang)
        XX     -40.8777     XY      -2.8139     YY     -29.2564
        XZ      -3.4219     YZ      -4.8240     ZZ     -34.6488
    Octapole Moments (Debye-Ang^2)
       XXX     -80.2266    XXY      -7.7297    XYY     -23.8131
       YYY     -16.1377    XXZ     -29.3078    XYZ      -2.0916
       YYZ     -21.0376    XZZ     -27.9645    YZZ     -12.2195
       ZZZ     -71.0758
    Hexadecapole Moments (Debye-Ang^3)
      XXXX    -329.3752   XXXY     -21.7265   XXYY     -80.2661
      XYYY     -19.3465   YYYY    -159.7485   XXXZ     -54.1681
      XXYZ     -10.3275   XYYZ     -16.8579   YYYZ     -22.5517
      XXZZ    -125.4495   XYZZ      -9.9199   YYZZ     -85.0016
      XZZZ     -53.9959   YZZZ     -32.9628   ZZZZ    -362.8093
 -----------------------------------------------------------------
 Total job time:  34.55s(wall), 32.96s(cpu) 
 Tue Apr 30 21:14:23 2013

        *************************************************************
        *                                                           *
        *  Thank you very much for using Q-Chem.  Have a nice day.  *
        *                                                           *
        *************************************************************


0 sent ACK to 0 
now end server 0 ... 
 
**********************************************************************
Job 2 of 3 
**********************************************************************
 
Process 0 of 1 is on cl071.stfx.acenet.ca - thread support 1
initial socket setup ...start
initial socket setup ...done 
now start server 0 ... 

cmd = /usr/bin/ssh clhead /usr/local/qchem/bin/get_hostid 1857977210 > /scratch/tmp/5955697.1.short.q/qchem27656/lic.dat
                  Welcome to Q-Chem
     A Quantum Leap Into The Future Of Chemistry

 Y. Shao, L. Fusti-Molnar, Y. Jung, J. Kussmann, C. Ochsenfeld,
 S. T. Brown, A. T. B. Gilbert, L. V. Slipchenko,S. V. Levchenko,
 D. P. O'Neill, R. A. DiStasio Jr., R. C. Lochan, T. Wang,
 G. J. O. Beran, N. A. Besley, J. M. Herbert, C. Y. Lin,
 T. Van Voorhis, S. H. Chien, A. Sodt, R. P. Steele, 
 V. A. Rassolov, P. E. Maslen, P. P. Korambath, R. D. Adamson,
 B. Austin, J. Baker, E. F. C. Byrd, H. Dachsel, R. J. Doerksen,
 A. Dreuw, B. D. Dunietz, A. D. Dutoi, T. R. Furlani,
 S. R. Gwaltney, A. Heyden, S. Hirata, C.-P. Hsu, G. Kedziora,
 R. Z. Khaliullin, P. Klunzinger, A. M. Lee, M. S. Lee, W. Liang,
 I. Lotan, N. Nair, B. Peters, E. I. Proynov, P. A. Pieniazek, 
 Y. M. Rhee, J. Ritchie, E. Rosta, C. D. Sherrill, 
 A. C. Simmonett, J. E. Subotnik, H. L. Woodcock III,
 W. Zhang, A. T. Bell, A. K. Chakraborty, D. M. Chipman,
 F. J. Keil, A. Warshel, W. J. Hehre, H. F. Schaefer III,
 J. Kong, A. I. Krylov, P. M. W. Gill, M. Head-Gordon,
 Q-Chem, Version 3.1, Q-Chem, Inc., Pittsburgh, PA (2007).

 Additional authors for Version 3.1: 
 Z. Gan, Y. Zhao, N. E. Schultz, D. Truhlar, E. Epifanovsky and M. Oana.

 Additional authors for Version 3.2: 
 R. Baer, B. R. Brooks, D. Casanova, J.-D. Chai, C.-L. Cheng, 
 C. Cramer, D. Crittenden, A. Ghysels, G. Hawkins, E. G. Hohenstein, 
 C. Kelley, W. Kurlancheek, D. Liotard, E. Livshits, P. Manohar, 
 A. Marenich, D. Neuhauser, R. Olson, M. A. Rohrdanz, K. S. Thanthiriwatte, 
 A. J. W. Thom, V. Vanovschi, C. F. Williams, Q. Wu and Z.-Q. You. 


 Intel X86 Linux Version

 Q-chem begins on Tue Apr 30 21:14:26 2013  

 Parallel job on  1  processors
Processing $rem in /usr/local/qchem/config/preferences.

theFileMan(): MAXOPENFILES=974 MAX_SUB_FILE_NUM=16
Maximum size of a physical file is 2.0 GB, maximum size of a tmp-file is 32.0 GB


--------------------------------------------------------------
User input:
--------------------------------------------------------------

$molecule
0,1
N
N,1,AA
H,1,AH4,2,H4AA
H,1,AH5,2,H5AA,3,H4AH5,1
H,2,AH4,1,H4AA,3,H4AAH7,0
H,2,AH5,1,H5AA,5,H4AH5,1

AA=1.4373691
AH4=1.02194422
AH5=1.01729305
H4AA=111.78265471
H5AA=106.64309317
H4AH5=106.81573564
H4AAH7=25.8658655

$end

$comment
neutral
$end

$xc_functional
C PBE   1.00
X wPBE  1.00
$end


$rem
SYMMETRY_DECOMPOSITION	0
LRC_DFT                 true
exchange 		general
BASIS                   g3large
omega			430
mem_static              760
max_scf_cycles          200
scf_final_print         1
sym_ignore              true
$end

--------------------------------------------------------------
 Writing REM_CC_EA            6
 ----------------------------------------------------
       Standard Nuclear Orientation (Angstroms)
    I     Atom         X            Y            Z
 ----------------------------------------------------
    1      N       0.000000     0.000000     0.000000
    2      N       0.000000     0.000000     1.437369
    3      H       0.948976     0.000000    -0.379230
    4      H      -0.433361     0.873036    -0.291362
    5      H       0.853905     0.414006     1.816599
    6      H      -0.009070    -0.974634     1.728731
 ----------------------------------------------------
 Nuclear Repulsion Energy =    41.4146934044 hartrees
 There are        9 alpha and        9 beta electrons
 Requested basis set is G3large
 There are 44 shells and 124 basis functions

Total QAlloc Memory Limit   2000 MB
Mega-Array Size       743 MB
MEM_STATIC part       760 MB

                       Distance Matrix (Angstroms)
             N (  1)   N (  2)   H (  3)   H (  4)   H (  5)
   N (  2)  1.437369
   H (  3)  1.021944  2.049533
   H (  4)  1.017293  1.984567  1.637305
   H (  5)  2.049533  1.021944  2.236538  2.512223
   H (  6)  1.984567  1.017293  2.512223  2.770322  1.637305
 
 A cutoff of  1.0D-08 yielded    985 shell pairs
 There are   7857 function pairs (  9484 Cartesian)
Evaluating contribution to one-electron hamiltonian from nuclear
 Smallest overlap matrix eigenvalue = 3.53E-04
 Multipole matrices computed through 2nd order

  Scale SEOQF with 1.000000e-01/1.000000e-01/1.000000e-01

 Standard Electronic Orientation quadrupole field applied
 Nucleus-field energy     =    -0.0000000020 hartrees
 Guess from superposition of atomic densities
 Warning:  Energy on first SCF cycle will be non-variational
 Long-range K will be added via erf
 Coulomb attenuation parameter = 0.43 bohr**(-1)
 A restricted Kohn-Sham SCF calculation will be
 performed using Pulay DIIS extrapolation
 Exchange:  wPBE + LR-HF      Correlation:  PBE
 Using SG-1 standard quadrature grid
 SCF converges when DIIS error is below 1.0E-05
 Requested basis set is G3large
 There are 44 shells and 124 basis functions
 A cutoff of  1.0D-08 yielded    985 shell pairs
 There are   7857 function pairs (  9484 Cartesian)
 ---------------------------------------
  Cycle       Energy         DIIS Error
 ---------------------------------------
    1    -112.0328727127      3.90E-02
    2    -111.8079151761      4.48E-03
    3    -111.8301926651      3.07E-03
    4    -111.8434341276      4.37E-04
    5    -111.8437505878      9.76E-05
    6    -111.8437857326      1.87E-05
    7    -111.8437881571      5.06E-06 Convergence criterion met
 ---------------------------------------
 One-Electron    Energy =  -233.1408322064
 Total Coulomb   Energy =    95.1245539134
 Alpha Exchange  Energy =    -1.9088742261
 Beta  Exchange  Energy =    -1.9088742261
 DFT   Exchange  Energy =   -10.8372936645
 DFT Correlation Energy =    -0.5871611497
 Nuclear Repu.   Energy =    41.4146934024
 Nuclear Attr.   Energy =  -344.4990788176
 Kinetic         Energy =   111.3582466112
 SCF time:  CPU 20.47 s  wall 21.34 s
 Final Alpha MO Eigenvalues
            1           2           3           4           5           6
    1 -14.2220472 -14.2220042  -1.1056087  -0.8989215  -0.6384612  -0.6246360
            7           8           9          10          11          12
    1  -0.5804583  -0.3885820  -0.3835455   0.0400352   0.0594870   0.0718575
           13          14
    1   0.0742497   0.1854893
 Analysis of SCF Wavefunction
 
 --------------------------------------------------------------
                    Orbital Energies (a.u.)
 --------------------------------------------------------------
 
 Alpha MOs
 -- Occupied --
-14.222 -14.222  -1.106  -0.899  -0.638  -0.625  -0.580  -0.389
 -0.384
 -- Virtual --
  0.040   0.059   0.072   0.074   0.185   0.191   0.197   0.200
  0.217   0.232   0.256   0.258   0.269   0.300   0.302   0.343
  0.364   0.593   0.621   0.673   0.676   0.682   0.706   0.766
  0.767   0.809   0.828   0.832   0.867   0.993   1.013   1.081
  1.088   1.114   1.149   1.284   1.314   1.367   1.462   1.466
  1.507   1.556   1.629   1.661   1.748   1.796   1.861   1.928
  1.978   2.031   2.051   2.489   2.678   2.825   2.904   3.382
  3.414   3.483   3.492   3.506   3.574   3.639   3.663   3.712
  3.819   3.861   3.868   3.892   3.909   4.015   4.024   4.175
  4.423   4.434   4.513   4.514   4.707   4.749   4.833   4.885
  4.999   5.094   5.196   5.236   5.256   5.294   5.298   5.407
  5.471   5.566   5.604   5.640   5.730   6.328   6.503   6.518
  6.545  35.546  35.566  37.338  37.643  37.815  38.183  38.228
 38.790  40.590  40.616  40.621  40.666  40.677  40.691  40.707
 40.735  40.743  40.762
 --------------------------------------------------------------
 
          Ground-State Mulliken Net Atomic Charges

     Atom                 Charge (a.u.)
  ----------------------------------------
      1 N                    -0.340163
      2 N                    -0.340210
      3 H                     0.156472
      4 H                     0.183697
      5 H                     0.156449
      6 H                     0.183755
  ----------------------------------------
  Sum of atomic charges =     0.000000

 -----------------------------------------------------------------
                    Cartesian Multipole Moments
 -----------------------------------------------------------------
    Charge (ESU x 10^10)
                 0.0000
    Dipole Moment (Debye)
         X       2.0614      Y       0.4734      Z       0.0000
       Tot       2.1151
    Quadrupole Moments (Debye-Ang)
        XX     -12.7916     XY      -0.0721     YY     -12.4942
        XZ       2.1024     YZ      -2.3635     ZZ     -13.2744
    Octapole Moments (Debye-Ang^2)
       XXX       0.2014    XXY       0.6216    XYY      -1.0439
       YYY      -0.8150    XXZ     -10.1571    XYZ       1.9364
       YYZ      -8.0154    XZZ       4.6349    YZZ      -3.0268
       ZZZ     -28.6203
    Hexadecapole Moments (Debye-Ang^3)
      XXXX     -19.2343   XXXY       0.2797   XXYY      -6.6779
      XYYY      -0.4515   YYYY     -18.5258   XXXZ      -0.4909
      XXYZ       1.2216   XYYZ      -0.0140   YYYZ      -1.7991
      XXZZ     -21.1324   XYZZ       2.8498   YYZZ     -18.3282
      XZZZ       7.9303   YZZZ      -4.5589   ZZZZ    -106.4910
 -----------------------------------------------------------------
 Total job time:  21.46s(wall), 20.58s(cpu) 
 Tue Apr 30 21:14:47 2013

        *************************************************************
        *                                                           *
        *  Thank you very much for using Q-Chem.  Have a nice day.  *
        *                                                           *
        *************************************************************


0 sent ACK to 0 
now end server 0 ... 
 
**********************************************************************
Job 3 of 3 
**********************************************************************
 
Process 0 of 1 is on cl071.stfx.acenet.ca - thread support 1
initial socket setup ...start
initial socket setup ...done 
now start server 0 ... 

cmd = /usr/bin/ssh clhead /usr/local/qchem/bin/get_hostid 2084646111 > /scratch/tmp/5955697.1.short.q/qchem27656/lic.dat
                  Welcome to Q-Chem
     A Quantum Leap Into The Future Of Chemistry

 Y. Shao, L. Fusti-Molnar, Y. Jung, J. Kussmann, C. Ochsenfeld,
 S. T. Brown, A. T. B. Gilbert, L. V. Slipchenko,S. V. Levchenko,
 D. P. O'Neill, R. A. DiStasio Jr., R. C. Lochan, T. Wang,
 G. J. O. Beran, N. A. Besley, J. M. Herbert, C. Y. Lin,
 T. Van Voorhis, S. H. Chien, A. Sodt, R. P. Steele, 
 V. A. Rassolov, P. E. Maslen, P. P. Korambath, R. D. Adamson,
 B. Austin, J. Baker, E. F. C. Byrd, H. Dachsel, R. J. Doerksen,
 A. Dreuw, B. D. Dunietz, A. D. Dutoi, T. R. Furlani,
 S. R. Gwaltney, A. Heyden, S. Hirata, C.-P. Hsu, G. Kedziora,
 R. Z. Khaliullin, P. Klunzinger, A. M. Lee, M. S. Lee, W. Liang,
 I. Lotan, N. Nair, B. Peters, E. I. Proynov, P. A. Pieniazek, 
 Y. M. Rhee, J. Ritchie, E. Rosta, C. D. Sherrill, 
 A. C. Simmonett, J. E. Subotnik, H. L. Woodcock III,
 W. Zhang, A. T. Bell, A. K. Chakraborty, D. M. Chipman,
 F. J. Keil, A. Warshel, W. J. Hehre, H. F. Schaefer III,
 J. Kong, A. I. Krylov, P. M. W. Gill, M. Head-Gordon,
 Q-Chem, Version 3.1, Q-Chem, Inc., Pittsburgh, PA (2007).

 Additional authors for Version 3.1: 
 Z. Gan, Y. Zhao, N. E. Schultz, D. Truhlar, E. Epifanovsky and M. Oana.

 Additional authors for Version 3.2: 
 R. Baer, B. R. Brooks, D. Casanova, J.-D. Chai, C.-L. Cheng, 
 C. Cramer, D. Crittenden, A. Ghysels, G. Hawkins, E. G. Hohenstein, 
 C. Kelley, W. Kurlancheek, D. Liotard, E. Livshits, P. Manohar, 
 A. Marenich, D. Neuhauser, R. Olson, M. A. Rohrdanz, K. S. Thanthiriwatte, 
 A. J. W. Thom, V. Vanovschi, C. F. Williams, Q. Wu and Z.-Q. You. 


 Intel X86 Linux Version

 Q-chem begins on Tue Apr 30 21:14:50 2013  

 Parallel job on  1  processors
Processing $rem in /usr/local/qchem/config/preferences.

theFileMan(): MAXOPENFILES=974 MAX_SUB_FILE_NUM=16
Maximum size of a physical file is 2.0 GB, maximum size of a tmp-file is 32.0 GB


--------------------------------------------------------------
User input:
--------------------------------------------------------------

$molecule
1,2
N
N,1,AA
H,1,AH4,2,H4AA
H,1,AH5,2,H5AA,3,H4AH5,1
H,2,AH4,1,H4AA,3,H4AAH7,0
H,2,AH5,1,H5AA,5,H4AH5,1

AA=1.4373691
AH4=1.02194422
AH5=1.01729305
H4AA=111.78265471
H5AA=106.64309317
H4AH5=106.81573564
H4AAH7=25.8658655

$end

$comment
positive
$end

$xc_functional
C PBE   1.00
X wPBE  1.00
$end

$rem
SYMMETRY_DECOMPOSITION	0
LRC_DFT                 true
exchange 		general
BASIS                   g3large
omega			430
mem_static              760
max_scf_cycles          200
scf_final_print         1
sym_ignore              true
$end

--------------------------------------------------------------
 Writing REM_CC_EA            6
 ----------------------------------------------------
       Standard Nuclear Orientation (Angstroms)
    I     Atom         X            Y            Z
 ----------------------------------------------------
    1      N       0.000000     0.000000     0.000000
    2      N       0.000000     0.000000     1.437369
    3      H       0.948976     0.000000    -0.379230
    4      H      -0.433361     0.873036    -0.291362
    5      H       0.853905     0.414006     1.816599
    6      H      -0.009070    -0.974634     1.728731
 ----------------------------------------------------
 Nuclear Repulsion Energy =    41.4146934044 hartrees
 There are        9 alpha and        8 beta electrons
 Requested basis set is G3large
 There are 44 shells and 124 basis functions

Total QAlloc Memory Limit   2000 MB
Mega-Array Size       743 MB
MEM_STATIC part       760 MB

                       Distance Matrix (Angstroms)
             N (  1)   N (  2)   H (  3)   H (  4)   H (  5)
   N (  2)  1.437369
   H (  3)  1.021944  2.049533
   H (  4)  1.017293  1.984567  1.637305
   H (  5)  2.049533  1.021944  2.236538  2.512223
   H (  6)  1.984567  1.017293  2.512223  2.770322  1.637305
 
 A cutoff of  1.0D-08 yielded    985 shell pairs
 There are   7857 function pairs (  9484 Cartesian)
Evaluating contribution to one-electron hamiltonian from nuclear
 Smallest overlap matrix eigenvalue = 3.53E-04
 Multipole matrices computed through 2nd order

  Scale SEOQF with 1.000000e-01/1.000000e-01/1.000000e-01

 Standard Electronic Orientation quadrupole field applied
 Nucleus-field energy     =    -0.0000000020 hartrees
 Guess from superposition of atomic densities
 Warning:  Energy on first SCF cycle will be non-variational
 Long-range K will be added via erf
 Coulomb attenuation parameter = 0.43 bohr**(-1)
 An unrestricted Kohn-Sham SCF calculation will be
 performed using Pulay DIIS extrapolation
 Exchange:  wPBE + LR-HF      Correlation:  PBE
 Using SG-1 standard quadrature grid
 SCF converges when DIIS error is below 1.0E-05
 Requested basis set is G3large
 There are 44 shells and 124 basis functions
 A cutoff of  1.0D-08 yielded    985 shell pairs
 There are   7857 function pairs (  9484 Cartesian)
 Warning!  Inaccurate integrated density:
   Number of electrons =    17
   Numerical integral  =    17.999931560745
   Relative error      =     5.8819503573 %
 ---------------------------------------
  Cycle       Energy         DIIS Error
 ---------------------------------------
    1    -112.0328727127      3.90E-02
    2    -111.4276079110      3.76E-03
    3    -111.4592691757      1.86E-03
    4    -111.4642399280      3.70E-04
    5    -111.4647310698      1.06E-04
    6    -111.4648552152      4.34E-05
    7    -111.4649207316      2.04E-05
    8    -111.4649427481      5.42E-06 Convergence criterion met
 ---------------------------------------
 One-Electron    Energy =  -227.1084219380
 Total Coulomb   Energy =    89.1174194124
 Alpha Exchange  Energy =    -1.9311139942
 Beta  Exchange  Energy =    -1.6956528876
 DFT   Exchange  Energy =   -10.7114879101
 DFT Correlation Energy =    -0.5503788329
 Nuclear Repu.   Energy =    41.4146934024
 Nuclear Attr.   Energy =  -338.1863775827
 Kinetic         Energy =   111.0779556447
 <S^2> = 0.7575
 SCF time:  CPU 28.85 s  wall 29.99 s
 Final Alpha MO Eigenvalues
            1           2           3           4           5           6
    1 -14.5870711 -14.5868683  -1.4534636  -1.2402472  -0.9683859  -0.9638714
            7           8           9          10          11          12
    1  -0.9164160  -0.7547756  -0.7450099  -0.1407413  -0.1129732  -0.0858357
           13          14
    1  -0.0848855  -0.0278190
 Final Beta MO Eigenvalues
            1           2           3           4           5           6
    1 -14.5776988 -14.5774874  -1.4295456  -1.2099217  -0.9590899  -0.9291320
            7           8           9          10          11          12
    1  -0.9034926  -0.6756113  -0.3751027  -0.1384528  -0.1075172  -0.0845770
           13
    1  -0.0831085
 Analysis of SCF Wavefunction
 
 --------------------------------------------------------------
                    Orbital Energies (a.u.)
 --------------------------------------------------------------
 
 Alpha MOs
 -- Occupied --
-14.587 -14.587  -1.453  -1.240  -0.968  -0.964  -0.916  -0.755
 -0.745
 -- Virtual --
 -0.141  -0.113  -0.086  -0.085  -0.028  -0.011   0.000   0.001
  0.006   0.032   0.033   0.054   0.061   0.076   0.088   0.119
  0.132   0.334   0.365   0.406   0.421   0.427   0.435   0.486
  0.500   0.547   0.552   0.571   0.600   0.717   0.735   0.808
  0.817   0.841   0.877   0.993   1.032   1.084   1.169   1.169
  1.228   1.263   1.344   1.368   1.423   1.492   1.564   1.623
  1.678   1.711   1.745   2.185   2.377   2.519   2.595   3.059
  3.082   3.145   3.169   3.180   3.240   3.305   3.324   3.367
  3.493   3.521   3.538   3.562   3.576   3.681   3.691   3.840
  4.101   4.109   4.188   4.188   4.378   4.417   4.508   4.544
  4.643   4.732   4.847   4.881   4.920   4.931   4.937   5.052
  5.118   5.224   5.253   5.295   5.385   5.981   6.162   6.188
  6.214  35.183  35.202  36.966  37.268  37.451  37.822  37.867
 38.429  40.218  40.245  40.254  40.297  40.308  40.322  40.336
 40.371  40.383  40.400
 
 Beta MOs
 -- Occupied --
-14.578 -14.577  -1.430  -1.210  -0.959  -0.929  -0.903  -0.676
 -- Virtual --
 -0.375  -0.138  -0.108  -0.085  -0.083  -0.016  -0.007   0.004
  0.005   0.013   0.038   0.038   0.059   0.063   0.085   0.092
  0.122   0.138   0.340   0.374   0.413   0.426   0.434   0.444
  0.506   0.512   0.554   0.568   0.576   0.613   0.731   0.754
  0.818   0.823   0.850   0.886   1.004   1.042   1.091   1.180
  1.184   1.234   1.276   1.351   1.381   1.450   1.508   1.572
  1.636   1.691   1.734   1.759   2.193   2.384   2.528   2.606
  3.067   3.098   3.168   3.182   3.196   3.261   3.323   3.343
  3.391   3.509   3.549   3.552   3.583   3.594   3.709   3.710
  3.866   4.116   4.123   4.199   4.202   4.392   4.437   4.520
  4.564   4.671   4.773   4.865   4.908   4.933   4.969   4.975
  5.084   5.147   5.243   5.279   5.319   5.404   6.005   6.175
  6.201   6.228  35.193  35.213  36.986  37.293  37.462  37.830
 37.875  38.436  40.239  40.262  40.269  40.312  40.325  40.337
 40.354  40.381  40.388  40.408
 --------------------------------------------------------------
 
          Ground-State Mulliken Net Atomic Charges

     Atom                 Charge (a.u.)    Spin (a.u.)
  --------------------------------------------------------
      1 N                     0.012383       0.483276
      2 N                     0.012580       0.483236
      3 H                     0.229738      -0.009942
      4 H                     0.257811       0.026687
      5 H                     0.229668      -0.009951
      6 H                     0.257820       0.026695
  --------------------------------------------------------
  Sum of atomic charges =     1.000000
  Sum of spin   charges =     1.000000

 -----------------------------------------------------------------
                    Cartesian Multipole Moments
 -----------------------------------------------------------------
    Charge (ESU x 10^10)
                 4.8032
    Dipole Moment (Debye)
         X       2.1469      Y       0.4932      Z       3.4524
       Tot       4.0953
    Quadrupole Moments (Debye-Ang)
        XX      -9.3642     XY      -0.1735     YY      -8.6487
        XZ       2.1263     YZ      -2.1863     ZZ      -3.3688
    Octapole Moments (Debye-Ang^2)
       XXX       0.8735    XXY       0.8205    XYY      -1.0901
       YYY      -0.8699    XXZ      -7.6059    XYZ       1.6814
       YYZ      -5.3404    XZZ       4.6929    YZZ      -2.7667
       ZZZ     -10.8298
    Hexadecapole Moments (Debye-Ang^3)
      XXXX     -11.7523   XXXY       0.3724   XXYY      -4.2598
      XYYY      -0.6775   YYYY     -10.4938   XXXZ      -0.2211
      XXYZ       1.6093   XYYZ       0.2955   YYYZ      -2.6478
      XXZZ     -13.8040   XYZZ       2.4242   YYZZ     -10.5779
      XZZZ       7.8021   YZZZ      -3.1864   ZZZZ     -60.9802
 -----------------------------------------------------------------
 Total job time:  30.17s(wall), 28.96s(cpu) 
 Tue Apr 30 21:15:20 2013

        *************************************************************
        *                                                           *
        *  Thank you very much for using Q-Chem.  Have a nice day.  *
        *                                                           *
        *************************************************************


0 sent ACK to 0 
now end server 0 ... 
