Process 0 of 1 is on cl087.stfx.acenet.ca - thread support 1
initial socket setup ...start
initial socket setup ...done 
now start server 0 ... 

cmd = /usr/bin/ssh clhead /usr/local/qchem/bin/get_hostid 1945873360 > /scratch/tmp/6028457.1.short.q/qchem25396/lic.dat
                  Welcome to Q-Chem
     A Quantum Leap Into The Future Of Chemistry

 Y. Shao, L. Fusti-Molnar, Y. Jung, J. Kussmann, C. Ochsenfeld,
 S. T. Brown, A. T. B. Gilbert, L. V. Slipchenko,S. V. Levchenko,
 D. P. O'Neill, R. A. DiStasio Jr., R. C. Lochan, T. Wang,
 G. J. O. Beran, N. A. Besley, J. M. Herbert, C. Y. Lin,
 T. Van Voorhis, S. H. Chien, A. Sodt, R. P. Steele, 
 V. A. Rassolov, P. E. Maslen, P. P. Korambath, R. D. Adamson,
 B. Austin, J. Baker, E. F. C. Byrd, H. Dachsel, R. J. Doerksen,
 A. Dreuw, B. D. Dunietz, A. D. Dutoi, T. R. Furlani,
 S. R. Gwaltney, A. Heyden, S. Hirata, C.-P. Hsu, G. Kedziora,
 R. Z. Khaliullin, P. Klunzinger, A. M. Lee, M. S. Lee, W. Liang,
 I. Lotan, N. Nair, B. Peters, E. I. Proynov, P. A. Pieniazek, 
 Y. M. Rhee, J. Ritchie, E. Rosta, C. D. Sherrill, 
 A. C. Simmonett, J. E. Subotnik, H. L. Woodcock III,
 W. Zhang, A. T. Bell, A. K. Chakraborty, D. M. Chipman,
 F. J. Keil, A. Warshel, W. J. Hehre, H. F. Schaefer III,
 J. Kong, A. I. Krylov, P. M. W. Gill, M. Head-Gordon,
 Q-Chem, Version 3.1, Q-Chem, Inc., Pittsburgh, PA (2007).

 Additional authors for Version 3.1: 
 Z. Gan, Y. Zhao, N. E. Schultz, D. Truhlar, E. Epifanovsky and M. Oana.

 Additional authors for Version 3.2: 
 R. Baer, B. R. Brooks, D. Casanova, J.-D. Chai, C.-L. Cheng, 
 C. Cramer, D. Crittenden, A. Ghysels, G. Hawkins, E. G. Hohenstein, 
 C. Kelley, W. Kurlancheek, D. Liotard, E. Livshits, P. Manohar, 
 A. Marenich, D. Neuhauser, R. Olson, M. A. Rohrdanz, K. S. Thanthiriwatte, 
 A. J. W. Thom, V. Vanovschi, C. F. Williams, Q. Wu and Z.-Q. You. 


 Intel X86 Linux Version

 Q-chem begins on Tue Jun  4 15:32:49 2013  

 Parallel job on  1  processors
Processing $rem in /usr/local/qchem/config/preferences.

theFileMan(): MAXOPENFILES=974 MAX_SUB_FILE_NUM=16
Maximum size of a physical file is 2.0 GB, maximum size of a tmp-file is 32.0 GB


--------------------------------------------------------------
User input:
--------------------------------------------------------------

$molecule
-1,2
Li         0.00000        0.00000       -0.02802
H          0.00000        0.00000        1.64909
$end

$comment
negative
$end

$xc_functional
C PBE   1.00
X wPBE  1.00
$end

$rem
SYMMETRY_DECOMPOSITION	0
exchange 		general
LRC_DFT                 true
BASIS                   g3large
omega			700
mem_static              760
max_scf_cycles          200
scf_final_print         1
sym_ignore              true
$end

--------------------------------------------------------------
 Writing REM_CC_EA            2
 ----------------------------------------------------
       Standard Nuclear Orientation (Angstroms)
    I     Atom         X            Y            Z
 ----------------------------------------------------
    1      Li      0.000000     0.000000    -0.028020
    2      H       0.000000     0.000000     1.649090
 ----------------------------------------------------
 Nuclear Repulsion Energy =     0.9465876612 hartrees
 There are        3 alpha and        2 beta electrons
 Requested basis set is G3large
 There are 16 shells and 52 basis functions

Total QAlloc Memory Limit   2000 MB
Mega-Array Size       743 MB
MEM_STATIC part       760 MB

                       Distance Matrix (Angstroms)
             Li(  1)
   H (  2)  1.677110
 
 A cutoff of  1.0D-08 yielded    136 shell pairs
 There are   1462 function pairs (  1834 Cartesian)
Evaluating contribution to one-electron hamiltonian from nuclear
 Smallest overlap matrix eigenvalue = 4.09E-03
 Multipole matrices computed through 2nd order

  Scale SEOQF with 1.000000e-02/1.000000e-02/1.000000e-02

 Standard Electronic Orientation quadrupole field applied
 Guess from superposition of atomic densities
 Warning:  Energy on first SCF cycle will be non-variational
 Long-range K will be added via erf
 Coulomb attenuation parameter = 0.7 bohr**(-1)
 An unrestricted Kohn-Sham SCF calculation will be
 performed using Pulay DIIS extrapolation
 Exchange:  wPBE + LR-HF      Correlation:  PBE
 Using SG-1 standard quadrature grid
 SCF converges when DIIS error is below 1.0E-05
 Requested basis set is G3large
 There are 16 shells and 52 basis functions
 A cutoff of  1.0D-08 yielded    136 shell pairs
 There are   1462 function pairs (  1834 Cartesian)
 Warning!  Inaccurate integrated density:
   Number of electrons =     5
   Numerical integral  =     4.012981843575
   Relative error      =   -19.7403631285 %
 ---------------------------------------
  Cycle       Energy         DIIS Error
 ---------------------------------------
    1      -7.7590611194      5.20E-03
    2      -8.0007631198      5.56E-03
    3      -8.0306859667      2.88E-03
    4      -8.0511671791      5.46E-04
 Warning!  Inaccurate integrated density:
   Number of electrons =     5
   Numerical integral  =     4.992058189978
   Relative error      =    -0.1588362004 %
    5      -8.0565312421      3.99E-04
 Warning!  Inaccurate integrated density:
   Number of electrons =     5
   Numerical integral  =     4.989188003311
   Relative error      =    -0.2162399338 %
    6      -8.0618951086      3.16E-04
 Warning!  Inaccurate integrated density:
   Number of electrons =     5
   Numerical integral  =     4.990142417614
   Relative error      =    -0.1971516477 %
    7      -8.0655288812      3.59E-04
 Warning!  Inaccurate integrated density:
   Number of electrons =     5
   Numerical integral  =     4.987275424834
   Relative error      =    -0.2544915033 %
    8      -8.0599677442      2.21E-04
 Warning!  Inaccurate integrated density:
   Number of electrons =     5
   Numerical integral  =     4.985876738596
   Relative error      =    -0.2824652281 %
    9      -8.0591098120      1.37E-04
 Warning!  Inaccurate integrated density:
   Number of electrons =     5
   Numerical integral  =     4.983831721583
   Relative error      =    -0.3233655683 %
   10      -8.0591671770      3.31E-05
 Warning!  Inaccurate integrated density:
   Number of electrons =     5
   Numerical integral  =     4.983456728998
   Relative error      =    -0.3308654200 %
   11      -8.0591884860      1.15E-05
 Warning!  Inaccurate integrated density:
   Number of electrons =     5
   Numerical integral  =     4.983430896983
   Relative error      =    -0.3313820603 %
   12      -8.0591941328      6.78E-06 Convergence criterion met
 ---------------------------------------
 One-Electron    Energy =   -12.7095322691
 Total Coulomb   Energy =     5.9675965932
 Alpha Exchange  Energy =    -0.5866680004
 Beta  Exchange  Energy =    -0.5495516089
 DFT   Exchange  Energy =    -1.0386059287
 DFT Correlation Energy =    -0.0890205801
 Nuclear Repu.   Energy =     0.9465876611
 Nuclear Attr.   Energy =   -20.6591296129
 Kinetic         Energy =     7.9495973438
 <S^2> = 0.7502
 SCF time:  CPU 7.05 s  wall 8.10 s
 Final Alpha MO Eigenvalues
            1           2           3           4           5           6
    1  -2.1246887  -0.2278511   0.0089746   0.0533338   0.0729726   0.0808140
            7           8
    1   0.0921714   0.1197056
 Final Beta MO Eigenvalues
            1           2           3           4           5           6
    1  -2.1245668  -0.2297336   0.0686628   0.0818598   0.0901790   0.0907361
            7
    1   0.1035729
 Analysis of SCF Wavefunction
 
 --------------------------------------------------------------
                    Orbital Energies (a.u.)
 --------------------------------------------------------------
 
 Alpha MOs
 -- Occupied --
 -2.125  -0.228   0.009
 -- Virtual --
  0.053   0.073   0.081   0.092   0.120   0.128   0.148   0.216
  0.239   0.240   0.240   0.330   0.367   0.367   0.371   0.373
  0.485   0.607   0.653   0.654   0.685   0.686   0.699   0.700
  0.703   0.704   0.732   0.928   1.204   1.206   1.318   1.386
  1.387   1.466   1.467   1.683   3.055   3.849   4.402   4.402
  4.525   7.109   7.109   7.372  20.343  20.369  21.416  21.420
 21.420
 
 Beta MOs
 -- Occupied --
 -2.125  -0.230
 -- Virtual --
  0.069   0.082   0.090   0.091   0.104   0.128   0.130   0.146
  0.216   0.237   0.238   0.240   0.329   0.366   0.367   0.370
  0.371   0.484   0.607   0.652   0.653   0.685   0.685   0.698
  0.698   0.702   0.702   0.731   0.926   1.204   1.205   1.317
  1.386   1.387   1.466   1.467   1.682   3.053   3.848   4.401
  4.401   4.524   7.109   7.109   7.372  20.343  20.369  21.416
 21.420  21.420
 --------------------------------------------------------------
 
          Ground-State Mulliken Net Atomic Charges

     Atom                 Charge (a.u.)    Spin (a.u.)
  --------------------------------------------------------
      1 Li                   -0.628955       1.014331
      2 H                    -0.371045      -0.014331
  --------------------------------------------------------
  Sum of atomic charges =    -1.000000
  Sum of spin   charges =     1.000000

 -----------------------------------------------------------------
                    Cartesian Multipole Moments
 -----------------------------------------------------------------
    Charge (ESU x 10^10)
                -4.8032
    Dipole Moment (Debye)
         X      -0.1781      Y      -0.1781      Z      -6.0619
       Tot       6.0672
    Quadrupole Moments (Debye-Ang)
        XX    -100.0697     XY     -47.3685     YY    -100.0376
        XZ       0.7279     YZ       0.7276     ZZ     -59.9707
    Octapole Moments (Debye-Ang^2)
       XXX      -7.5835    XXY      -2.5274    XYY      -2.5283
       YYY      -7.5810    XXZ      -3.6718    XYZ       1.4279
       YYZ      -3.6728    XZZ      -2.5440    YZZ      -2.5432
       ZZZ     -23.7686
    Hexadecapole Moments (Debye-Ang^3)
      XXXX   -4186.9455   XXXY   -1391.1015   XXYY   -1395.3342
      XYYY   -1391.1015   YYYY   -4185.0682   XXXZ      24.7419
      XXYZ       8.2445   XYYZ       8.2473   YYYZ      24.7335
      XXZZ    -940.6525   XYZZ    -463.7401   YYZZ    -940.3395
      XZZZ      24.7672   YZZZ      24.7589   ZZZZ   -1466.9321
 -----------------------------------------------------------------
 Total job time:  8.19s(wall), 7.12s(cpu) 
 Tue Jun  4 15:32:58 2013

        *************************************************************
        *                                                           *
        *  Thank you very much for using Q-Chem.  Have a nice day.  *
        *                                                           *
        *************************************************************


0 sent ACK to 0 
now end server 0 ... 
 
**********************************************************************
Job 2 of 3 
**********************************************************************
 
Process 0 of 1 is on cl087.stfx.acenet.ca - thread support 1
initial socket setup ...start
initial socket setup ...done 
now start server 0 ... 

cmd = /usr/bin/ssh clhead /usr/local/qchem/bin/get_hostid 1825292994 > /scratch/tmp/6028457.1.short.q/qchem25396/lic.dat
                  Welcome to Q-Chem
     A Quantum Leap Into The Future Of Chemistry

 Y. Shao, L. Fusti-Molnar, Y. Jung, J. Kussmann, C. Ochsenfeld,
 S. T. Brown, A. T. B. Gilbert, L. V. Slipchenko,S. V. Levchenko,
 D. P. O'Neill, R. A. DiStasio Jr., R. C. Lochan, T. Wang,
 G. J. O. Beran, N. A. Besley, J. M. Herbert, C. Y. Lin,
 T. Van Voorhis, S. H. Chien, A. Sodt, R. P. Steele, 
 V. A. Rassolov, P. E. Maslen, P. P. Korambath, R. D. Adamson,
 B. Austin, J. Baker, E. F. C. Byrd, H. Dachsel, R. J. Doerksen,
 A. Dreuw, B. D. Dunietz, A. D. Dutoi, T. R. Furlani,
 S. R. Gwaltney, A. Heyden, S. Hirata, C.-P. Hsu, G. Kedziora,
 R. Z. Khaliullin, P. Klunzinger, A. M. Lee, M. S. Lee, W. Liang,
 I. Lotan, N. Nair, B. Peters, E. I. Proynov, P. A. Pieniazek, 
 Y. M. Rhee, J. Ritchie, E. Rosta, C. D. Sherrill, 
 A. C. Simmonett, J. E. Subotnik, H. L. Woodcock III,
 W. Zhang, A. T. Bell, A. K. Chakraborty, D. M. Chipman,
 F. J. Keil, A. Warshel, W. J. Hehre, H. F. Schaefer III,
 J. Kong, A. I. Krylov, P. M. W. Gill, M. Head-Gordon,
 Q-Chem, Version 3.1, Q-Chem, Inc., Pittsburgh, PA (2007).

 Additional authors for Version 3.1: 
 Z. Gan, Y. Zhao, N. E. Schultz, D. Truhlar, E. Epifanovsky and M. Oana.

 Additional authors for Version 3.2: 
 R. Baer, B. R. Brooks, D. Casanova, J.-D. Chai, C.-L. Cheng, 
 C. Cramer, D. Crittenden, A. Ghysels, G. Hawkins, E. G. Hohenstein, 
 C. Kelley, W. Kurlancheek, D. Liotard, E. Livshits, P. Manohar, 
 A. Marenich, D. Neuhauser, R. Olson, M. A. Rohrdanz, K. S. Thanthiriwatte, 
 A. J. W. Thom, V. Vanovschi, C. F. Williams, Q. Wu and Z.-Q. You. 


 Intel X86 Linux Version

 Q-chem begins on Tue Jun  4 15:33:00 2013  

 Parallel job on  1  processors
Processing $rem in /usr/local/qchem/config/preferences.

theFileMan(): MAXOPENFILES=974 MAX_SUB_FILE_NUM=16
Maximum size of a physical file is 2.0 GB, maximum size of a tmp-file is 32.0 GB


--------------------------------------------------------------
User input:
--------------------------------------------------------------

$molecule
0,1
Li         0.00000        0.00000       -0.02802
H          0.00000        0.00000        1.64909
$end

$comment
neutral
$end

$xc_functional
C PBE   1.00
X wPBE  1.00
$end


$rem
SYMMETRY_DECOMPOSITION	0
LRC_DFT                 true
exchange 		general
BASIS                   g3large
omega			700
mem_static              760
max_scf_cycles          200
scf_final_print         1
sym_ignore              true
$end

--------------------------------------------------------------
 Writing REM_CC_EA            2
 ----------------------------------------------------
       Standard Nuclear Orientation (Angstroms)
    I     Atom         X            Y            Z
 ----------------------------------------------------
    1      Li      0.000000     0.000000    -0.028020
    2      H       0.000000     0.000000     1.649090
 ----------------------------------------------------
 Nuclear Repulsion Energy =     0.9465876612 hartrees
 There are        2 alpha and        2 beta electrons
 Requested basis set is G3large
 There are 16 shells and 52 basis functions

Total QAlloc Memory Limit   2000 MB
Mega-Array Size       743 MB
MEM_STATIC part       760 MB

                       Distance Matrix (Angstroms)
             Li(  1)
   H (  2)  1.677110
 
 A cutoff of  1.0D-08 yielded    136 shell pairs
 There are   1462 function pairs (  1834 Cartesian)
Evaluating contribution to one-electron hamiltonian from nuclear
 Smallest overlap matrix eigenvalue = 4.09E-03
 Multipole matrices computed through 2nd order

  Scale SEOQF with 1.000000e-02/1.000000e-02/1.000000e-02

 Standard Electronic Orientation quadrupole field applied
 Guess from superposition of atomic densities
 Warning:  Energy on first SCF cycle will be non-variational
 Long-range K will be added via erf
 Coulomb attenuation parameter = 0.7 bohr**(-1)
 A restricted Kohn-Sham SCF calculation will be
 performed using Pulay DIIS extrapolation
 Exchange:  wPBE + LR-HF      Correlation:  PBE
 Using SG-1 standard quadrature grid
 SCF converges when DIIS error is below 1.0E-05
 Requested basis set is G3large
 There are 16 shells and 52 basis functions
 A cutoff of  1.0D-08 yielded    136 shell pairs
 There are   1462 function pairs (  1834 Cartesian)
 Warning!  Inaccurate integrated density:
   Number of electrons =     4
   Numerical integral  =     4.012981843575
   Relative error      =     0.3245460894 %
 ---------------------------------------
  Cycle       Energy         DIIS Error
 ---------------------------------------
    1      -7.7590611194      5.20E-03
    2      -8.0477065093      5.06E-03
    3      -8.0631119491      2.50E-03
    4      -8.0696230966      2.97E-04
    5      -8.0698607899      1.00E-04
    6      -8.0698939910      1.20E-05
    7      -8.0698942561      1.94E-06 Convergence criterion met
 ---------------------------------------
 One-Electron    Energy =   -12.3705375136
 Total Coulomb   Energy =     5.5760544334
 Alpha Exchange  Energy =    -0.5491725549
 Beta  Exchange  Energy =    -0.5491725549
 DFT   Exchange  Energy =    -1.0388038554
 DFT Correlation Energy =    -0.0848498718
 Nuclear Repu.   Energy =     0.9465876611
 Nuclear Attr.   Energy =   -20.3056231165
 Kinetic         Energy =     7.9350856028
 SCF time:  CPU 3.41 s  wall 4.12 s
 Final Alpha MO Eigenvalues
            1           2           3           4           5           6
    1  -2.2142394  -0.3159564  -0.0092379   0.0147697   0.0147697   0.0219858
            7
    1   0.0278083
 Analysis of SCF Wavefunction
 
 --------------------------------------------------------------
                    Orbital Energies (a.u.)
 --------------------------------------------------------------
 
 Alpha MOs
 -- Occupied --
 -2.214  -0.316
 -- Virtual --
 -0.009   0.015   0.015   0.022   0.028   0.053   0.053   0.076
  0.137   0.158   0.158   0.162   0.245   0.281   0.281   0.285
  0.285   0.400   0.520   0.565   0.565   0.598   0.598   0.610
  0.610   0.616   0.616   0.647   0.840   1.117   1.117   1.231
  1.297   1.297   1.378   1.378   1.595   2.968   3.759   4.315
  4.315   4.438   7.019   7.019   7.283  20.253  20.280  21.327
 21.331  21.331
 --------------------------------------------------------------
 
          Ground-State Mulliken Net Atomic Charges

     Atom                 Charge (a.u.)
  ----------------------------------------
      1 Li                    0.362340
      2 H                    -0.362340
  ----------------------------------------
  Sum of atomic charges =     0.000000

 -----------------------------------------------------------------
                    Cartesian Multipole Moments
 -----------------------------------------------------------------
    Charge (ESU x 10^10)
                 0.0000
    Dipole Moment (Debye)
         X       0.0000      Y       0.0000      Z      -6.2098
       Tot       6.2098
    Quadrupole Moments (Debye-Ang)
        XX      -5.1917     XY       0.0000     YY      -5.1917
        XZ       0.0000     YZ       0.0000     ZZ     -12.2912
    Octapole Moments (Debye-Ang^2)
       XXX       0.0000    XXY       0.0000    XYY       0.0000
       YYY       0.0000    XXZ      -6.3994    XYZ       0.0000
       YYZ      -6.3994    XZZ       0.0000    YZZ       0.0000
       ZZZ     -27.3444
    Hexadecapole Moments (Debye-Ang^3)
      XXXX     -11.1563   XXXY       0.0001   XXYY      -3.7187
      XYYY       0.0001   YYYY     -11.1562   XXXZ       0.0000
      XXYZ       0.0000   XYYZ       0.0000   YYYZ       0.0000
      XXZZ     -12.1379   XYZZ       0.0000   YYZZ     -12.1379
      XZZZ       0.0001   YZZZ       0.0000   ZZZZ     -71.2375
 -----------------------------------------------------------------
 Total job time:  4.19s(wall), 3.47s(cpu) 
 Tue Jun  4 15:33:04 2013

        *************************************************************
        *                                                           *
        *  Thank you very much for using Q-Chem.  Have a nice day.  *
        *                                                           *
        *************************************************************


0 sent ACK to 0 
now end server 0 ... 
 
**********************************************************************
Job 3 of 3 
**********************************************************************
 
Process 0 of 1 is on cl087.stfx.acenet.ca - thread support 1
initial socket setup ...start
initial socket setup ...done 
now start server 0 ... 

cmd = /usr/bin/ssh clhead /usr/local/qchem/bin/get_hostid 1075053593 > /scratch/tmp/6028457.1.short.q/qchem25396/lic.dat
                  Welcome to Q-Chem
     A Quantum Leap Into The Future Of Chemistry

 Y. Shao, L. Fusti-Molnar, Y. Jung, J. Kussmann, C. Ochsenfeld,
 S. T. Brown, A. T. B. Gilbert, L. V. Slipchenko,S. V. Levchenko,
 D. P. O'Neill, R. A. DiStasio Jr., R. C. Lochan, T. Wang,
 G. J. O. Beran, N. A. Besley, J. M. Herbert, C. Y. Lin,
 T. Van Voorhis, S. H. Chien, A. Sodt, R. P. Steele, 
 V. A. Rassolov, P. E. Maslen, P. P. Korambath, R. D. Adamson,
 B. Austin, J. Baker, E. F. C. Byrd, H. Dachsel, R. J. Doerksen,
 A. Dreuw, B. D. Dunietz, A. D. Dutoi, T. R. Furlani,
 S. R. Gwaltney, A. Heyden, S. Hirata, C.-P. Hsu, G. Kedziora,
 R. Z. Khaliullin, P. Klunzinger, A. M. Lee, M. S. Lee, W. Liang,
 I. Lotan, N. Nair, B. Peters, E. I. Proynov, P. A. Pieniazek, 
 Y. M. Rhee, J. Ritchie, E. Rosta, C. D. Sherrill, 
 A. C. Simmonett, J. E. Subotnik, H. L. Woodcock III,
 W. Zhang, A. T. Bell, A. K. Chakraborty, D. M. Chipman,
 F. J. Keil, A. Warshel, W. J. Hehre, H. F. Schaefer III,
 J. Kong, A. I. Krylov, P. M. W. Gill, M. Head-Gordon,
 Q-Chem, Version 3.1, Q-Chem, Inc., Pittsburgh, PA (2007).

 Additional authors for Version 3.1: 
 Z. Gan, Y. Zhao, N. E. Schultz, D. Truhlar, E. Epifanovsky and M. Oana.

 Additional authors for Version 3.2: 
 R. Baer, B. R. Brooks, D. Casanova, J.-D. Chai, C.-L. Cheng, 
 C. Cramer, D. Crittenden, A. Ghysels, G. Hawkins, E. G. Hohenstein, 
 C. Kelley, W. Kurlancheek, D. Liotard, E. Livshits, P. Manohar, 
 A. Marenich, D. Neuhauser, R. Olson, M. A. Rohrdanz, K. S. Thanthiriwatte, 
 A. J. W. Thom, V. Vanovschi, C. F. Williams, Q. Wu and Z.-Q. You. 


 Intel X86 Linux Version

 Q-chem begins on Tue Jun  4 15:33:07 2013  

 Parallel job on  1  processors
Processing $rem in /usr/local/qchem/config/preferences.

theFileMan(): MAXOPENFILES=974 MAX_SUB_FILE_NUM=16
Maximum size of a physical file is 2.0 GB, maximum size of a tmp-file is 32.0 GB


--------------------------------------------------------------
User input:
--------------------------------------------------------------

$molecule
1,2
Li         0.00000        0.00000       -0.02802
H          0.00000        0.00000        1.64909
$end

$comment
positive
$end

$xc_functional
C PBE   1.00
X wPBE  1.00
$end

$rem
SYMMETRY_DECOMPOSITION	0
LRC_DFT                 true
exchange 		general
BASIS                   g3large
omega			700
mem_static              760
max_scf_cycles          200
scf_final_print         1
sym_ignore              true
$end

--------------------------------------------------------------
 Writing REM_CC_EA            2
 ----------------------------------------------------
       Standard Nuclear Orientation (Angstroms)
    I     Atom         X            Y            Z
 ----------------------------------------------------
    1      Li      0.000000     0.000000    -0.028020
    2      H       0.000000     0.000000     1.649090
 ----------------------------------------------------
 Nuclear Repulsion Energy =     0.9465876612 hartrees
 There are        2 alpha and        1 beta electrons
 Requested basis set is G3large
 There are 16 shells and 52 basis functions

Total QAlloc Memory Limit   2000 MB
Mega-Array Size       743 MB
MEM_STATIC part       760 MB

                       Distance Matrix (Angstroms)
             Li(  1)
   H (  2)  1.677110
 
 A cutoff of  1.0D-08 yielded    136 shell pairs
 There are   1462 function pairs (  1834 Cartesian)
Evaluating contribution to one-electron hamiltonian from nuclear
 Smallest overlap matrix eigenvalue = 4.09E-03
 Multipole matrices computed through 2nd order

  Scale SEOQF with 1.000000e-02/1.000000e-02/1.000000e-02

 Standard Electronic Orientation quadrupole field applied
 Guess from superposition of atomic densities
 Warning:  Energy on first SCF cycle will be non-variational
 Long-range K will be added via erf
 Coulomb attenuation parameter = 0.7 bohr**(-1)
 An unrestricted Kohn-Sham SCF calculation will be
 performed using Pulay DIIS extrapolation
 Exchange:  wPBE + LR-HF      Correlation:  PBE
 Using SG-1 standard quadrature grid
 SCF converges when DIIS error is below 1.0E-05
 Requested basis set is G3large
 There are 16 shells and 52 basis functions
 A cutoff of  1.0D-08 yielded    136 shell pairs
 There are   1462 function pairs (  1834 Cartesian)
 Warning!  Inaccurate integrated density:
   Number of electrons =     3
   Numerical integral  =     4.012981843575
   Relative error      =    33.7660614525 %
 ---------------------------------------
  Cycle       Energy         DIIS Error
 ---------------------------------------
    1      -7.7590611194      5.20E-03
    2      -7.7677718298      2.57E-03
    3      -7.7792782286      1.07E-03
    4      -7.7816184382      7.05E-05
    5      -7.7816265619      1.00E-05
    6      -7.7816267711      1.92E-06 Convergence criterion met
 ---------------------------------------
 One-Electron    Energy =   -10.9935444885
 Total Coulomb   Energy =     4.2874811282
 Alpha Exchange  Energy =    -0.5943078385
 Beta  Exchange  Energy =    -0.3487363208
 DFT   Exchange  Energy =    -1.0273949148
 DFT Correlation Energy =    -0.0517119979
 Nuclear Repu.   Energy =     0.9465876611
 Nuclear Attr.   Energy =   -18.7567465782
 Kinetic         Energy =     7.7632020897
 <S^2> = 0.7500
 SCF time:  CPU 3.12 s  wall 3.75 s
 Final Alpha MO Eigenvalues
            1           2           3           4           5           6
    1  -2.5408644  -0.8009524  -0.1729541  -0.1341113  -0.1341072  -0.0855430
            7
    1  -0.0689000
 Final Beta MO Eigenvalues
            1           2           3           4           5           6
    1  -2.5379209  -0.2014190  -0.1380169  -0.1257571  -0.1257518  -0.0754232
 Analysis of SCF Wavefunction
 
 --------------------------------------------------------------
                    Orbital Energies (a.u.)
 --------------------------------------------------------------
 
 Alpha MOs
 -- Occupied --
 -2.541  -0.801
 -- Virtual --
 -0.173  -0.134  -0.134  -0.086  -0.069  -0.058  -0.058  -0.051
 -0.026  -0.004  -0.003  -0.003   0.037   0.059   0.059   0.082
  0.082   0.196   0.249   0.317   0.317   0.350   0.357   0.357
  0.389   0.389   0.397   0.397   0.581   0.777   0.777   0.888
  1.027   1.028   1.071   1.071   1.277   2.473   3.417   3.804
  3.804   3.949   6.696   6.696   6.956  19.928  19.951  21.000
 21.002  21.002
 
 Beta MOs
 -- Occupied --
 -2.538
 -- Virtual --
 -0.201  -0.138  -0.126  -0.126  -0.075  -0.060  -0.056  -0.056
 -0.036  -0.011  -0.003   0.000   0.000   0.082   0.082   0.085
  0.085   0.114   0.208   0.299   0.319   0.319   0.394   0.394
  0.396   0.396   0.398   0.398   0.485   0.682   0.914   0.914
  1.028   1.029   1.083   1.162   1.162   1.347   2.925   3.479
  4.292   4.292   4.494   6.698   6.698   6.961  19.930  19.955
 21.000  21.002  21.002
 --------------------------------------------------------------
 
          Ground-State Mulliken Net Atomic Charges

     Atom                 Charge (a.u.)    Spin (a.u.)
  --------------------------------------------------------
      1 Li                    0.828188       0.169017
      2 H                     0.171812       0.830983
  --------------------------------------------------------
  Sum of atomic charges =     1.000000
  Sum of spin   charges =     1.000000

 -----------------------------------------------------------------
                    Cartesian Multipole Moments
 -----------------------------------------------------------------
    Charge (ESU x 10^10)
                 4.8032
    Dipole Moment (Debye)
         X       0.0000      Y       0.0000      Z       0.4363
       Tot       0.4363
    Quadrupole Moments (Debye-Ang)
        XX      -1.6208     XY       0.0000     YY      -1.6208
        XZ       0.0000     YZ       0.0000     ZZ       0.1739
    Octapole Moments (Debye-Ang^2)
       XXX       0.0000    XXY       0.0000    XYY       0.0000
       YYY       0.0000    XXZ      -1.7988    XYZ       0.0000
       YYZ      -1.7988    XZZ       0.0000    YZZ       0.0000
       ZZZ      -1.1815
    Hexadecapole Moments (Debye-Ang^3)
      XXXX      -1.5813   XXXY       0.0000   XXYY      -0.5271
      XYYY       0.0000   YYYY      -1.5813   XXXZ       0.0000
      XXYZ       0.0000   XYYZ       0.0000   YYYZ       0.0000
      XXZZ      -3.2065   XYZZ       0.0000   YYZZ      -3.2065
      XZZZ       0.0000   YZZZ       0.0000   ZZZZ      -8.9507
 -----------------------------------------------------------------
 Total job time:  3.83s(wall), 3.18s(cpu) 
 Tue Jun  4 15:33:11 2013

        *************************************************************
        *                                                           *
        *  Thank you very much for using Q-Chem.  Have a nice day.  *
        *                                                           *
        *************************************************************


0 sent ACK to 0 
now end server 0 ... 
