Process 0 of 1 is on cl233.stfx.acenet.ca - thread support 1
initial socket setup ...start
initial socket setup ...done 
now start server 0 ... 

cmd = /usr/bin/ssh clhead /usr/local/qchem/bin/get_hostid 1879199104 > /scratch/tmp/6064630.1.long.q/qchem26217/lic.dat
                  Welcome to Q-Chem
     A Quantum Leap Into The Future Of Chemistry

 Y. Shao, L. Fusti-Molnar, Y. Jung, J. Kussmann, C. Ochsenfeld,
 S. T. Brown, A. T. B. Gilbert, L. V. Slipchenko,S. V. Levchenko,
 D. P. O'Neill, R. A. DiStasio Jr., R. C. Lochan, T. Wang,
 G. J. O. Beran, N. A. Besley, J. M. Herbert, C. Y. Lin,
 T. Van Voorhis, S. H. Chien, A. Sodt, R. P. Steele, 
 V. A. Rassolov, P. E. Maslen, P. P. Korambath, R. D. Adamson,
 B. Austin, J. Baker, E. F. C. Byrd, H. Dachsel, R. J. Doerksen,
 A. Dreuw, B. D. Dunietz, A. D. Dutoi, T. R. Furlani,
 S. R. Gwaltney, A. Heyden, S. Hirata, C.-P. Hsu, G. Kedziora,
 R. Z. Khaliullin, P. Klunzinger, A. M. Lee, M. S. Lee, W. Liang,
 I. Lotan, N. Nair, B. Peters, E. I. Proynov, P. A. Pieniazek, 
 Y. M. Rhee, J. Ritchie, E. Rosta, C. D. Sherrill, 
 A. C. Simmonett, J. E. Subotnik, H. L. Woodcock III,
 W. Zhang, A. T. Bell, A. K. Chakraborty, D. M. Chipman,
 F. J. Keil, A. Warshel, W. J. Hehre, H. F. Schaefer III,
 J. Kong, A. I. Krylov, P. M. W. Gill, M. Head-Gordon,
 Q-Chem, Version 3.1, Q-Chem, Inc., Pittsburgh, PA (2007).

 Additional authors for Version 3.1: 
 Z. Gan, Y. Zhao, N. E. Schultz, D. Truhlar, E. Epifanovsky and M. Oana.

 Additional authors for Version 3.2: 
 R. Baer, B. R. Brooks, D. Casanova, J.-D. Chai, C.-L. Cheng, 
 C. Cramer, D. Crittenden, A. Ghysels, G. Hawkins, E. G. Hohenstein, 
 C. Kelley, W. Kurlancheek, D. Liotard, E. Livshits, P. Manohar, 
 A. Marenich, D. Neuhauser, R. Olson, M. A. Rohrdanz, K. S. Thanthiriwatte, 
 A. J. W. Thom, V. Vanovschi, C. F. Williams, Q. Wu and Z.-Q. You. 


 Intel X86 Linux Version

 Q-chem begins on Mon Jul  8 12:24:20 2013  

 Parallel job on  1  processors
Processing $rem in /usr/local/qchem/config/preferences.

theFileMan(): MAXOPENFILES=974 MAX_SUB_FILE_NUM=16
Maximum size of a physical file is 2.0 GB, maximum size of a tmp-file is 32.0 GB


--------------------------------------------------------------
User input:
--------------------------------------------------------------

$molecule
-1,2
Si         0.00000        0.00000        0.00865
H          1.08915        0.00000        1.06584
H         -1.08915        0.00000        1.06584
$end

$comment
negative
$end

$xc_functional
C PBE   1.00
X wPBE  1.00
$end

$rem
SYMMETRY_DECOMPOSITION	0
exchange 		general
LRC_DFT                 true
BASIS                   g3large
omega			900
mem_static              760
max_scf_cycles          200
scf_final_print         1
sym_ignore              true
$end

--------------------------------------------------------------
 Writing REM_CC_EA            3
 ----------------------------------------------------
       Standard Nuclear Orientation (Angstroms)
    I     Atom         X            Y            Z
 ----------------------------------------------------
    1      Si      0.000000     0.000000     0.008650
    2      H       1.089150     0.000000     1.065840
    3      H      -1.089150     0.000000     1.065840
 ----------------------------------------------------
 Nuclear Repulsion Energy =    10.0046772308 hartrees
 There are        9 alpha and        8 beta electrons
 Requested basis set is G3large
 There are 31 shells and 86 basis functions

Total QAlloc Memory Limit   2000 MB
Mega-Array Size       743 MB
MEM_STATIC part       760 MB

                       Distance Matrix (Angstroms)
             Si(  1)   H (  2)
   H (  2)  1.517860
   H (  3)  1.517860  2.178300
 
 A cutoff of  1.0D-08 yielded    496 shell pairs
 There are   3877 function pairs (  5178 Cartesian)
Evaluating contribution to one-electron hamiltonian from nuclear
 Smallest overlap matrix eigenvalue = 2.05E-03
 Multipole matrices computed through 2nd order

  Scale SEOQF with 1.000000e-01/1.000000e-01/1.000000e-01

 Standard Electronic Orientation quadrupole field applied
 Nucleus-field energy     =    -0.0000000002 hartrees
 Guess from superposition of atomic densities
 Warning:  Energy on first SCF cycle will be non-variational
 Long-range K will be added via erf
 Coulomb attenuation parameter = 0.9 bohr**(-1)
 An unrestricted Kohn-Sham SCF calculation will be
 performed using Pulay DIIS extrapolation
 Exchange:  wPBE + LR-HF      Correlation:  PBE
 Using SG-1 standard quadrature grid
 SCF converges when DIIS error is below 1.0E-05
 Requested basis set is G3large
 There are 31 shells and 86 basis functions
 A cutoff of  1.0D-08 yielded    496 shell pairs
 There are   3877 function pairs (  5178 Cartesian)
 Warning!  Inaccurate integrated density:
   Number of electrons =    17
   Numerical integral  =    16.000000727468
   Relative error      =    -5.8823486620 %
 ---------------------------------------
  Cycle       Energy         DIIS Error
 ---------------------------------------
    1    -290.3460030660      2.23E-02
    2    -290.5758004132      2.75E-03
    3    -290.6022051727      1.17E-03
    4    -290.6061432901      4.46E-04
    5    -290.6077063757      1.75E-04
    6    -290.6082083255      6.11E-05
    7    -290.6083087551      1.91E-05
    8    -290.6083219485      8.58E-06 Convergence criterion met
 ---------------------------------------
 One-Electron    Energy =  -426.1195469199
 Total Coulomb   Energy =   147.2360121184
 Alpha Exchange  Energy =    -3.2514447301
 Beta  Exchange  Energy =    -3.0438238257
 DFT   Exchange  Energy =   -14.8550612019
 DFT Correlation Energy =    -0.5791346198
 Nuclear Repu.   Energy =    10.0046772306
 Nuclear Attr.   Energy =  -716.1417197055
 Kinetic         Energy =   290.0221727856
 <S^2> = 0.7679
 SCF time:  CPU 13.37 s  wall 14.02 s
 Final Alpha MO Eigenvalues
            1           2           3           4           5           6
    1 -65.6478196  -5.3030168  -3.6591615  -3.6545043  -3.6515011  -0.4720125
            7           8           9          10          11          12
    1  -0.2462011  -0.1337070  -0.0687972   0.1948392   0.2096701   0.2196423
           13          14
    1   0.2254651   0.2290026
 Final Beta MO Eigenvalues
            1           2           3           4           5           6
    1 -65.6457207  -5.3007304  -3.6532542  -3.6506444  -3.6506146  -0.4357560
            7           8           9          10          11          12
    1  -0.2435536  -0.1158251   0.1905362   0.1966362   0.2104055   0.2215437
           13
    1   0.2294918
 Analysis of SCF Wavefunction
 
 --------------------------------------------------------------
                    Orbital Energies (a.u.)
 --------------------------------------------------------------
 
 Alpha MOs
 -- Occupied --
-65.648  -5.303  -3.659  -3.655  -3.652  -0.472  -0.246  -0.134
 -0.069
 -- Virtual --
  0.195   0.210   0.220   0.225   0.229   0.263   0.357   0.394
  0.434   0.438   0.443   0.513   0.554   0.562   0.569   0.588
  0.744   0.769   0.797   0.802   0.804   0.813   0.820   0.859
  1.042   1.055   1.100   1.124   1.136   1.204   1.216   1.327
  1.424   1.436   1.562   1.656   1.689   1.723   1.785   1.878
  2.550   2.551   2.558   2.561   2.567   2.662   2.700   3.268
  3.331   3.984   3.987   4.029   4.130   4.230   4.471   4.481
  4.494   4.496   4.677   5.042   6.210  11.789  11.856  11.870
 17.974  18.039  18.076  18.077  18.334  22.682  22.683  22.686
 22.692  22.694  22.717  22.719 141.144
 
 Beta MOs
 -- Occupied --
-65.646  -5.301  -3.653  -3.651  -3.651  -0.436  -0.244  -0.116
 -- Virtual --
  0.191   0.197   0.210   0.222   0.229   0.276   0.284   0.360
  0.414   0.444   0.471   0.472   0.543   0.557   0.564   0.588
  0.610   0.748   0.773   0.808   0.816   0.819   0.824   0.830
  0.869   1.045   1.056   1.100   1.144   1.155   1.218   1.227
  1.326   1.433   1.444   1.563   1.681   1.690   1.726   1.789
  1.880   2.562   2.568   2.570   2.577   2.578   2.669   2.705
  3.266   3.329   3.990   3.992   4.030   4.137   4.229   4.470
  4.480   4.492   4.496   4.676   5.042   6.213  11.798  11.857
 11.871  17.975  18.046  18.081  18.082  18.335  22.684  22.685
 22.687  22.693  22.696  22.718  22.720 141.146
 --------------------------------------------------------------
 
          Ground-State Mulliken Net Atomic Charges

     Atom                 Charge (a.u.)    Spin (a.u.)
  --------------------------------------------------------
      1 Si                   -0.684400       1.070307
      2 H                    -0.157806      -0.035092
      3 H                    -0.157794      -0.035214
  --------------------------------------------------------
  Sum of atomic charges =    -1.000000
  Sum of spin   charges =     1.000000

 -----------------------------------------------------------------
                    Cartesian Multipole Moments
 -----------------------------------------------------------------
    Charge (ESU x 10^10)
                -4.8032
    Dipole Moment (Debye)
         X       0.0000      Y      -0.0083      Z      -0.0197
       Tot       0.0214
    Quadrupole Moments (Debye-Ang)
        XX     -21.9631     XY       0.0014     YY     -23.6008
        XZ      -0.0001     YZ       0.0202     ZZ     -24.9429
    Octapole Moments (Debye-Ang^2)
       XXX       0.0000    XXY      -0.0118    XYY      -0.0002
       YYY      -0.0347    XXZ      -4.6387    XYZ      -0.0031
       YYZ      -0.6004    XZZ       0.0003    YZZ      -0.0093
       ZZZ      -6.3116
    Hexadecapole Moments (Debye-Ang^3)
      XXXX     -65.8317   XXXY       0.0060   XXYY     -22.4848
      XYYY       0.0088   YYYY     -71.9747   XXXZ      -0.0004
      XXYZ       0.0270   XYYZ      -0.0001   YYYZ       0.0671
      XXZZ     -26.5701   XYZZ       0.0007   YYZZ     -25.2083
      XZZZ      -0.0003   YZZZ       0.0735   ZZZZ     -82.9850
 -----------------------------------------------------------------
 Total job time:  14.13s(wall), 13.46s(cpu) 
 Mon Jul  8 12:24:34 2013

        *************************************************************
        *                                                           *
        *  Thank you very much for using Q-Chem.  Have a nice day.  *
        *                                                           *
        *************************************************************


0 sent ACK to 0 
now end server 0 ... 
 
**********************************************************************
Job 2 of 3 
**********************************************************************
 
Process 0 of 1 is on cl233.stfx.acenet.ca - thread support 1
initial socket setup ...start
initial socket setup ...done 
now start server 0 ... 

cmd = /usr/bin/ssh clhead /usr/local/qchem/bin/get_hostid 2065720460 > /scratch/tmp/6064630.1.long.q/qchem26217/lic.dat
                  Welcome to Q-Chem
     A Quantum Leap Into The Future Of Chemistry

 Y. Shao, L. Fusti-Molnar, Y. Jung, J. Kussmann, C. Ochsenfeld,
 S. T. Brown, A. T. B. Gilbert, L. V. Slipchenko,S. V. Levchenko,
 D. P. O'Neill, R. A. DiStasio Jr., R. C. Lochan, T. Wang,
 G. J. O. Beran, N. A. Besley, J. M. Herbert, C. Y. Lin,
 T. Van Voorhis, S. H. Chien, A. Sodt, R. P. Steele, 
 V. A. Rassolov, P. E. Maslen, P. P. Korambath, R. D. Adamson,
 B. Austin, J. Baker, E. F. C. Byrd, H. Dachsel, R. J. Doerksen,
 A. Dreuw, B. D. Dunietz, A. D. Dutoi, T. R. Furlani,
 S. R. Gwaltney, A. Heyden, S. Hirata, C.-P. Hsu, G. Kedziora,
 R. Z. Khaliullin, P. Klunzinger, A. M. Lee, M. S. Lee, W. Liang,
 I. Lotan, N. Nair, B. Peters, E. I. Proynov, P. A. Pieniazek, 
 Y. M. Rhee, J. Ritchie, E. Rosta, C. D. Sherrill, 
 A. C. Simmonett, J. E. Subotnik, H. L. Woodcock III,
 W. Zhang, A. T. Bell, A. K. Chakraborty, D. M. Chipman,
 F. J. Keil, A. Warshel, W. J. Hehre, H. F. Schaefer III,
 J. Kong, A. I. Krylov, P. M. W. Gill, M. Head-Gordon,
 Q-Chem, Version 3.1, Q-Chem, Inc., Pittsburgh, PA (2007).

 Additional authors for Version 3.1: 
 Z. Gan, Y. Zhao, N. E. Schultz, D. Truhlar, E. Epifanovsky and M. Oana.

 Additional authors for Version 3.2: 
 R. Baer, B. R. Brooks, D. Casanova, J.-D. Chai, C.-L. Cheng, 
 C. Cramer, D. Crittenden, A. Ghysels, G. Hawkins, E. G. Hohenstein, 
 C. Kelley, W. Kurlancheek, D. Liotard, E. Livshits, P. Manohar, 
 A. Marenich, D. Neuhauser, R. Olson, M. A. Rohrdanz, K. S. Thanthiriwatte, 
 A. J. W. Thom, V. Vanovschi, C. F. Williams, Q. Wu and Z.-Q. You. 


 Intel X86 Linux Version

 Q-chem begins on Mon Jul  8 12:24:38 2013  

 Parallel job on  1  processors
Processing $rem in /usr/local/qchem/config/preferences.

theFileMan(): MAXOPENFILES=974 MAX_SUB_FILE_NUM=16
Maximum size of a physical file is 2.0 GB, maximum size of a tmp-file is 32.0 GB


--------------------------------------------------------------
User input:
--------------------------------------------------------------

$molecule
0,1
Si         0.00000        0.00000        0.00865
H          1.08915        0.00000        1.06584
H         -1.08915        0.00000        1.06584
$end

$comment
neutral
$end

$xc_functional
C PBE   1.00
X wPBE  1.00
$end


$rem
SYMMETRY_DECOMPOSITION	0
LRC_DFT                 true
exchange 		general
BASIS                   g3large
omega			900
mem_static              760
max_scf_cycles          200
scf_final_print         1
sym_ignore              true
$end

--------------------------------------------------------------
 Writing REM_CC_EA            3
 ----------------------------------------------------
       Standard Nuclear Orientation (Angstroms)
    I     Atom         X            Y            Z
 ----------------------------------------------------
    1      Si      0.000000     0.000000     0.008650
    2      H       1.089150     0.000000     1.065840
    3      H      -1.089150     0.000000     1.065840
 ----------------------------------------------------
 Nuclear Repulsion Energy =    10.0046772308 hartrees
 There are        8 alpha and        8 beta electrons
 Requested basis set is G3large
 There are 31 shells and 86 basis functions

Total QAlloc Memory Limit   2000 MB
Mega-Array Size       743 MB
MEM_STATIC part       760 MB

                       Distance Matrix (Angstroms)
             Si(  1)   H (  2)
   H (  2)  1.517860
   H (  3)  1.517860  2.178300
 
 A cutoff of  1.0D-08 yielded    496 shell pairs
 There are   3877 function pairs (  5178 Cartesian)
Evaluating contribution to one-electron hamiltonian from nuclear
 Smallest overlap matrix eigenvalue = 2.05E-03
 Multipole matrices computed through 2nd order

  Scale SEOQF with 1.000000e-01/1.000000e-01/1.000000e-01

 Standard Electronic Orientation quadrupole field applied
 Nucleus-field energy     =    -0.0000000002 hartrees
 Guess from superposition of atomic densities
 Warning:  Energy on first SCF cycle will be non-variational
 Long-range K will be added via erf
 Coulomb attenuation parameter = 0.9 bohr**(-1)
 A restricted Kohn-Sham SCF calculation will be
 performed using Pulay DIIS extrapolation
 Exchange:  wPBE + LR-HF      Correlation:  PBE
 Using SG-1 standard quadrature grid
 SCF converges when DIIS error is below 1.0E-05
 Requested basis set is G3large
 There are 31 shells and 86 basis functions
 A cutoff of  1.0D-08 yielded    496 shell pairs
 There are   3877 function pairs (  5178 Cartesian)
 ---------------------------------------
  Cycle       Energy         DIIS Error
 ---------------------------------------
    1    -290.3460030660      2.23E-02
    2    -290.5407916673      2.49E-03
    3    -290.5581520205      9.37E-04
    4    -290.5620557598      4.38E-04
    5    -290.5630194975      1.77E-04
    6    -290.5632390958      5.45E-05
    7    -290.5632587820      1.42E-05
    8    -290.5632603461      6.46E-06 Convergence criterion met
 ---------------------------------------
 One-Electron    Energy =  -421.8898927287
 Total Coulomb   Energy =   142.8514470137
 Alpha Exchange  Energy =    -3.0665094417
 Beta  Exchange  Energy =    -3.0665094417
 DFT   Exchange  Energy =   -14.8410907784
 DFT Correlation Energy =    -0.5553822000
 Nuclear Repu.   Energy =    10.0046772306
 Nuclear Attr.   Energy =  -711.8326893765
 Kinetic         Energy =   289.9427966478
 SCF time:  CPU 11.71 s  wall 12.01 s
 Final Alpha MO Eigenvalues
            1           2           3           4           5           6
    1 -65.9254437  -5.5789368  -3.9377672  -3.9281531  -3.9246713  -0.6991780
            7           8           9          10          11          12
    1  -0.4836768  -0.3671160  -0.0231685   0.0569717   0.0718052   0.0848897
           13
    1   0.0921511
 Analysis of SCF Wavefunction
 
 --------------------------------------------------------------
                    Orbital Energies (a.u.)
 --------------------------------------------------------------
 
 Alpha MOs
 -- Occupied --
-65.925  -5.579  -3.938  -3.928  -3.925  -0.699  -0.484  -0.367
 -- Virtual --
 -0.023   0.057   0.072   0.085   0.092   0.094   0.116   0.169
  0.212   0.236   0.242   0.245   0.332   0.361   0.367   0.383
  0.404   0.531   0.563   0.584   0.587   0.592   0.600   0.607
  0.646   0.827   0.840   0.865   0.882   0.894   0.964   0.989
  1.110   1.192   1.205   1.334   1.409   1.449   1.479   1.556
  1.646   2.282   2.290   2.296   2.299   2.305   2.409   2.447
  3.035   3.096   3.708   3.711   3.767   3.852   3.981   4.236
  4.250   4.261   4.263   4.441   4.797   5.943  11.512  11.585
 11.598  17.702  17.761  17.799  17.800  18.063  22.402  22.407
 22.410  22.416  22.419  22.444  22.446 140.867
 --------------------------------------------------------------
 
          Ground-State Mulliken Net Atomic Charges

     Atom                 Charge (a.u.)
  ----------------------------------------
      1 Si                    0.101053
      2 H                    -0.050526
      3 H                    -0.050527
  ----------------------------------------
  Sum of atomic charges =     0.000000

 -----------------------------------------------------------------
                    Cartesian Multipole Moments
 -----------------------------------------------------------------
    Charge (ESU x 10^10)
                 0.0000
    Dipole Moment (Debye)
         X       0.0000      Y      -0.0024      Z       0.3568
       Tot       0.3569
    Quadrupole Moments (Debye-Ang)
        XX     -15.8694     XY      -0.0005     YY     -12.1376
        XZ       0.0000     YZ       0.0054     ZZ     -18.0109
    Octapole Moments (Debye-Ang^2)
       XXX      -0.0001    XXY       0.0001    XYY       0.0000
       YYY      -0.0065    XXZ      -3.0776    XYZ      -0.0003
       YYZ      -1.0555    XZZ       0.0000    YZZ       0.0009
       ZZZ      -5.7581
    Hexadecapole Moments (Debye-Ang^3)
      XXXX     -41.0060   XXXY      -0.0008   XXYY      -9.5980
      XYYY      -0.0007   YYYY     -16.2264   XXXZ      -0.0001
      XXYZ       0.0042   XYYZ       0.0000   YYYZ       0.0091
      XXZZ     -15.0984   XYZZ      -0.0004   YYZZ     -10.9530
      XZZZ       0.0000   YZZZ       0.0098   ZZZZ     -49.2778
 -----------------------------------------------------------------
 Total job time:  12.11s(wall), 11.80s(cpu) 
 Mon Jul  8 12:24:50 2013

        *************************************************************
        *                                                           *
        *  Thank you very much for using Q-Chem.  Have a nice day.  *
        *                                                           *
        *************************************************************


0 sent ACK to 0 
now end server 0 ... 
 
**********************************************************************
Job 3 of 3 
**********************************************************************
 
Process 0 of 1 is on cl233.stfx.acenet.ca - thread support 1
initial socket setup ...start
initial socket setup ...done 
now start server 0 ... 

cmd = /usr/bin/ssh clhead /usr/local/qchem/bin/get_hostid 416986329 > /scratch/tmp/6064630.1.long.q/qchem26217/lic.dat
                  Welcome to Q-Chem
     A Quantum Leap Into The Future Of Chemistry

 Y. Shao, L. Fusti-Molnar, Y. Jung, J. Kussmann, C. Ochsenfeld,
 S. T. Brown, A. T. B. Gilbert, L. V. Slipchenko,S. V. Levchenko,
 D. P. O'Neill, R. A. DiStasio Jr., R. C. Lochan, T. Wang,
 G. J. O. Beran, N. A. Besley, J. M. Herbert, C. Y. Lin,
 T. Van Voorhis, S. H. Chien, A. Sodt, R. P. Steele, 
 V. A. Rassolov, P. E. Maslen, P. P. Korambath, R. D. Adamson,
 B. Austin, J. Baker, E. F. C. Byrd, H. Dachsel, R. J. Doerksen,
 A. Dreuw, B. D. Dunietz, A. D. Dutoi, T. R. Furlani,
 S. R. Gwaltney, A. Heyden, S. Hirata, C.-P. Hsu, G. Kedziora,
 R. Z. Khaliullin, P. Klunzinger, A. M. Lee, M. S. Lee, W. Liang,
 I. Lotan, N. Nair, B. Peters, E. I. Proynov, P. A. Pieniazek, 
 Y. M. Rhee, J. Ritchie, E. Rosta, C. D. Sherrill, 
 A. C. Simmonett, J. E. Subotnik, H. L. Woodcock III,
 W. Zhang, A. T. Bell, A. K. Chakraborty, D. M. Chipman,
 F. J. Keil, A. Warshel, W. J. Hehre, H. F. Schaefer III,
 J. Kong, A. I. Krylov, P. M. W. Gill, M. Head-Gordon,
 Q-Chem, Version 3.1, Q-Chem, Inc., Pittsburgh, PA (2007).

 Additional authors for Version 3.1: 
 Z. Gan, Y. Zhao, N. E. Schultz, D. Truhlar, E. Epifanovsky and M. Oana.

 Additional authors for Version 3.2: 
 R. Baer, B. R. Brooks, D. Casanova, J.-D. Chai, C.-L. Cheng, 
 C. Cramer, D. Crittenden, A. Ghysels, G. Hawkins, E. G. Hohenstein, 
 C. Kelley, W. Kurlancheek, D. Liotard, E. Livshits, P. Manohar, 
 A. Marenich, D. Neuhauser, R. Olson, M. A. Rohrdanz, K. S. Thanthiriwatte, 
 A. J. W. Thom, V. Vanovschi, C. F. Williams, Q. Wu and Z.-Q. You. 


 Intel X86 Linux Version

 Q-chem begins on Mon Jul  8 12:24:52 2013  

 Parallel job on  1  processors
Processing $rem in /usr/local/qchem/config/preferences.

theFileMan(): MAXOPENFILES=974 MAX_SUB_FILE_NUM=16
Maximum size of a physical file is 2.0 GB, maximum size of a tmp-file is 32.0 GB


--------------------------------------------------------------
User input:
--------------------------------------------------------------

$molecule
1,2
Si         0.00000        0.00000        0.00865
H          1.08915        0.00000        1.06584
H         -1.08915        0.00000        1.06584
$end

$comment
positive
$end

$xc_functional
C PBE   1.00
X wPBE  1.00
$end

$rem
SYMMETRY_DECOMPOSITION	0
LRC_DFT                 true
exchange 		general
BASIS                   g3large
omega			900
mem_static              760
max_scf_cycles          200
scf_final_print         1
sym_ignore              true
$end

--------------------------------------------------------------
 Writing REM_CC_EA            3
 ----------------------------------------------------
       Standard Nuclear Orientation (Angstroms)
    I     Atom         X            Y            Z
 ----------------------------------------------------
    1      Si      0.000000     0.000000     0.008650
    2      H       1.089150     0.000000     1.065840
    3      H      -1.089150     0.000000     1.065840
 ----------------------------------------------------
 Nuclear Repulsion Energy =    10.0046772308 hartrees
 There are        8 alpha and        7 beta electrons
 Requested basis set is G3large
 There are 31 shells and 86 basis functions

Total QAlloc Memory Limit   2000 MB
Mega-Array Size       743 MB
MEM_STATIC part       760 MB

                       Distance Matrix (Angstroms)
             Si(  1)   H (  2)
   H (  2)  1.517860
   H (  3)  1.517860  2.178300
 
 A cutoff of  1.0D-08 yielded    496 shell pairs
 There are   3877 function pairs (  5178 Cartesian)
Evaluating contribution to one-electron hamiltonian from nuclear
 Smallest overlap matrix eigenvalue = 2.05E-03
 Multipole matrices computed through 2nd order

  Scale SEOQF with 1.000000e-01/1.000000e-01/1.000000e-01

 Standard Electronic Orientation quadrupole field applied
 Nucleus-field energy     =    -0.0000000002 hartrees
 Guess from superposition of atomic densities
 Warning:  Energy on first SCF cycle will be non-variational
 Long-range K will be added via erf
 Coulomb attenuation parameter = 0.9 bohr**(-1)
 An unrestricted Kohn-Sham SCF calculation will be
 performed using Pulay DIIS extrapolation
 Exchange:  wPBE + LR-HF      Correlation:  PBE
 Using SG-1 standard quadrature grid
 SCF converges when DIIS error is below 1.0E-05
 Requested basis set is G3large
 There are 31 shells and 86 basis functions
 A cutoff of  1.0D-08 yielded    496 shell pairs
 There are   3877 function pairs (  5178 Cartesian)
 Warning!  Inaccurate integrated density:
   Number of electrons =    15
   Numerical integral  =    16.000000727468
   Relative error      =     6.6666715165 %
 ---------------------------------------
  Cycle       Energy         DIIS Error
 ---------------------------------------
    1    -290.3460030660      2.23E-02
    2    -290.1598944215      4.29E-03
    3    -290.2119166318      1.59E-03
    4    -290.2177649053      6.36E-04
    5    -290.2195483217      2.70E-04
    6    -290.2201281743      8.66E-05
    7    -290.2201898306      1.93E-05
    8    -290.2201943311      8.26E-06 Convergence criterion met
 ---------------------------------------
 One-Electron    Energy =  -416.6632122995
 Total Coulomb   Energy =   137.7089755921
 Alpha Exchange  Energy =    -3.1024171718
 Beta  Exchange  Energy =    -2.8366964428
 DFT   Exchange  Energy =   -14.8108241156
 DFT Correlation Energy =    -0.5206971242
 Nuclear Repu.   Energy =    10.0046772306
 Nuclear Attr.   Energy =  -706.2378318514
 Kinetic         Energy =   289.5746195519
 <S^2> = 0.7575
 SCF time:  CPU 13.46 s  wall 13.95 s
 Final Alpha MO Eigenvalues
            1           2           3           4           5           6
    1 -66.2781644  -5.9273242  -4.2857623  -4.2791072  -4.2731820  -1.0077888
            7           8           9          10          11          12
    1  -0.7707603  -0.7198959  -0.2886437  -0.1491526  -0.1100858  -0.0706721
           13
    1  -0.0655001
 Final Beta MO Eigenvalues
            1           2           3           4           5           6
    1 -66.2748635  -5.9228899  -4.2830302  -4.2712189  -4.2684380  -0.9537023
            7           8           9          10          11          12
    1  -0.7448001  -0.3228530  -0.2653963  -0.1082570  -0.1056908  -0.0656711
 Analysis of SCF Wavefunction
 
 --------------------------------------------------------------
                    Orbital Energies (a.u.)
 --------------------------------------------------------------
 
 Alpha MOs
 -- Occupied --
-66.278  -5.927  -4.286  -4.279  -4.273  -1.008  -0.771  -0.720
 -- Virtual --
 -0.289  -0.149  -0.110  -0.071  -0.066  -0.063  -0.059  -0.019
 -0.007  -0.006   0.004   0.014   0.121   0.146   0.153   0.168
  0.194   0.281   0.325   0.338   0.346   0.349   0.354   0.364
  0.408   0.567   0.574   0.588   0.589   0.597   0.680   0.722
  0.853   0.932   0.943   1.063   1.116   1.134   1.179   1.288
  1.365   1.958   1.968   1.970   1.976   1.977   2.092   2.129
  2.744   2.806   3.369   3.377   3.429   3.521   3.663   3.947
  3.957   3.972   3.972   4.149   4.489   5.603  11.169  11.234
 11.258  17.351  17.413  17.448  17.453  17.713  22.054  22.059
 22.062  22.068  22.071  22.097  22.097 140.515
 
 Beta MOs
 -- Occupied --
-66.275  -5.923  -4.283  -4.271  -4.268  -0.954  -0.745
 -- Virtual --
 -0.323  -0.265  -0.108  -0.106  -0.066  -0.061  -0.056  -0.052
  0.002   0.004   0.007   0.021   0.028   0.128   0.155   0.170
  0.174   0.205   0.298   0.338   0.347   0.353   0.357   0.362
  0.370   0.418   0.581   0.594   0.602   0.604   0.613   0.694
  0.732   0.863   0.940   0.952   1.075   1.125   1.163   1.189
  1.299   1.378   1.975   1.984   1.986   1.986   1.991   2.107
  2.143   2.764   2.824   3.375   3.378   3.434   3.525   3.672
  3.963   3.973   3.987   3.988   4.163   4.502   5.612  11.171
 11.246  11.259  17.360  17.417  17.455  17.456  17.720  22.056
 22.063  22.064  22.071  22.074  22.100  22.100 140.519
 --------------------------------------------------------------
 
          Ground-State Mulliken Net Atomic Charges

     Atom                 Charge (a.u.)    Spin (a.u.)
  --------------------------------------------------------
      1 Si                    0.762681       0.758870
      2 H                     0.118786       0.121757
      3 H                     0.118534       0.119372
  --------------------------------------------------------
  Sum of atomic charges =     1.000000
  Sum of spin   charges =     1.000000

 -----------------------------------------------------------------
                    Cartesian Multipole Moments
 -----------------------------------------------------------------
    Charge (ESU x 10^10)
                 4.8032
    Dipole Moment (Debye)
         X       0.0008      Y      -0.0039      Z       0.0795
       Tot       0.0796
    Quadrupole Moments (Debye-Ang)
        XX     -10.8698     XY      -0.0002     YY      -8.7291
        XZ       0.0050     YZ       0.0077     ZZ     -10.0104
    Octapole Moments (Debye-Ang^2)
       XXX       0.0021    XXY       0.0004    XYY      -0.0003
       YYY      -0.0059    XXZ      -0.9094    XYZ      -0.0001
       YYZ      -2.0900    XZZ       0.0040    YZZ      -0.0015
       ZZZ      -3.7136
    Hexadecapole Moments (Debye-Ang^3)
      XXXX     -26.3246   XXXY      -0.0003   XXYY      -6.3580
      XYYY      -0.0002   YYYY      -8.5733   XXXZ       0.0082
      XXYZ       0.0040   XYYZ       0.0019   YYYZ       0.0092
      XXZZ      -5.9973   XYZZ      -0.0002   YYZZ      -5.9334
      XZZZ       0.0085   YZZZ       0.0102   ZZZZ     -23.1433
 -----------------------------------------------------------------
 Total job time:  14.05s(wall), 13.55s(cpu) 
 Mon Jul  8 12:25:06 2013

        *************************************************************
        *                                                           *
        *  Thank you very much for using Q-Chem.  Have a nice day.  *
        *                                                           *
        *************************************************************


0 sent ACK to 0 
now end server 0 ... 
