Process 0 of 1 is on cl064.stfx.acenet.ca - thread support 1
initial socket setup ...start
initial socket setup ...done 
now start server 0 ... 

cmd = /usr/bin/ssh clhead /usr/local/qchem/bin/get_hostid 1363888800 > /scratch/tmp/5956726.1.short.q/qchem9192/lic.dat
                  Welcome to Q-Chem
     A Quantum Leap Into The Future Of Chemistry

 Y. Shao, L. Fusti-Molnar, Y. Jung, J. Kussmann, C. Ochsenfeld,
 S. T. Brown, A. T. B. Gilbert, L. V. Slipchenko,S. V. Levchenko,
 D. P. O'Neill, R. A. DiStasio Jr., R. C. Lochan, T. Wang,
 G. J. O. Beran, N. A. Besley, J. M. Herbert, C. Y. Lin,
 T. Van Voorhis, S. H. Chien, A. Sodt, R. P. Steele, 
 V. A. Rassolov, P. E. Maslen, P. P. Korambath, R. D. Adamson,
 B. Austin, J. Baker, E. F. C. Byrd, H. Dachsel, R. J. Doerksen,
 A. Dreuw, B. D. Dunietz, A. D. Dutoi, T. R. Furlani,
 S. R. Gwaltney, A. Heyden, S. Hirata, C.-P. Hsu, G. Kedziora,
 R. Z. Khaliullin, P. Klunzinger, A. M. Lee, M. S. Lee, W. Liang,
 I. Lotan, N. Nair, B. Peters, E. I. Proynov, P. A. Pieniazek, 
 Y. M. Rhee, J. Ritchie, E. Rosta, C. D. Sherrill, 
 A. C. Simmonett, J. E. Subotnik, H. L. Woodcock III,
 W. Zhang, A. T. Bell, A. K. Chakraborty, D. M. Chipman,
 F. J. Keil, A. Warshel, W. J. Hehre, H. F. Schaefer III,
 J. Kong, A. I. Krylov, P. M. W. Gill, M. Head-Gordon,
 Q-Chem, Version 3.1, Q-Chem, Inc., Pittsburgh, PA (2007).

 Additional authors for Version 3.1: 
 Z. Gan, Y. Zhao, N. E. Schultz, D. Truhlar, E. Epifanovsky and M. Oana.

 Additional authors for Version 3.2: 
 R. Baer, B. R. Brooks, D. Casanova, J.-D. Chai, C.-L. Cheng, 
 C. Cramer, D. Crittenden, A. Ghysels, G. Hawkins, E. G. Hohenstein, 
 C. Kelley, W. Kurlancheek, D. Liotard, E. Livshits, P. Manohar, 
 A. Marenich, D. Neuhauser, R. Olson, M. A. Rohrdanz, K. S. Thanthiriwatte, 
 A. J. W. Thom, V. Vanovschi, C. F. Williams, Q. Wu and Z.-Q. You. 


 Intel X86 Linux Version

 Q-chem begins on Wed May  1 12:16:04 2013  

 Parallel job on  1  processors
Processing $rem in /usr/local/qchem/config/preferences.

theFileMan(): MAXOPENFILES=974 MAX_SUB_FILE_NUM=16
Maximum size of a physical file is 2.0 GB, maximum size of a tmp-file is 32.0 GB


--------------------------------------------------------------
User input:
--------------------------------------------------------------

$molecule
0,1
Na
Na,1,R

R=3.03883602

$end

$comment
neutral
$end

$xc_functional
C PBE   1.00
X wPBE  1.00
$end


$rem
SYMMETRY_DECOMPOSITION	0
LRC_DFT                 true
exchange 		general
BASIS                   g3large
omega			230 
JOBTYPE                 opt
mem_static              760
max_scf_cycles          200
scf_final_print         1
sym_ignore              true
$end


--------------------------------------------------------------
 Writing REM_CC_EA            2
 ----------------------------------------------------
       Standard Nuclear Orientation (Angstroms)
    I     Atom         X            Y            Z
 ----------------------------------------------------
    1      Na      0.000000     0.000000     0.000000
    2      Na      0.000000     0.000000     3.038836
 ----------------------------------------------------
 Nuclear Repulsion Energy =    21.0707132880 hartrees
 There are       11 alpha and       11 beta electrons
 Requested basis set is G3large
 There are 38 shells and 132 basis functions

Total QAlloc Memory Limit   2000 MB
Mega-Array Size       743 MB
MEM_STATIC part       760 MB
 A cutoff of  1.0D-11 yielded    705 shell pairs
 There are   8702 function pairs ( 12509 Cartesian)
Evaluating contribution to one-electron hamiltonian from nuclear
 Smallest overlap matrix eigenvalue = 1.47E-04
 Multipole matrices computed through 2nd order

  Scale SEOQF with 1.000000e-01/1.000000e-01/1.000000e-02

 Standard Electronic Orientation quadrupole field applied
 Nucleus-field energy     =    -0.0000000011 hartrees
 Guess from superposition of atomic densities
 Warning:  Energy on first SCF cycle will be non-variational
 Long-range K will be added via erf
 Coulomb attenuation parameter = 0.23 bohr**(-1)
 A restricted Kohn-Sham SCF calculation will be
 performed using Pulay DIIS extrapolation
 Exchange:  wPBE + LR-HF      Correlation:  PBE
 Using SG-1 standard quadrature grid
 SCF converges when DIIS error is below 1.0E-08
 Requested basis set is G3large
 There are 38 shells and 132 basis functions
 A cutoff of  1.0D-11 yielded    705 shell pairs
 There are   8702 function pairs ( 12509 Cartesian)
 ---------------------------------------
  Cycle       Energy         DIIS Error
 ---------------------------------------
    1    -324.2951193500      1.11E-02
 Warning!  Inaccurate integrated density:
   Number of electrons =    22
   Numerical integral  =    22.028970416572
   Relative error      =     0.1316837117 %
    2    -324.3786050609      7.87E-04
 Warning!  Inaccurate integrated density:
   Number of electrons =    22
   Numerical integral  =    22.030000766562
   Relative error      =     0.1363671207 %
    3    -324.3798374007      2.53E-04
 Warning!  Inaccurate integrated density:
   Number of electrons =    22
   Numerical integral  =    22.029978857567
   Relative error      =     0.1362675344 %
    4    -324.3800045682      1.09E-04
 Warning!  Inaccurate integrated density:
   Number of electrons =    22
   Numerical integral  =    22.029993615272
   Relative error      =     0.1363346149 %
    5    -324.3800511686      3.35E-05
 Warning!  Inaccurate integrated density:
   Number of electrons =    22
   Numerical integral  =    22.029991294681
   Relative error      =     0.1363240667 %
    6    -324.3800614162      7.70E-06
 Warning!  Inaccurate integrated density:
   Number of electrons =    22
   Numerical integral  =    22.029991083701
   Relative error      =     0.1363231077 %
    7    -324.3800626463      1.58E-06
 Warning!  Inaccurate integrated density:
   Number of electrons =    22
   Numerical integral  =    22.029991115756
   Relative error      =     0.1363232534 %
    8    -324.3800626982      2.50E-07
 Warning!  Inaccurate integrated density:
   Number of electrons =    22
   Numerical integral  =    22.029991126240
   Relative error      =     0.1363233011 %
    9    -324.3800626993      5.37E-08
 Warning!  Inaccurate integrated density:
   Number of electrons =    22
   Numerical integral  =    22.029991136055
   Relative error      =     0.1363233457 %
   10    -324.3800626987      6.29E-09 Convergence criterion met
 ---------------------------------------
 One-Electron    Energy =  -498.1003491015
 Total Coulomb   Energy =   181.3407112708
 Alpha Exchange  Energy =    -1.3620233589
 Beta  Exchange  Energy =    -1.3620233589
 DFT   Exchange  Energy =   -25.2040800216
 DFT Correlation Energy =    -0.7630114156
 Nuclear Repu.   Energy =    21.0707132870
 Nuclear Attr.   Energy =  -821.7786233816
 Kinetic         Energy =   323.6782742800
 SCF time:  CPU 43.01 s  wall 43.86 s
 Final Alpha MO Eigenvalues
            1           2           3           4           5           6
    1 -38.0273508 -38.0273395  -2.1797688  -2.1797301  -1.1590324  -1.1579339
            7           8           9          10          11          12
    1  -1.1579339  -1.1575641  -1.1575641  -1.1565752  -0.1840024  -0.0075030
           13          14          15          16
    1   0.0102202   0.0102202   0.0116106   0.0169522
 Analysis of SCF Wavefunction
 
 --------------------------------------------------------------
                    Orbital Energies (a.u.)
 --------------------------------------------------------------
 
 Alpha MOs
 -- Occupied --
-38.027 -38.027  -2.180  -2.180  -1.159  -1.158  -1.158  -1.158
 -1.158  -1.157  -0.184
 -- Virtual --
 -0.008   0.010   0.010   0.012   0.017   0.021   0.021   0.029
  0.032   0.032   0.039   0.045   0.059   0.059   0.064   0.107
  0.110   0.110   0.111   0.111   0.130   0.134   0.134   0.144
  0.144   0.144   0.154   0.154   0.160   0.197   0.197   0.204
  0.276   0.276   0.305   0.305   0.315   0.324   0.334   0.334
  0.357   0.357   0.381   0.381   0.399   0.399   0.406   0.483
  0.491   0.491   0.500   0.500   0.526   0.532   0.532   0.534
  0.534   0.552   0.552   0.646   0.697   0.697   0.825   1.141
  1.141   1.186   1.195   1.195   1.223   1.223   1.241   1.241
  1.290   1.290   1.423   1.423   1.479   1.796   1.803   1.812
  1.812   1.818   1.825   1.862   1.877   1.943   1.943   2.164
  2.464   4.458   4.458   4.480   4.480   4.551   4.838   8.673
  8.682   8.711   8.740   9.115   9.118   9.118   9.124   9.174
  9.174  13.550  13.552  13.552  13.556  13.556  13.574  13.655
 13.655  13.657  13.660  13.662  13.664  13.664  13.666  95.876
 96.213
 --------------------------------------------------------------
 
          Ground-State Mulliken Net Atomic Charges

     Atom                 Charge (a.u.)
  ----------------------------------------
      1 Na                    0.000000
      2 Na                    0.000000
  ----------------------------------------
  Sum of atomic charges =     0.000000

 -----------------------------------------------------------------
                    Cartesian Multipole Moments
 -----------------------------------------------------------------
    Charge (ESU x 10^10)
                 0.0000
    Dipole Moment (Debye)
         X       0.0000      Y       0.0000      Z       0.0000
       Tot       0.0000
    Quadrupole Moments (Debye-Ang)
        XX     -23.2930     XY       0.0000     YY     -23.2930
        XZ       0.0000     YZ       0.0000     ZZ      -7.6256
    Octapole Moments (Debye-Ang^2)
       XXX       0.0000    XXY       0.0000    XYY       0.0000
       YYY       0.0000    XXZ     -35.3918    XYZ       0.0000
       YYZ     -35.3918    XZZ       0.0000    YZZ       0.0000
       ZZZ     -34.7594
    Hexadecapole Moments (Debye-Ang^3)
      XXXX    -101.5264   XXXY       0.0000   XXYY     -33.8406
      XYYY       0.0000   YYYY    -101.5264   XXXZ       0.0000
      XXYZ       0.0000   XYYZ       0.0000   YYYZ       0.0000
      XXZZ    -113.9459   XYZZ       0.0000   YYZZ    -113.9459
      XZZZ       0.0000   YZZZ       0.0000   ZZZZ    -327.2955
 -----------------------------------------------------------------
 Calculating analytic gradient of the SCF energy
 Gradient of AOints
            1           2
    1   0.0000000  -0.0000000
    2  -0.0000000   0.0000000
    3   2.8982003  -2.8982003
 Warning!  Inaccurate integrated density:
   Number of electrons =    22
   Numerical integral  =    22.029991214995
   Relative error      =     0.1363237045 %
 Gradient of XC Energy
            1           2
    1  -0.0000000   0.0000000
    2   0.0000000  -0.0000000
    3   0.0552554  -0.0552554
 Gradient of SCF Energy
            1           2
    1   0.0000000  -0.0000000
    2  -0.0000000   0.0000000
    3   0.0003904  -0.0003904
 Max gradient component =       3.904E-04
 RMS gradient           =       2.254E-04
 Gradient time:  CPU 23.07 s  wall 23.97 s
 Geometry Optimization Parameters
   NAtoms,    NIC,     NZ,  NCons,   NDum,   NFix, NCnnct, MaxDiis
        2       5       2       0       0       0       0       0


** GEOMETRY OPTIMIZATION IN DELOCALIZED INTERNAL COORDINATES **
   Searching for a Minimum

   Optimization Cycle:   1

                       Coordinates (Angstroms)
     ATOM              X           Y           Z
    1  Na          0.000000    0.000000    0.000000
    2  Na          0.000000    0.000000    3.038836
   Point Group: c1    Number of degrees of freedom:   0


   Energy is   -324.380062699


 Attempting to Generate Delocalized Internal Coordinates

  ***ERROR*** Wrong Number of Internal Coordinates
              Should be:   0  Found:   1
**WARNING** Problems with Internal Coordinates
  Switching to Cartesian Coordinates

 Translations and Rotations Projected Out of Hessian

  1 Hessian modes will be used to form the next step
  Hessian Eigenvalues:
     1.000000

 Minimum Search - Taking Simple RFO Step
 Searching for Lamda that Minimizes Along All modes
 Value Taken    Lamda =   0.00000000
 Step Taken.  Stepsize is  0.000552

                             Maximum     Tolerance    Cnvgd?
         Gradient           0.000390      0.000300      NO
         Displacement       0.000390      0.001200     YES
         Energy change     *********      0.000001      NO

 Writing REM_CC_EA            2
 ----------------------------------------------------
       Standard Nuclear Orientation (Angstroms)
    I     Atom         X            Y            Z
 ----------------------------------------------------
    1      Na      0.000000     0.000000    -0.000207
    2      Na      0.000000     0.000000     3.039043
 ----------------------------------------------------
 Nuclear Repulsion Energy =    21.0678486035 hartrees
 There are       11 alpha and       11 beta electrons
 Applying Cartesian multipole field
    Component          Value
    ---------          -----
     (2,0,0)        1.00000E-11
     (0,2,0)        2.00000E-11
     (0,0,2)       -3.00000E-12
 Nucleus-field energy     =    -0.0000000011 hartrees
 Requested basis set is G3large
 There are 38 shells and 132 basis functions
 A cutoff of  1.0D-11 yielded    705 shell pairs
 There are   8702 function pairs ( 12509 Cartesian)
Evaluating contribution to one-electron hamiltonian from nuclear
 Smallest overlap matrix eigenvalue = 1.47E-04
 Multipole matrices computed through 2nd order
 Guess MOs from SCF MO coefficient file
Reading MOs from coefficient file
Reading MOs from coefficient file
 Long-range K will be added via erf
 Coulomb attenuation parameter = 0.23 bohr**(-1)
 A restricted Kohn-Sham SCF calculation will be
 performed using Pulay DIIS extrapolation
 Exchange:  wPBE + LR-HF      Correlation:  PBE
 Using SG-1 standard quadrature grid
 SCF converges when DIIS error is below 1.0E-08
 Requested basis set is G3large
 There are 38 shells and 132 basis functions
 A cutoff of  1.0D-11 yielded    705 shell pairs
 There are   8702 function pairs ( 12509 Cartesian)
 Warning!  Inaccurate integrated density:
   Number of electrons =    22
   Numerical integral  =    22.029993439628
   Relative error      =     0.1363338165 %
 ---------------------------------------
  Cycle       Energy         DIIS Error
 ---------------------------------------
    1    -324.3802390339      5.13E-06
 Warning!  Inaccurate integrated density:
   Number of electrons =    22
   Numerical integral  =    22.029990988128
   Relative error      =     0.1363226733 %
    2    -324.3800630067      8.37E-07
 Warning!  Inaccurate integrated density:
   Number of electrons =    22
   Numerical integral  =    22.029991198685
   Relative error      =     0.1363236304 %
    3    -324.3800630088      6.73E-07
 Warning!  Inaccurate integrated density:
   Number of electrons =    22
   Numerical integral  =    22.029991120889
   Relative error      =     0.1363232768 %
    4    -324.3800630125      3.48E-08
 Warning!  Inaccurate integrated density:
   Number of electrons =    22
   Numerical integral  =    22.029991106749
   Relative error      =     0.1363232125 %
    5    -324.3800630112      3.61E-09 Convergence criterion met
 ---------------------------------------
 One-Electron    Energy =  -498.0945897088
 Total Coulomb   Energy =   181.3378036995
 Alpha Exchange  Energy =    -1.3620215048
 Beta  Exchange  Energy =    -1.3620215048
 DFT   Exchange  Energy =   -25.2040719796
 DFT Correlation Energy =    -0.7630106152
 Nuclear Repu.   Energy =    21.0678486024
 Nuclear Attr.   Energy =  -821.7728061463
 Kinetic         Energy =   323.6782164375
 SCF time:  CPU 21.63 s  wall 22.13 s
 Final Alpha MO Eigenvalues
            1           2           3           4           5           6
    1 -38.0273537 -38.0273425  -2.1797713  -2.1797321  -1.1590324  -1.1579361
            7           8           9          10          11          12
    1  -1.1579361  -1.1575668  -1.1575668  -1.1565782  -0.1839960  -0.0075077
           13          14          15          16
    1   0.0102206   0.0102206   0.0116101   0.0169509
 Analysis of SCF Wavefunction
 
 --------------------------------------------------------------
                    Orbital Energies (a.u.)
 --------------------------------------------------------------
 
 Alpha MOs
 -- Occupied --
-38.027 -38.027  -2.180  -2.180  -1.159  -1.158  -1.158  -1.158
 -1.158  -1.157  -0.184
 -- Virtual --
 -0.008   0.010   0.010   0.012   0.017   0.021   0.021   0.029
  0.032   0.032   0.039   0.045   0.059   0.059   0.064   0.107
  0.110   0.110   0.111   0.111   0.130   0.134   0.134   0.144
  0.144   0.144   0.154   0.154   0.160   0.197   0.197   0.204
  0.276   0.276   0.305   0.305   0.315   0.324   0.334   0.334
  0.357   0.357   0.381   0.381   0.399   0.399   0.406   0.483
  0.491   0.491   0.500   0.500   0.526   0.532   0.532   0.534
  0.534   0.552   0.552   0.646   0.697   0.697   0.825   1.141
  1.141   1.186   1.195   1.195   1.223   1.223   1.241   1.241
  1.290   1.290   1.423   1.423   1.479   1.796   1.803   1.812
  1.812   1.818   1.825   1.862   1.877   1.943   1.943   2.164
  2.464   4.458   4.458   4.480   4.480   4.551   4.838   8.673
  8.682   8.711   8.740   9.115   9.118   9.118   9.124   9.174
  9.174  13.550  13.552  13.552  13.556  13.556  13.574  13.655
 13.655  13.657  13.660  13.662  13.664  13.664  13.666  95.875
 96.213
 --------------------------------------------------------------
 
          Ground-State Mulliken Net Atomic Charges

     Atom                 Charge (a.u.)
  ----------------------------------------
      1 Na                    0.000000
      2 Na                    0.000000
  ----------------------------------------
  Sum of atomic charges =     0.000000

 -----------------------------------------------------------------
                    Cartesian Multipole Moments
 -----------------------------------------------------------------
    Charge (ESU x 10^10)
                 0.0000
    Dipole Moment (Debye)
         X       0.0000      Y       0.0000      Z       0.0000
       Tot       0.0000
    Quadrupole Moments (Debye-Ang)
        XX     -23.2935     XY       0.0000     YY     -23.2935
        XZ       0.0000     YZ       0.0000     ZZ      -7.6231
    Octapole Moments (Debye-Ang^2)
       XXX       0.0000    XXY       0.0000    XYY       0.0000
       YYY       0.0000    XXZ     -35.3925    XYZ       0.0000
       YYZ     -35.3925    XZZ       0.0000    YZZ       0.0000
       ZZZ     -34.7481
    Hexadecapole Moments (Debye-Ang^3)
      XXXX    -101.5332   XXXY       0.0000   XXYY     -33.8429
      XYYY       0.0000   YYYY    -101.5332   XXXZ       0.0000
      XXYZ       0.0000   XYYZ       0.0000   YYYZ       0.0000
      XXZZ    -113.9586   XYZZ       0.0000   YYZZ    -113.9586
      XZZZ       0.0000   YZZZ       0.0000   ZZZZ    -327.3031
 -----------------------------------------------------------------
 Calculating analytic gradient of the SCF energy
 Gradient of AOints
            1           2
    1  -0.0000000   0.0000000
    2  -0.0000000   0.0000000
    3   2.8979284  -2.8979284
 Warning!  Inaccurate integrated density:
   Number of electrons =    22
   Numerical integral  =    22.029991125453
   Relative error      =     0.1363232975 %
 Gradient of XC Energy
            1           2
    1   0.0000000  -0.0000000
    2   0.0000000  -0.0000000
    3   0.0552309  -0.0552309
 Gradient of SCF Energy
            1           2
    1   0.0000000  -0.0000000
    2  -0.0000000   0.0000000
    3   0.0003816  -0.0003816
 Max gradient component =       3.816E-04
 RMS gradient           =       2.203E-04
 Gradient time:  CPU 22.08 s  wall 22.25 s
 Geometry Optimization Parameters
   NAtoms,    NIC,     NZ,  NCons,   NDum,   NFix, NCnnct, MaxDiis
        2       5       2       0       0       0       0       0

 Cartesian Hessian Update
 Hessian Updated using BFGS Update
**WARNING** Hereditary positive definiteness endangered
**WARNING** Small Scalar Product
 Hessian Update Skipped this cycle


** GEOMETRY OPTIMIZATION IN CARTESIAN COORDINATES **
   Searching for a Minimum

   Optimization Cycle:   2

                       Coordinates (Angstroms)
     ATOM              X           Y           Z
    1  Na          0.000000    0.000000   -0.000207
    2  Na          0.000000    0.000000    3.039043
   Point Group: c1    Number of degrees of freedom:   0


   Energy is   -324.380063011


 Translations and Rotations Projected Out of Hessian

  1 Hessian modes will be used to form the next step
  Hessian Eigenvalues:
     1.000000

 Minimum Search - Taking Simple RFO Step
 Searching for Lamda that Minimizes Along All modes
 Value Taken    Lamda =   0.00000000
 Step Taken.  Stepsize is  0.000540

                             Maximum     Tolerance    Cnvgd?
         Gradient           0.000382      0.000300      NO
         Displacement       0.000382      0.001200     YES
         Energy change      0.000000      0.000001     YES

 Writing REM_CC_EA            2
 ----------------------------------------------------
       Standard Nuclear Orientation (Angstroms)
    I     Atom         X            Y            Z
 ----------------------------------------------------
    1      Na      0.000000     0.000000    -0.000409
    2      Na      0.000000     0.000000     3.039245
 ----------------------------------------------------
 Nuclear Repulsion Energy =    21.0650496370 hartrees
 There are       11 alpha and       11 beta electrons
 Applying Cartesian multipole field
    Component          Value
    ---------          -----
     (2,0,0)        1.00000E-11
     (0,2,0)        2.00000E-11
     (0,0,2)       -3.00000E-12
 Nucleus-field energy     =    -0.0000000011 hartrees
 Requested basis set is G3large
 There are 38 shells and 132 basis functions
 A cutoff of  1.0D-11 yielded    705 shell pairs
 There are   8702 function pairs ( 12509 Cartesian)
Evaluating contribution to one-electron hamiltonian from nuclear
 Smallest overlap matrix eigenvalue = 1.47E-04
 Multipole matrices computed through 2nd order
 Guess MOs from SCF MO coefficient file
Reading MOs from coefficient file
Reading MOs from coefficient file
 Long-range K will be added via erf
 Coulomb attenuation parameter = 0.23 bohr**(-1)
 A restricted Kohn-Sham SCF calculation will be
 performed using Pulay DIIS extrapolation
 Exchange:  wPBE + LR-HF      Correlation:  PBE
 Using SG-1 standard quadrature grid
 SCF converges when DIIS error is below 1.0E-08
 Requested basis set is G3large
 There are 38 shells and 132 basis functions
 A cutoff of  1.0D-11 yielded    705 shell pairs
 There are   8702 function pairs ( 12509 Cartesian)
 Warning!  Inaccurate integrated density:
   Number of electrons =    22
   Numerical integral  =    22.029993253752
   Relative error      =     0.1363329716 %
 ---------------------------------------
  Cycle       Energy         DIIS Error
 ---------------------------------------
    1    -324.3802352593      5.01E-06
 Warning!  Inaccurate integrated density:
   Number of electrons =    22
   Numerical integral  =    22.029990905348
   Relative error      =     0.1363222970 %
    2    -324.3800632952      8.18E-07
 Warning!  Inaccurate integrated density:
   Number of electrons =    22
   Numerical integral  =    22.029991110973
   Relative error      =     0.1363232317 %
    3    -324.3800632969      6.58E-07
 Warning!  Inaccurate integrated density:
   Number of electrons =    22
   Numerical integral  =    22.029991034546
   Relative error      =     0.1363228843 %
    4    -324.3800633000      3.40E-08
 Warning!  Inaccurate integrated density:
   Number of electrons =    22
   Numerical integral  =    22.029991021909
   Relative error      =     0.1363228269 %
    5    -324.3800632990      3.58E-09 Convergence criterion met
 ---------------------------------------
 One-Electron    Energy =  -498.0889653538
 Total Coulomb   Energy =   181.3349659319
 Alpha Exchange  Energy =    -1.3620197003
 Beta  Exchange  Energy =    -1.3620197003
 DFT   Exchange  Energy =   -25.2040642858
 DFT Correlation Energy =    -0.7630098266
 Nuclear Repu.   Energy =    21.0650496359
 Nuclear Attr.   Energy =  -821.7671273889
 Kinetic         Energy =   323.6781620351
 SCF time:  CPU 21.59 s  wall 22.66 s
 Final Alpha MO Eigenvalues
            1           2           3           4           5           6
    1 -38.0273565 -38.0273452  -2.1797736  -2.1797340  -1.1590324  -1.1579383
            7           8           9          10          11          12
    1  -1.1579383  -1.1575694  -1.1575694  -1.1565810  -0.1839897  -0.0075122
           13          14          15          16
    1   0.0102210   0.0102210   0.0116096   0.0169498
 Analysis of SCF Wavefunction
 
 --------------------------------------------------------------
                    Orbital Energies (a.u.)
 --------------------------------------------------------------
 
 Alpha MOs
 -- Occupied --
-38.027 -38.027  -2.180  -2.180  -1.159  -1.158  -1.158  -1.158
 -1.158  -1.157  -0.184
 -- Virtual --
 -0.008   0.010   0.010   0.012   0.017   0.021   0.021   0.029
  0.032   0.032   0.039   0.045   0.059   0.059   0.064   0.107
  0.110   0.110   0.111   0.111   0.130   0.134   0.134   0.144
  0.144   0.144   0.154   0.154   0.160   0.197   0.197   0.204
  0.276   0.276   0.305   0.305   0.315   0.324   0.334   0.334
  0.357   0.357   0.381   0.381   0.399   0.399   0.406   0.483
  0.491   0.491   0.500   0.500   0.526   0.532   0.532   0.534
  0.534   0.552   0.552   0.646   0.697   0.697   0.824   1.141
  1.141   1.186   1.195   1.196   1.223   1.223   1.241   1.241
  1.290   1.290   1.423   1.423   1.478   1.796   1.803   1.812
  1.812   1.818   1.825   1.862   1.877   1.943   1.943   2.163
  2.464   4.458   4.458   4.480   4.480   4.551   4.837   8.673
  8.682   8.711   8.740   9.115   9.118   9.118   9.124   9.174
  9.174  13.550  13.552  13.552  13.556  13.556  13.574  13.655
 13.655  13.657  13.660  13.662  13.664  13.664  13.666  95.875
 96.213
 --------------------------------------------------------------
 
          Ground-State Mulliken Net Atomic Charges

     Atom                 Charge (a.u.)
  ----------------------------------------
      1 Na                    0.000000
      2 Na                    0.000000
  ----------------------------------------
  Sum of atomic charges =     0.000000

 -----------------------------------------------------------------
                    Cartesian Multipole Moments
 -----------------------------------------------------------------
    Charge (ESU x 10^10)
                 0.0000
    Dipole Moment (Debye)
         X       0.0000      Y       0.0000      Z       0.0000
       Tot       0.0000
    Quadrupole Moments (Debye-Ang)
        XX     -23.2939     XY       0.0000     YY     -23.2939
        XZ       0.0000     YZ       0.0000     ZZ      -7.6207
    Octapole Moments (Debye-Ang^2)
       XXX       0.0000    XXY       0.0000    XYY       0.0000
       YYY       0.0000    XXZ     -35.3932    XYZ       0.0000
       YYZ     -35.3932    XZZ       0.0000    YZZ       0.0000
       ZZZ     -34.7371
    Hexadecapole Moments (Debye-Ang^3)
      XXXX    -101.5396   XXXY       0.0000   XXYY     -33.8450
      XYYY       0.0000   YYYY    -101.5396   XXXZ       0.0000
      XXYZ       0.0000   XYYZ       0.0000   YYYZ       0.0000
      XXZZ    -113.9710   XYZZ       0.0000   YYZZ    -113.9710
      XZZZ       0.0000   YZZZ       0.0000   ZZZZ    -327.3108
 -----------------------------------------------------------------
 Calculating analytic gradient of the SCF energy
 Gradient of AOints
            1           2
    1  -0.0000000   0.0000000
    2  -0.0000000   0.0000000
    3   2.8976641  -2.8976641
 Warning!  Inaccurate integrated density:
   Number of electrons =    22
   Numerical integral  =    22.029991038971
   Relative error      =     0.1363229044 %
 Gradient of XC Energy
            1           2
    1   0.0000000  -0.0000000
    2   0.0000000  -0.0000000
    3   0.0552069  -0.0552069
 Gradient of SCF Energy
            1           2
    1   0.0000000  -0.0000000
    2   0.0000000  -0.0000000
    3   0.0003729  -0.0003729
 Max gradient component =       3.729E-04
 RMS gradient           =       2.153E-04
 Gradient time:  CPU 22.41 s  wall 22.56 s
 Geometry Optimization Parameters
   NAtoms,    NIC,     NZ,  NCons,   NDum,   NFix, NCnnct, MaxDiis
        2       5       2       0       0       0       0       0

 Cartesian Hessian Update
 Hessian Updated using BFGS Update
**WARNING** Hereditary positive definiteness endangered
**WARNING** Small Scalar Product
 Hessian Update Skipped this cycle


** GEOMETRY OPTIMIZATION IN CARTESIAN COORDINATES **
   Searching for a Minimum

   Optimization Cycle:   3

                       Coordinates (Angstroms)
     ATOM              X           Y           Z
    1  Na          0.000000    0.000000   -0.000409
    2  Na          0.000000    0.000000    3.039245
   Point Group: c1    Number of degrees of freedom:   0


   Energy is   -324.380063299


 Translations and Rotations Projected Out of Hessian

  1 Hessian modes will be used to form the next step
  Hessian Eigenvalues:
     1.000000

 Minimum Search - Taking Simple RFO Step
 Searching for Lamda that Minimizes Along All modes
 Value Taken    Lamda =   0.00000000
 Step Taken.  Stepsize is  0.000527

                             Maximum     Tolerance    Cnvgd?
         Gradient           0.000373      0.000300      NO
         Displacement       0.000373      0.001200     YES
         Energy change      0.000000      0.000001     YES

 Writing REM_CC_EA            2
 ----------------------------------------------------
       Standard Nuclear Orientation (Angstroms)
    I     Atom         X            Y            Z
 ----------------------------------------------------
    1      Na      0.000000     0.000000    -0.000606
    2      Na      0.000000     0.000000     3.039442
 ----------------------------------------------------
 Nuclear Repulsion Energy =    21.0623148297 hartrees
 There are       11 alpha and       11 beta electrons
 Applying Cartesian multipole field
    Component          Value
    ---------          -----
     (2,0,0)        1.00000E-11
     (0,2,0)        2.00000E-11
     (0,0,2)       -3.00000E-12
 Nucleus-field energy     =    -0.0000000011 hartrees
 Requested basis set is G3large
 There are 38 shells and 132 basis functions
 A cutoff of  1.0D-11 yielded    705 shell pairs
 There are   8702 function pairs ( 12509 Cartesian)
Evaluating contribution to one-electron hamiltonian from nuclear
 Smallest overlap matrix eigenvalue = 1.47E-04
 Multipole matrices computed through 2nd order
 Guess MOs from SCF MO coefficient file
Reading MOs from coefficient file
Reading MOs from coefficient file
 Long-range K will be added via erf
 Coulomb attenuation parameter = 0.23 bohr**(-1)
 A restricted Kohn-Sham SCF calculation will be
 performed using Pulay DIIS extrapolation
 Exchange:  wPBE + LR-HF      Correlation:  PBE
 Using SG-1 standard quadrature grid
 SCF converges when DIIS error is below 1.0E-08
 Requested basis set is G3large
 There are 38 shells and 132 basis functions
 A cutoff of  1.0D-11 yielded    705 shell pairs
 There are   8702 function pairs ( 12509 Cartesian)
 Warning!  Inaccurate integrated density:
   Number of electrons =    22
   Numerical integral  =    22.029993075026
   Relative error      =     0.1363321592 %
 ---------------------------------------
  Cycle       Energy         DIIS Error
 ---------------------------------------
    1    -324.3802315692      4.90E-06
 Warning!  Inaccurate integrated density:
   Number of electrons =    22
   Numerical integral  =    22.029990824929
   Relative error      =     0.1363219315 %
    2    -324.3800635702      7.99E-07
 Warning!  Inaccurate integrated density:
   Number of electrons =    22
   Numerical integral  =    22.029991018216
   Relative error      =     0.1363228101 %
    3    -324.3800635712      6.42E-07
 Warning!  Inaccurate integrated density:
   Number of electrons =    22
   Numerical integral  =    22.029990943518
   Relative error      =     0.1363224705 %
    4    -324.3800635743      3.32E-08
 Warning!  Inaccurate integrated density:
   Number of electrons =    22
   Numerical integral  =    22.029990931001
   Relative error      =     0.1363224136 %
    5    -324.3800635731      3.50E-09 Convergence criterion met
 ---------------------------------------
 One-Electron    Energy =  -498.0834698063
 Total Coulomb   Energy =   181.3321930996
 Alpha Exchange  Energy =    -1.3620179360
 Beta  Exchange  Energy =    -1.3620179360
 DFT   Exchange  Energy =   -25.2040567677
 DFT Correlation Energy =    -0.7630090553
 Nuclear Repu.   Energy =    21.0623148286
 Nuclear Attr.   Energy =  -821.7615786916
 Kinetic         Energy =   323.6781088854
 SCF time:  CPU 21.54 s  wall 22.73 s
 Final Alpha MO Eigenvalues
            1           2           3           4           5           6
    1 -38.0273592 -38.0273480  -2.1797758  -2.1797358  -1.1590324  -1.1579404
            7           8           9          10          11          12
    1  -1.1579404  -1.1575719  -1.1575719  -1.1565837  -0.1839835  -0.0075167
           13          14          15          16
    1   0.0102214   0.0102214   0.0116091   0.0169486
 Analysis of SCF Wavefunction
 
 --------------------------------------------------------------
                    Orbital Energies (a.u.)
 --------------------------------------------------------------
 
 Alpha MOs
 -- Occupied --
-38.027 -38.027  -2.180  -2.180  -1.159  -1.158  -1.158  -1.158
 -1.158  -1.157  -0.184
 -- Virtual --
 -0.008   0.010   0.010   0.012   0.017   0.021   0.021   0.029
  0.032   0.032   0.039   0.045   0.059   0.059   0.064   0.107
  0.110   0.110   0.111   0.111   0.130   0.134   0.134   0.144
  0.144   0.144   0.154   0.154   0.160   0.197   0.197   0.204
  0.276   0.276   0.305   0.305   0.315   0.324   0.334   0.334
  0.357   0.357   0.381   0.381   0.399   0.399   0.406   0.483
  0.491   0.491   0.500   0.500   0.526   0.532   0.532   0.534
  0.534   0.552   0.552   0.646   0.697   0.697   0.824   1.141
  1.141   1.186   1.196   1.196   1.223   1.223   1.241   1.241
  1.290   1.290   1.423   1.423   1.478   1.796   1.803   1.812
  1.812   1.818   1.825   1.862   1.877   1.943   1.943   2.163
  2.464   4.458   4.458   4.480   4.480   4.551   4.837   8.673
  8.682   8.711   8.740   9.115   9.118   9.118   9.124   9.174
  9.174  13.550  13.552  13.552  13.556  13.556  13.574  13.655
 13.655  13.657  13.660  13.662  13.664  13.664  13.666  95.875
 96.213
 --------------------------------------------------------------
 
          Ground-State Mulliken Net Atomic Charges

     Atom                 Charge (a.u.)
  ----------------------------------------
      1 Na                    0.000000
      2 Na                    0.000000
  ----------------------------------------
  Sum of atomic charges =     0.000000

 -----------------------------------------------------------------
                    Cartesian Multipole Moments
 -----------------------------------------------------------------
    Charge (ESU x 10^10)
                 0.0000
    Dipole Moment (Debye)
         X       0.0000      Y       0.0000      Z       0.0000
       Tot       0.0000
    Quadrupole Moments (Debye-Ang)
        XX     -23.2944     XY       0.0000     YY     -23.2944
        XZ       0.0000     YZ       0.0000     ZZ      -7.6184
    Octapole Moments (Debye-Ang^2)
       XXX       0.0000    XXY       0.0000    XYY       0.0000
       YYY       0.0000    XXZ     -35.3939    XYZ       0.0000
       YYZ     -35.3939    XZZ       0.0000    YZZ       0.0000
       ZZZ     -34.7264
    Hexadecapole Moments (Debye-Ang^3)
      XXXX    -101.5459   XXXY       0.0000   XXYY     -33.8471
      XYYY       0.0000   YYYY    -101.5459   XXXZ       0.0000
      XXYZ       0.0000   XYYZ       0.0000   YYYZ       0.0000
      XXZZ    -113.9831   XYZZ       0.0000   YYZZ    -113.9831
      XZZZ       0.0000   YZZZ       0.0000   ZZZZ    -327.3183
 -----------------------------------------------------------------
 Calculating analytic gradient of the SCF energy
 Gradient of AOints
            1           2
    1  -0.0000000   0.0000000
    2  -0.0000000   0.0000000
    3   2.8974059  -2.8974059
 Warning!  Inaccurate integrated density:
   Number of electrons =    22
   Numerical integral  =    22.029990955529
   Relative error      =     0.1363225251 %
 Gradient of XC Energy
            1           2
    1   0.0000000  -0.0000000
    2   0.0000000  -0.0000000
    3   0.0551835  -0.0551835
 Gradient of SCF Energy
            1           2
    1  -0.0000000   0.0000000
    2   0.0000000  -0.0000000
    3   0.0003645  -0.0003645
 Max gradient component =       3.645E-04
 RMS gradient           =       2.104E-04
 Gradient time:  CPU 22.85 s  wall 23.12 s
 Geometry Optimization Parameters
   NAtoms,    NIC,     NZ,  NCons,   NDum,   NFix, NCnnct, MaxDiis
        2       5       2       0       0       0       0       0

 Cartesian Hessian Update
 Hessian Updated using BFGS Update
**WARNING** Hereditary positive definiteness endangered
**WARNING** Small Scalar Product
 Hessian Update Skipped this cycle


** GEOMETRY OPTIMIZATION IN CARTESIAN COORDINATES **
   Searching for a Minimum

   Optimization Cycle:   4

                       Coordinates (Angstroms)
     ATOM              X           Y           Z
    1  Na          0.000000    0.000000   -0.000606
    2  Na          0.000000    0.000000    3.039442
   Point Group: c1    Number of degrees of freedom:   0


   Energy is   -324.380063573


 Translations and Rotations Projected Out of Hessian

  1 Hessian modes will be used to form the next step
  Hessian Eigenvalues:
     1.000000

 Minimum Search - Taking Simple RFO Step
 Searching for Lamda that Minimizes Along All modes
 Value Taken    Lamda =   0.00000000
 Step Taken.  Stepsize is  0.000515

                             Maximum     Tolerance    Cnvgd?
         Gradient           0.000364      0.000300      NO
         Displacement       0.000364      0.001200     YES
         Energy change      0.000000      0.000001     YES

 Writing REM_CC_EA            2
 ----------------------------------------------------
       Standard Nuclear Orientation (Angstroms)
    I     Atom         X            Y            Z
 ----------------------------------------------------
    1      Na      0.000000     0.000000    -0.000799
    2      Na      0.000000     0.000000     3.039635
 ----------------------------------------------------
 Nuclear Repulsion Energy =    21.0596426937 hartrees
 There are       11 alpha and       11 beta electrons
 Applying Cartesian multipole field
    Component          Value
    ---------          -----
     (2,0,0)        1.00000E-11
     (0,2,0)        2.00000E-11
     (0,0,2)       -3.00000E-12
 Nucleus-field energy     =    -0.0000000011 hartrees
 Requested basis set is G3large
 There are 38 shells and 132 basis functions
 A cutoff of  1.0D-11 yielded    705 shell pairs
 There are   8702 function pairs ( 12509 Cartesian)
Evaluating contribution to one-electron hamiltonian from nuclear
 Smallest overlap matrix eigenvalue = 1.47E-04
 Multipole matrices computed through 2nd order
 Guess MOs from SCF MO coefficient file
Reading MOs from coefficient file
Reading MOs from coefficient file
 Long-range K will be added via erf
 Coulomb attenuation parameter = 0.23 bohr**(-1)
 A restricted Kohn-Sham SCF calculation will be
 performed using Pulay DIIS extrapolation
 Exchange:  wPBE + LR-HF      Correlation:  PBE
 Using SG-1 standard quadrature grid
 SCF converges when DIIS error is below 1.0E-08
 Requested basis set is G3large
 There are 38 shells and 132 basis functions
 A cutoff of  1.0D-11 yielded    705 shell pairs
 There are   8702 function pairs ( 12509 Cartesian)
 Warning!  Inaccurate integrated density:
   Number of electrons =    22
   Numerical integral  =    22.029992903417
   Relative error      =     0.1363313792 %
 ---------------------------------------
  Cycle       Energy         DIIS Error
 ---------------------------------------
    1    -324.3802279598      4.78E-06
 Warning!  Inaccurate integrated density:
   Number of electrons =    22
   Numerical integral  =    22.029990747369
   Relative error      =     0.1363215790 %
    2    -324.3800638328      7.81E-07
 Warning!  Inaccurate integrated density:
   Number of electrons =    22
   Numerical integral  =    22.029990936446
   Relative error      =     0.1363224384 %
    3    -324.3800638340      6.28E-07
 Warning!  Inaccurate integrated density:
   Number of electrons =    22
   Numerical integral  =    22.029990863259
   Relative error      =     0.1363221057 %
    4    -324.3800638368      3.24E-08
 Warning!  Inaccurate integrated density:
   Number of electrons =    22
   Numerical integral  =    22.029990851007
   Relative error      =     0.1363220500 %
    5    -324.3800638356      3.42E-09 Convergence criterion met
 ---------------------------------------
 One-Electron    Energy =  -498.0781000522
 Total Coulomb   Energy =   181.3294836687
 Alpha Exchange  Energy =    -1.3620162112
 Beta  Exchange  Energy =    -1.3620162112
 DFT   Exchange  Energy =   -25.2040494210
 DFT Correlation Energy =    -0.7630083014
 Nuclear Repu.   Energy =    21.0596426926
 Nuclear Attr.   Energy =  -821.7561570018
 Kinetic         Energy =   323.6780569496
 SCF time:  CPU 21.63 s  wall 22.86 s
 Final Alpha MO Eigenvalues
            1           2           3           4           5           6
    1 -38.0273619 -38.0273506  -2.1797780  -2.1797376  -1.1590323  -1.1579425
            7           8           9          10          11          12
    1  -1.1579425  -1.1575743  -1.1575743  -1.1565864  -0.1839775  -0.0075210
           13          14          15          16
    1   0.0102217   0.0102217   0.0116087   0.0169475
 Analysis of SCF Wavefunction
 
 --------------------------------------------------------------
                    Orbital Energies (a.u.)
 --------------------------------------------------------------
 
 Alpha MOs
 -- Occupied --
-38.027 -38.027  -2.180  -2.180  -1.159  -1.158  -1.158  -1.158
 -1.158  -1.157  -0.184
 -- Virtual --
 -0.008   0.010   0.010   0.012   0.017   0.021   0.021   0.029
  0.032   0.032   0.039   0.045   0.059   0.059   0.064   0.107
  0.110   0.110   0.111   0.111   0.130   0.134   0.134   0.144
  0.144   0.144   0.154   0.154   0.160   0.197   0.197   0.204
  0.276   0.276   0.305   0.305   0.315   0.324   0.334   0.334
  0.357   0.357   0.381   0.381   0.399   0.399   0.406   0.483
  0.491   0.491   0.500   0.500   0.526   0.532   0.532   0.534
  0.534   0.552   0.552   0.646   0.697   0.697   0.824   1.141
  1.141   1.186   1.196   1.196   1.223   1.223   1.241   1.241
  1.290   1.290   1.423   1.423   1.478   1.796   1.803   1.812
  1.812   1.818   1.825   1.862   1.877   1.943   1.943   2.163
  2.464   4.458   4.458   4.480   4.480   4.551   4.836   8.673
  8.682   8.711   8.740   9.115   9.118   9.118   9.124   9.174
  9.174  13.550  13.552  13.552  13.556  13.556  13.574  13.655
 13.655  13.657  13.660  13.662  13.664  13.664  13.666  95.875
 96.213
 --------------------------------------------------------------
 
          Ground-State Mulliken Net Atomic Charges

     Atom                 Charge (a.u.)
  ----------------------------------------
      1 Na                    0.000000
      2 Na                    0.000000
  ----------------------------------------
  Sum of atomic charges =     0.000000

 -----------------------------------------------------------------
                    Cartesian Multipole Moments
 -----------------------------------------------------------------
    Charge (ESU x 10^10)
                 0.0000
    Dipole Moment (Debye)
         X       0.0000      Y       0.0000      Z       0.0000
       Tot       0.0000
    Quadrupole Moments (Debye-Ang)
        XX     -23.2948     XY       0.0000     YY     -23.2948
        XZ       0.0000     YZ       0.0000     ZZ      -7.6161
    Octapole Moments (Debye-Ang^2)
       XXX       0.0000    XXY       0.0000    XYY       0.0000
       YYY       0.0000    XXZ     -35.3946    XYZ       0.0000
       YYZ     -35.3946    XZZ       0.0000    YZZ       0.0000
       ZZZ     -34.7159
    Hexadecapole Moments (Debye-Ang^3)
      XXXX    -101.5521   XXXY       0.0000   XXYY     -33.8492
      XYYY       0.0000   YYYY    -101.5521   XXXZ       0.0000
      XXYZ       0.0000   XYYZ       0.0000   YYYZ       0.0000
      XXZZ    -113.9950   XYZZ       0.0000   YYZZ    -113.9950
      XZZZ       0.0000   YZZZ       0.0000   ZZZZ    -327.3256
 -----------------------------------------------------------------
 Calculating analytic gradient of the SCF energy
 Gradient of AOints
            1           2
    1  -0.0000000   0.0000000
    2  -0.0000000   0.0000000
    3   2.8971536  -2.8971536
 Warning!  Inaccurate integrated density:
   Number of electrons =    22
   Numerical integral  =    22.029990875015
   Relative error      =     0.1363221592 %
 Gradient of XC Energy
            1           2
    1   0.0000000  -0.0000000
    2   0.0000000  -0.0000000
    3   0.0551606  -0.0551606
 Gradient of SCF Energy
            1           2
    1  -0.0000000   0.0000000
    2  -0.0000000   0.0000000
    3   0.0003562  -0.0003562
 Max gradient component =       3.562E-04
 RMS gradient           =       2.057E-04
 Gradient time:  CPU 22.47 s  wall 22.59 s
 Geometry Optimization Parameters
   NAtoms,    NIC,     NZ,  NCons,   NDum,   NFix, NCnnct, MaxDiis
        2       5       2       0       0       0       0       0

 Cartesian Hessian Update
 Hessian Updated using BFGS Update
**WARNING** Hereditary positive definiteness endangered
**WARNING** Small Scalar Product
 Hessian Update Skipped this cycle


** GEOMETRY OPTIMIZATION IN CARTESIAN COORDINATES **
   Searching for a Minimum

   Optimization Cycle:   5

                       Coordinates (Angstroms)
     ATOM              X           Y           Z
    1  Na          0.000000    0.000000   -0.000799
    2  Na          0.000000    0.000000    3.039635
   Point Group: c1    Number of degrees of freedom:   0


   Energy is   -324.380063836


 Translations and Rotations Projected Out of Hessian

  1 Hessian modes will be used to form the next step
  Hessian Eigenvalues:
     1.000000

 Minimum Search - Taking Simple RFO Step
 Searching for Lamda that Minimizes Along All modes
 Value Taken    Lamda =   0.00000000
 Step Taken.  Stepsize is  0.000504

                             Maximum     Tolerance    Cnvgd?
         Gradient           0.000356      0.000300      NO
         Displacement       0.000356      0.001200     YES
         Energy change      0.000000      0.000001     YES

 Writing REM_CC_EA            2
 ----------------------------------------------------
       Standard Nuclear Orientation (Angstroms)
    I     Atom         X            Y            Z
 ----------------------------------------------------
    1      Na      0.000000     0.000000    -0.000987
    2      Na      0.000000     0.000000     3.039823
 ----------------------------------------------------
 Nuclear Repulsion Energy =    21.0570317662 hartrees
 There are       11 alpha and       11 beta electrons
 Applying Cartesian multipole field
    Component          Value
    ---------          -----
     (2,0,0)        1.00000E-11
     (0,2,0)        2.00000E-11
     (0,0,2)       -3.00000E-12
 Nucleus-field energy     =    -0.0000000011 hartrees
 Requested basis set is G3large
 There are 38 shells and 132 basis functions
 A cutoff of  1.0D-11 yielded    705 shell pairs
 There are   8702 function pairs ( 12509 Cartesian)
Evaluating contribution to one-electron hamiltonian from nuclear
 Smallest overlap matrix eigenvalue = 1.47E-04
 Multipole matrices computed through 2nd order
 Guess MOs from SCF MO coefficient file
Reading MOs from coefficient file
Reading MOs from coefficient file
 Long-range K will be added via erf
 Coulomb attenuation parameter = 0.23 bohr**(-1)
 A restricted Kohn-Sham SCF calculation will be
 performed using Pulay DIIS extrapolation
 Exchange:  wPBE + LR-HF      Correlation:  PBE
 Using SG-1 standard quadrature grid
 SCF converges when DIIS error is below 1.0E-08
 Requested basis set is G3large
 There are 38 shells and 132 basis functions
 A cutoff of  1.0D-11 yielded    705 shell pairs
 There are   8702 function pairs ( 12509 Cartesian)
 Warning!  Inaccurate integrated density:
   Number of electrons =    22
   Numerical integral  =    22.029992738640
   Relative error      =     0.1363306302 %
 ---------------------------------------
  Cycle       Energy         DIIS Error
 ---------------------------------------
    1    -324.3802244300      4.67E-06
 Warning!  Inaccurate integrated density:
   Number of electrons =    22
   Numerical integral  =    22.029990676214
   Relative error      =     0.1363212555 %
    2    -324.3800640844      7.63E-07
 Warning!  Inaccurate integrated density:
   Number of electrons =    22
   Numerical integral  =    22.029990857181
   Relative error      =     0.1363220781 %
    3    -324.3800640848      6.13E-07
 Warning!  Inaccurate integrated density:
   Number of electrons =    22
   Numerical integral  =    22.029990785646
   Relative error      =     0.1363217529 %
    4    -324.3800640876      3.17E-08
 Warning!  Inaccurate integrated density:
   Number of electrons =    22
   Numerical integral  =    22.029990773461
   Relative error      =     0.1363216975 %
    5    -324.3800640865      3.35E-09 Convergence criterion met
 ---------------------------------------
 One-Electron    Energy =  -498.0728531623
 Total Coulomb   Energy =   181.3268361667
 Alpha Exchange  Energy =    -1.3620145248
 Beta  Exchange  Energy =    -1.3620145248
 DFT   Exchange  Energy =   -25.2040422419
 DFT Correlation Energy =    -0.7630075644
 Nuclear Repu.   Energy =    21.0570317651
 Nuclear Attr.   Energy =  -821.7508593637
 Kinetic         Energy =   323.6780062014
 SCF time:  CPU 21.62 s  wall 22.26 s
 Final Alpha MO Eigenvalues
            1           2           3           4           5           6
    1 -38.0273645 -38.0273532  -2.1797802  -2.1797394  -1.1590323  -1.1579445
            7           8           9          10          11          12
    1  -1.1579445  -1.1575767  -1.1575767  -1.1565890  -0.1839716  -0.0075253
           13          14          15          16
    1   0.0102221   0.0102221   0.0116082   0.0169464
 Analysis of SCF Wavefunction
 
 --------------------------------------------------------------
                    Orbital Energies (a.u.)
 --------------------------------------------------------------
 
 Alpha MOs
 -- Occupied --
-38.027 -38.027  -2.180  -2.180  -1.159  -1.158  -1.158  -1.158
 -1.158  -1.157  -0.184
 -- Virtual --
 -0.008   0.010   0.010   0.012   0.017   0.021   0.021   0.029
  0.032   0.032   0.039   0.045   0.059   0.059   0.064   0.107
  0.110   0.110   0.111   0.111   0.130   0.134   0.134   0.144
  0.144   0.144   0.154   0.154   0.160   0.197   0.197   0.204
  0.276   0.276   0.304   0.304   0.315   0.324   0.334   0.334
  0.357   0.357   0.381   0.381   0.399   0.399   0.406   0.483
  0.491   0.491   0.500   0.500   0.526   0.532   0.532   0.534
  0.534   0.552   0.552   0.646   0.697   0.697   0.824   1.141
  1.141   1.186   1.196   1.196   1.223   1.223   1.241   1.241
  1.290   1.290   1.422   1.422   1.478   1.796   1.803   1.812
  1.812   1.818   1.825   1.862   1.877   1.943   1.943   2.163
  2.464   4.458   4.458   4.480   4.480   4.551   4.836   8.673
  8.682   8.711   8.740   9.115   9.118   9.118   9.124   9.174
  9.174  13.550  13.552  13.552  13.556  13.556  13.574  13.655
 13.655  13.657  13.660  13.662  13.664  13.664  13.666  95.875
 96.213
 --------------------------------------------------------------
 
          Ground-State Mulliken Net Atomic Charges

     Atom                 Charge (a.u.)
  ----------------------------------------
      1 Na                    0.000000
      2 Na                    0.000000
  ----------------------------------------
  Sum of atomic charges =     0.000000

 -----------------------------------------------------------------
                    Cartesian Multipole Moments
 -----------------------------------------------------------------
    Charge (ESU x 10^10)
                 0.0000
    Dipole Moment (Debye)
         X       0.0000      Y       0.0000      Z       0.0000
       Tot       0.0000
    Quadrupole Moments (Debye-Ang)
        XX     -23.2952     XY       0.0000     YY     -23.2952
        XZ       0.0000     YZ       0.0000     ZZ      -7.6138
    Octapole Moments (Debye-Ang^2)
       XXX       0.0000    XXY       0.0000    XYY       0.0000
       YYY       0.0000    XXZ     -35.3952    XYZ       0.0000
       YYZ     -35.3952    XZZ       0.0000    YZZ       0.0000
       ZZZ     -34.7057
    Hexadecapole Moments (Debye-Ang^3)
      XXXX    -101.5581   XXXY       0.0000   XXYY     -33.8512
      XYYY       0.0000   YYYY    -101.5581   XXXZ       0.0000
      XXYZ       0.0000   XYYZ       0.0000   YYYZ       0.0000
      XXZZ    -114.0066   XYZZ       0.0000   YYZZ    -114.0066
      XZZZ       0.0000   YZZZ       0.0000   ZZZZ    -327.3328
 -----------------------------------------------------------------
 Calculating analytic gradient of the SCF energy
 Gradient of AOints
            1           2
    1  -0.0000000   0.0000000
    2  -0.0000000   0.0000000
    3   2.8969069  -2.8969069
 Warning!  Inaccurate integrated density:
   Number of electrons =    22
   Numerical integral  =    22.029990797312
   Relative error      =     0.1363218060 %
 Gradient of XC Energy
            1           2
    1   0.0000000  -0.0000000
    2   0.0000000  -0.0000000
    3   0.0551383  -0.0551383
 Gradient of SCF Energy
            1           2
    1  -0.0000000   0.0000000
    2   0.0000000  -0.0000000
    3   0.0003481  -0.0003481
 Max gradient component =       3.481E-04
 RMS gradient           =       2.010E-04
 Gradient time:  CPU 22.87 s  wall 22.97 s
 Geometry Optimization Parameters
   NAtoms,    NIC,     NZ,  NCons,   NDum,   NFix, NCnnct, MaxDiis
        2       5       2       0       0       0       0       0

 Cartesian Hessian Update
 Hessian Updated using BFGS Update
**WARNING** Hereditary positive definiteness endangered
**WARNING** Small Scalar Product
 Hessian Update Skipped this cycle


** GEOMETRY OPTIMIZATION IN CARTESIAN COORDINATES **
   Searching for a Minimum

   Optimization Cycle:   6

                       Coordinates (Angstroms)
     ATOM              X           Y           Z
    1  Na          0.000000    0.000000   -0.000987
    2  Na          0.000000    0.000000    3.039823
   Point Group: c1    Number of degrees of freedom:   0


   Energy is   -324.380064087


 Translations and Rotations Projected Out of Hessian

  1 Hessian modes will be used to form the next step
  Hessian Eigenvalues:
     1.000000

 Minimum Search - Taking Simple RFO Step
 Searching for Lamda that Minimizes Along All modes
 Value Taken    Lamda =   0.00000000
 Step Taken.  Stepsize is  0.000492

                             Maximum     Tolerance    Cnvgd?
         Gradient           0.000348      0.000300      NO
         Displacement       0.000348      0.001200     YES
         Energy change      0.000000      0.000001     YES

 Writing REM_CC_EA            2
 ----------------------------------------------------
       Standard Nuclear Orientation (Angstroms)
    I     Atom         X            Y            Z
 ----------------------------------------------------
    1      Na      0.000000     0.000000    -0.001171
    2      Na      0.000000     0.000000     3.040007
 ----------------------------------------------------
 Nuclear Repulsion Energy =    21.0544806265 hartrees
 There are       11 alpha and       11 beta electrons
 Applying Cartesian multipole field
    Component          Value
    ---------          -----
     (2,0,0)        1.00000E-11
     (0,2,0)        2.00000E-11
     (0,0,2)       -3.00000E-12
 Nucleus-field energy     =    -0.0000000011 hartrees
 Requested basis set is G3large
 There are 38 shells and 132 basis functions
 A cutoff of  1.0D-11 yielded    705 shell pairs
 There are   8702 function pairs ( 12509 Cartesian)
Evaluating contribution to one-electron hamiltonian from nuclear
 Smallest overlap matrix eigenvalue = 1.48E-04
 Multipole matrices computed through 2nd order
 Guess MOs from SCF MO coefficient file
Reading MOs from coefficient file
Reading MOs from coefficient file
 Long-range K will be added via erf
 Coulomb attenuation parameter = 0.23 bohr**(-1)
 A restricted Kohn-Sham SCF calculation will be
 performed using Pulay DIIS extrapolation
 Exchange:  wPBE + LR-HF      Correlation:  PBE
 Using SG-1 standard quadrature grid
 SCF converges when DIIS error is below 1.0E-08
 Requested basis set is G3large
 There are 38 shells and 132 basis functions
 A cutoff of  1.0D-11 yielded    705 shell pairs
 There are   8702 function pairs ( 12509 Cartesian)
 Warning!  Inaccurate integrated density:
   Number of electrons =    22
   Numerical integral  =    22.029992580401
   Relative error      =     0.1363299109 %
 ---------------------------------------
  Cycle       Energy         DIIS Error
 ---------------------------------------
    1    -324.3802209776      4.57E-06
 Warning!  Inaccurate integrated density:
   Number of electrons =    22
   Numerical integral  =    22.029990603954
   Relative error      =     0.1363209271 %
    2    -324.3800643240      7.45E-07
 Warning!  Inaccurate integrated density:
   Number of electrons =    22
   Numerical integral  =    22.029990780494
   Relative error      =     0.1363217295 %
    3    -324.3800643244      5.99E-07
 Warning!  Inaccurate integrated density:
   Number of electrons =    22
   Numerical integral  =    22.029990712296
   Relative error      =     0.1363214195 %
    4    -324.3800643277      3.10E-08
 Warning!  Inaccurate integrated density:
   Number of electrons =    22
   Numerical integral  =    22.029990699753
   Relative error      =     0.1363213625 %
    5    -324.3800643261      3.27E-09 Convergence criterion met
 ---------------------------------------
 One-Electron    Energy =  -498.0677262902
 Total Coulomb   Energy =   181.3242491609
 Alpha Exchange  Energy =    -1.3620128762
 Beta  Exchange  Energy =    -1.3620128762
 DFT   Exchange  Energy =   -25.2040352260
 DFT Correlation Energy =    -0.7630068438
 Nuclear Repu.   Energy =    21.0544806254
 Nuclear Attr.   Energy =  -821.7456829016
 Kinetic         Energy =   323.6779566114
 SCF time:  CPU 21.51 s  wall 22.43 s
 Final Alpha MO Eigenvalues
            1           2           3           4           5           6
    1 -38.0273671 -38.0273558  -2.1797823  -2.1797412  -1.1590323  -1.1579465
            7           8           9          10          11          12
    1  -1.1579465  -1.1575791  -1.1575791  -1.1565915  -0.1839658  -0.0075294
           13          14          15          16
    1   0.0102225   0.0102225   0.0116078   0.0169453
 Analysis of SCF Wavefunction
 
 --------------------------------------------------------------
                    Orbital Energies (a.u.)
 --------------------------------------------------------------
 
 Alpha MOs
 -- Occupied --
-38.027 -38.027  -2.180  -2.180  -1.159  -1.158  -1.158  -1.158
 -1.158  -1.157  -0.184
 -- Virtual --
 -0.008   0.010   0.010   0.012   0.017   0.021   0.021   0.029
  0.032   0.032   0.039   0.045   0.059   0.059   0.064   0.107
  0.110   0.110   0.111   0.111   0.130   0.134   0.134   0.144
  0.144   0.144   0.154   0.154   0.160   0.197   0.197   0.204
  0.276   0.276   0.304   0.304   0.315   0.324   0.334   0.334
  0.357   0.357   0.381   0.381   0.399   0.399   0.406   0.483
  0.491   0.491   0.500   0.500   0.526   0.532   0.532   0.534
  0.534   0.552   0.552   0.646   0.697   0.697   0.824   1.141
  1.141   1.186   1.196   1.196   1.223   1.223   1.241   1.241
  1.290   1.290   1.422   1.422   1.478   1.796   1.803   1.812
  1.812   1.818   1.825   1.862   1.877   1.943   1.943   2.163
  2.464   4.458   4.458   4.480   4.480   4.551   4.836   8.673
  8.682   8.711   8.740   9.115   9.118   9.118   9.124   9.174
  9.174  13.550  13.552  13.552  13.556  13.556  13.573  13.655
 13.655  13.657  13.660  13.662  13.663  13.663  13.666  95.875
 96.213
 --------------------------------------------------------------
 
          Ground-State Mulliken Net Atomic Charges

     Atom                 Charge (a.u.)
  ----------------------------------------
      1 Na                    0.000000
      2 Na                    0.000000
  ----------------------------------------
  Sum of atomic charges =     0.000000

 -----------------------------------------------------------------
                    Cartesian Multipole Moments
 -----------------------------------------------------------------
    Charge (ESU x 10^10)
                 0.0000
    Dipole Moment (Debye)
         X       0.0000      Y       0.0000      Z       0.0000
       Tot       0.0000
    Quadrupole Moments (Debye-Ang)
        XX     -23.2957     XY       0.0000     YY     -23.2957
        XZ       0.0000     YZ       0.0000     ZZ      -7.6116
    Octapole Moments (Debye-Ang^2)
       XXX       0.0000    XXY       0.0000    XYY       0.0000
       YYY       0.0000    XXZ     -35.3958    XYZ       0.0000
       YYZ     -35.3958    XZZ       0.0000    YZZ       0.0000
       ZZZ     -34.6957
    Hexadecapole Moments (Debye-Ang^3)
      XXXX    -101.5640   XXXY       0.0000   XXYY     -33.8532
      XYYY       0.0000   YYYY    -101.5640   XXXZ       0.0000
      XXYZ       0.0000   XYYZ       0.0000   YYYZ       0.0000
      XXZZ    -114.0179   XYZZ       0.0000   YYZZ    -114.0179
      XZZZ       0.0000   YZZZ       0.0000   ZZZZ    -327.3398
 -----------------------------------------------------------------
 Calculating analytic gradient of the SCF energy
 Gradient of AOints
            1           2
    1  -0.0000000   0.0000000
    2  -0.0000000   0.0000000
    3   2.8966659  -2.8966659
 Warning!  Inaccurate integrated density:
   Number of electrons =    22
   Numerical integral  =    22.029990722317
   Relative error      =     0.1363214651 %
 Gradient of XC Energy
            1           2
    1   0.0000000  -0.0000000
    2   0.0000000  -0.0000000
    3   0.0551165  -0.0551165
 Gradient of SCF Energy
            1           2
    1  -0.0000000   0.0000000
    2   0.0000000  -0.0000000
    3   0.0003402  -0.0003402
 Max gradient component =       3.402E-04
 RMS gradient           =       1.964E-04
 Gradient time:  CPU 23.19 s  wall 23.27 s
 Geometry Optimization Parameters
   NAtoms,    NIC,     NZ,  NCons,   NDum,   NFix, NCnnct, MaxDiis
        2       5       2       0       0       0       0       0

 Cartesian Hessian Update
 Hessian Updated using BFGS Update
**WARNING** Hereditary positive definiteness endangered
**WARNING** Small Scalar Product
 Hessian Update Skipped this cycle


** GEOMETRY OPTIMIZATION IN CARTESIAN COORDINATES **
   Searching for a Minimum

   Optimization Cycle:   7

                       Coordinates (Angstroms)
     ATOM              X           Y           Z
    1  Na          0.000000    0.000000   -0.001171
    2  Na          0.000000    0.000000    3.040007
   Point Group: c1    Number of degrees of freedom:   0


   Energy is   -324.380064326


 Translations and Rotations Projected Out of Hessian

  1 Hessian modes will be used to form the next step
  Hessian Eigenvalues:
     1.000000

 Minimum Search - Taking Simple RFO Step
 Searching for Lamda that Minimizes Along All modes
 Value Taken    Lamda =   0.00000000
 Step Taken.  Stepsize is  0.000481

                             Maximum     Tolerance    Cnvgd?
         Gradient           0.000340      0.000300      NO
         Displacement       0.000340      0.001200     YES
         Energy change      0.000000      0.000001     YES

 Writing REM_CC_EA            2
 ----------------------------------------------------
       Standard Nuclear Orientation (Angstroms)
    I     Atom         X            Y            Z
 ----------------------------------------------------
    1      Na      0.000000     0.000000    -0.001351
    2      Na      0.000000     0.000000     3.040188
 ----------------------------------------------------
 Nuclear Repulsion Energy =    21.0519878865 hartrees
 There are       11 alpha and       11 beta electrons
 Applying Cartesian multipole field
    Component          Value
    ---------          -----
     (2,0,0)        1.00000E-11
     (0,2,0)        2.00000E-11
     (0,0,2)       -3.00000E-12
 Nucleus-field energy     =    -0.0000000011 hartrees
 Requested basis set is G3large
 There are 38 shells and 132 basis functions
 A cutoff of  1.0D-11 yielded    705 shell pairs
 There are   8702 function pairs ( 12509 Cartesian)
Evaluating contribution to one-electron hamiltonian from nuclear
 Smallest overlap matrix eigenvalue = 1.48E-04
 Multipole matrices computed through 2nd order
 Guess MOs from SCF MO coefficient file
Reading MOs from coefficient file
Reading MOs from coefficient file
 Long-range K will be added via erf
 Coulomb attenuation parameter = 0.23 bohr**(-1)
 A restricted Kohn-Sham SCF calculation will be
 performed using Pulay DIIS extrapolation
 Exchange:  wPBE + LR-HF      Correlation:  PBE
 Using SG-1 standard quadrature grid
 SCF converges when DIIS error is below 1.0E-08
 Requested basis set is G3large
 There are 38 shells and 132 basis functions
 A cutoff of  1.0D-11 yielded    705 shell pairs
 There are   8702 function pairs ( 12509 Cartesian)
 Warning!  Inaccurate integrated density:
   Number of electrons =    22
   Numerical integral  =    22.029992428427
   Relative error      =     0.1363292201 %
 ---------------------------------------
  Cycle       Energy         DIIS Error
 ---------------------------------------
    1    -324.3802176012      4.46E-06
 Warning!  Inaccurate integrated density:
   Number of electrons =    22
   Numerical integral  =    22.029990534241
   Relative error      =     0.1363206102 %
    2    -324.3800645529      7.28E-07
 Warning!  Inaccurate integrated density:
   Number of electrons =    22
   Numerical integral  =    22.029990703353
   Relative error      =     0.1363213789 %
    3    -324.3800645528      5.85E-07
 Warning!  Inaccurate integrated density:
   Number of electrons =    22
   Numerical integral  =    22.029990636642
   Relative error      =     0.1363210756 %
    4    -324.3800645559      3.02E-08
 Warning!  Inaccurate integrated density:
   Number of electrons =    22
   Numerical integral  =    22.029990624462
   Relative error      =     0.1363210203 %
    5    -324.3800645544      3.19E-09 Convergence criterion met
 ---------------------------------------
 One-Electron    Energy =  -498.0627166507
 Total Coulomb   Energy =   181.3217212480
 Alpha Exchange  Energy =    -1.3620112643
 Beta  Exchange  Energy =    -1.3620112643
 DFT   Exchange  Energy =   -25.2040283693
 DFT Correlation Energy =    -0.7630061392
 Nuclear Repu.   Energy =    21.0519878854
 Nuclear Attr.   Energy =  -821.7406248037
 Kinetic         Energy =   323.6779081530
 SCF time:  CPU 21.44 s  wall 22.13 s
 Final Alpha MO Eigenvalues
            1           2           3           4           5           6
    1 -38.0273696 -38.0273583  -2.1797844  -2.1797429  -1.1590323  -1.1579485
            7           8           9          10          11          12
    1  -1.1579485  -1.1575814  -1.1575814  -1.1565941  -0.1839602  -0.0075335
           13          14          15          16
    1   0.0102228   0.0102228   0.0116073   0.0169442
 Analysis of SCF Wavefunction
 
 --------------------------------------------------------------
                    Orbital Energies (a.u.)
 --------------------------------------------------------------
 
 Alpha MOs
 -- Occupied --
-38.027 -38.027  -2.180  -2.180  -1.159  -1.158  -1.158  -1.158
 -1.158  -1.157  -0.184
 -- Virtual --
 -0.008   0.010   0.010   0.012   0.017   0.021   0.021   0.029
  0.032   0.032   0.039   0.045   0.059   0.059   0.064   0.107
  0.110   0.110   0.111   0.111   0.130   0.134   0.134   0.144
  0.144   0.144   0.154   0.154   0.160   0.197   0.197   0.204
  0.276   0.276   0.304   0.304   0.315   0.324   0.334   0.334
  0.357   0.357   0.381   0.381   0.399   0.399   0.406   0.483
  0.491   0.491   0.500   0.500   0.526   0.532   0.532   0.534
  0.534   0.552   0.552   0.646   0.697   0.697   0.824   1.141
  1.141   1.186   1.196   1.196   1.223   1.223   1.241   1.241
  1.290   1.290   1.422   1.422   1.478   1.796   1.803   1.812
  1.812   1.818   1.825   1.862   1.877   1.943   1.943   2.163
  2.464   4.458   4.458   4.480   4.480   4.551   4.835   8.673
  8.682   8.711   8.740   9.115   9.118   9.118   9.124   9.174
  9.174  13.550  13.552  13.552  13.556  13.556  13.573  13.655
 13.655  13.657  13.660  13.662  13.663  13.663  13.666  95.875
 96.213
 --------------------------------------------------------------
 
          Ground-State Mulliken Net Atomic Charges

     Atom                 Charge (a.u.)
  ----------------------------------------
      1 Na                    0.000000
      2 Na                    0.000000
  ----------------------------------------
  Sum of atomic charges =     0.000000

 -----------------------------------------------------------------
                    Cartesian Multipole Moments
 -----------------------------------------------------------------
    Charge (ESU x 10^10)
                 0.0000
    Dipole Moment (Debye)
         X       0.0000      Y       0.0000      Z       0.0000
       Tot       0.0000
    Quadrupole Moments (Debye-Ang)
        XX     -23.2961     XY       0.0000     YY     -23.2961
        XZ       0.0000     YZ       0.0000     ZZ      -7.6095
    Octapole Moments (Debye-Ang^2)
       XXX       0.0000    XXY       0.0000    XYY       0.0000
       YYY       0.0000    XXZ     -35.3964    XYZ       0.0000
       YYZ     -35.3964    XZZ       0.0000    YZZ       0.0000
       ZZZ     -34.6859
    Hexadecapole Moments (Debye-Ang^3)
      XXXX    -101.5698   XXXY       0.0000   XXYY     -33.8551
      XYYY       0.0000   YYYY    -101.5698   XXXZ       0.0000
      XXYZ       0.0000   XYYZ       0.0000   YYYZ       0.0000
      XXZZ    -114.0290   XYZZ       0.0000   YYZZ    -114.0290
      XZZZ       0.0000   YZZZ       0.0000   ZZZZ    -327.3467
 -----------------------------------------------------------------
 Calculating analytic gradient of the SCF energy
 Gradient of AOints
            1           2
    1  -0.0000000   0.0000000
    2  -0.0000000   0.0000000
    3   2.8964303  -2.8964303
 Warning!  Inaccurate integrated density:
   Number of electrons =    22
   Numerical integral  =    22.029990649928
   Relative error      =     0.1363211360 %
 Gradient of XC Energy
            1           2
    1   0.0000000  -0.0000000
    2   0.0000000  -0.0000000
    3   0.0550951  -0.0550951
 Gradient of SCF Energy
            1           2
    1  -0.0000000   0.0000000
    2  -0.0000000   0.0000000
    3   0.0003325  -0.0003325
 Max gradient component =       3.325E-04
 RMS gradient           =       1.920E-04
 Gradient time:  CPU 23.32 s  wall 23.59 s
 Geometry Optimization Parameters
   NAtoms,    NIC,     NZ,  NCons,   NDum,   NFix, NCnnct, MaxDiis
        2       5       2       0       0       0       0       0

 Cartesian Hessian Update
 Hessian Updated using BFGS Update
**WARNING** Hereditary positive definiteness endangered
**WARNING** Small Scalar Product
 Hessian Update Skipped this cycle


** GEOMETRY OPTIMIZATION IN CARTESIAN COORDINATES **
   Searching for a Minimum

   Optimization Cycle:   8

                       Coordinates (Angstroms)
     ATOM              X           Y           Z
    1  Na          0.000000    0.000000   -0.001351
    2  Na          0.000000    0.000000    3.040188
   Point Group: c1    Number of degrees of freedom:   0


   Energy is   -324.380064554


 Translations and Rotations Projected Out of Hessian

  1 Hessian modes will be used to form the next step
  Hessian Eigenvalues:
     1.000000

 Minimum Search - Taking Simple RFO Step
 Searching for Lamda that Minimizes Along All modes
 Value Taken    Lamda =   0.00000000
 Step Taken.  Stepsize is  0.000470

                             Maximum     Tolerance    Cnvgd?
         Gradient           0.000333      0.000300      NO
         Displacement       0.000333      0.001200     YES
         Energy change      0.000000      0.000001     YES

 Writing REM_CC_EA            2
 ----------------------------------------------------
       Standard Nuclear Orientation (Angstroms)
    I     Atom         X            Y            Z
 ----------------------------------------------------
    1      Na      0.000000     0.000000    -0.001527
    2      Na      0.000000     0.000000     3.040363
 ----------------------------------------------------
 Nuclear Repulsion Energy =    21.0495521918 hartrees
 There are       11 alpha and       11 beta electrons
 Applying Cartesian multipole field
    Component          Value
    ---------          -----
     (2,0,0)        1.00000E-11
     (0,2,0)        2.00000E-11
     (0,0,2)       -3.00000E-12
 Nucleus-field energy     =    -0.0000000011 hartrees
 Requested basis set is G3large
 There are 38 shells and 132 basis functions
 A cutoff of  1.0D-11 yielded    705 shell pairs
 There are   8702 function pairs ( 12509 Cartesian)
Evaluating contribution to one-electron hamiltonian from nuclear
 Smallest overlap matrix eigenvalue = 1.48E-04
 Multipole matrices computed through 2nd order
 Guess MOs from SCF MO coefficient file
Reading MOs from coefficient file
Reading MOs from coefficient file
 Long-range K will be added via erf
 Coulomb attenuation parameter = 0.23 bohr**(-1)
 A restricted Kohn-Sham SCF calculation will be
 performed using Pulay DIIS extrapolation
 Exchange:  wPBE + LR-HF      Correlation:  PBE
 Using SG-1 standard quadrature grid
 SCF converges when DIIS error is below 1.0E-08
 Requested basis set is G3large
 There are 38 shells and 132 basis functions
 A cutoff of  1.0D-11 yielded    705 shell pairs
 There are   8702 function pairs ( 12509 Cartesian)
 Warning!  Inaccurate integrated density:
   Number of electrons =    22
   Numerical integral  =    22.029992282457
   Relative error      =     0.1363285566 %
 ---------------------------------------
  Cycle       Energy         DIIS Error
 ---------------------------------------
    1    -324.3802142989      4.36E-06
 Warning!  Inaccurate integrated density:
   Number of electrons =    22
   Numerical integral  =    22.029990466973
   Relative error      =     0.1363203044 %
    2    -324.3800647716      7.11E-07
 Warning!  Inaccurate integrated density:
   Number of electrons =    22
   Numerical integral  =    22.029990635770
   Relative error      =     0.1363210717 %
    3    -324.3800647721      5.72E-07
 Warning!  Inaccurate integrated density:
   Number of electrons =    22
   Numerical integral  =    22.029990570562
   Relative error      =     0.1363207753 %
    4    -324.3800647752      2.95E-08
 Warning!  Inaccurate integrated density:
   Number of electrons =    22
   Numerical integral  =    22.029990558484
   Relative error      =     0.1363207204 %
    5    -324.3800647736      3.12E-09 Convergence criterion met
 ---------------------------------------
 One-Electron    Energy =  -498.0578215393
 Total Coulomb   Energy =   181.3192510720
 Alpha Exchange  Energy =    -1.3620096885
 Beta  Exchange  Energy =    -1.3620096885
 DFT   Exchange  Energy =   -25.2040216694
 DFT Correlation Energy =    -0.7630054506
 Nuclear Repu.   Energy =    21.0495521907
 Nuclear Attr.   Energy =  -821.7356823400
 Kinetic         Energy =   323.6778608007
 SCF time:  CPU 21.40 s  wall 21.89 s
 Final Alpha MO Eigenvalues
            1           2           3           4           5           6
    1 -38.0273720 -38.0273607  -2.1797865  -2.1797446  -1.1590324  -1.1579504
            7           8           9          10          11          12
    1  -1.1579504  -1.1575836  -1.1575836  -1.1565965  -0.1839547  -0.0075374
           13          14          15          16
    1   0.0102232   0.0102232   0.0116069   0.0169432
 Analysis of SCF Wavefunction
 
 --------------------------------------------------------------
                    Orbital Energies (a.u.)
 --------------------------------------------------------------
 
 Alpha MOs
 -- Occupied --
-38.027 -38.027  -2.180  -2.180  -1.159  -1.158  -1.158  -1.158
 -1.158  -1.157  -0.184
 -- Virtual --
 -0.008   0.010   0.010   0.012   0.017   0.021   0.021   0.029
  0.032   0.032   0.039   0.045   0.059   0.059   0.064   0.107
  0.110   0.110   0.111   0.111   0.130   0.134   0.134   0.144
  0.144   0.144   0.154   0.154   0.160   0.197   0.197   0.204
  0.276   0.276   0.304   0.304   0.315   0.324   0.334   0.334
  0.357   0.357   0.381   0.381   0.399   0.399   0.406   0.483
  0.491   0.491   0.500   0.500   0.526   0.532   0.532   0.534
  0.534   0.552   0.552   0.647   0.696   0.696   0.824   1.141
  1.141   1.186   1.196   1.196   1.223   1.223   1.241   1.241
  1.290   1.290   1.422   1.422   1.478   1.796   1.803   1.811
  1.811   1.818   1.825   1.862   1.877   1.943   1.943   2.163
  2.464   4.458   4.458   4.480   4.480   4.551   4.835   8.673
  8.682   8.711   8.740   9.115   9.118   9.118   9.124   9.174
  9.174  13.550  13.552  13.552  13.556  13.556  13.573  13.655
 13.655  13.657  13.660  13.662  13.663  13.663  13.666  95.874
 96.213
 --------------------------------------------------------------
 
          Ground-State Mulliken Net Atomic Charges

     Atom                 Charge (a.u.)
  ----------------------------------------
      1 Na                    0.000000
      2 Na                    0.000000
  ----------------------------------------
  Sum of atomic charges =     0.000000

 -----------------------------------------------------------------
                    Cartesian Multipole Moments
 -----------------------------------------------------------------
    Charge (ESU x 10^10)
                 0.0000
    Dipole Moment (Debye)
         X       0.0000      Y       0.0000      Z       0.0000
       Tot       0.0000
    Quadrupole Moments (Debye-Ang)
        XX     -23.2965     XY       0.0000     YY     -23.2965
        XZ       0.0000     YZ       0.0000     ZZ      -7.6074
    Octapole Moments (Debye-Ang^2)
       XXX       0.0000    XXY       0.0000    XYY       0.0000
       YYY       0.0000    XXZ     -35.3971    XYZ       0.0000
       YYZ     -35.3971    XZZ       0.0000    YZZ       0.0000
       ZZZ     -34.6763
    Hexadecapole Moments (Debye-Ang^3)
      XXXX    -101.5754   XXXY       0.0000   XXYY     -33.8570
      XYYY       0.0000   YYYY    -101.5754   XXXZ       0.0000
      XXYZ       0.0000   XYYZ       0.0000   YYYZ       0.0000
      XXZZ    -114.0398   XYZZ       0.0000   YYZZ    -114.0398
      XZZZ       0.0000   YZZZ       0.0000   ZZZZ    -327.3535
 -----------------------------------------------------------------
 Calculating analytic gradient of the SCF energy
 Gradient of AOints
            1           2
    1  -0.0000000   0.0000000
    2  -0.0000000   0.0000000
    3   2.8962001  -2.8962001
 Warning!  Inaccurate integrated density:
   Number of electrons =    22
   Numerical integral  =    22.029990580044
   Relative error      =     0.1363208184 %
 Gradient of XC Energy
            1           2
    1   0.0000000  -0.0000000
    2   0.0000000  -0.0000000
    3   0.0550743  -0.0550743
 Gradient of SCF Energy
            1           2
    1  -0.0000000   0.0000000
    2  -0.0000000   0.0000000
[...]
    2  -0.0000183   0.0000183
    3   0.0549956  -0.0549956
 Gradient of SCF Energy
            1           2
    1  -0.0000000   0.0000000
    2  -0.0000003   0.0000003
    3   0.0002965  -0.0002965
 Max gradient component =       2.965E-04
 RMS gradient           =       1.712E-04
 Gradient time:  CPU 25.14 s  wall 25.47 s
 Writing REM_CC_EA            2
 ----------------------------------------------------
       Standard Nuclear Orientation (Angstroms)
    I     Atom         X            Y            Z
 ----------------------------------------------------
    1      Na      0.000000     0.000000    -0.002192
    2      Na      0.000000     0.000000     3.042028
 ----------------------------------------------------
 Nuclear Repulsion Energy =    21.0334423244 hartrees
 There are       11 alpha and       11 beta electrons

                       Distance Matrix (Angstroms)
             Na(  1)
   Na(  2)  3.044221
 
 Requested basis set is G3large
 There are 38 shells and 132 basis functions
 A cutoff of  1.0D-11 yielded    705 shell pairs
 There are   8702 function pairs ( 12509 Cartesian)
Evaluating contribution to one-electron hamiltonian from nuclear
 Smallest overlap matrix eigenvalue = 1.48E-04
 Multipole matrices computed through 2nd order
 Guess MOs from SCF MO coefficient file
Reading MOs from coefficient file
Reading MOs from coefficient file
 Long-range K will be added via erf
 Coulomb attenuation parameter = 0.23 bohr**(-1)
 A restricted Kohn-Sham SCF calculation will be
 performed using Pulay DIIS extrapolation
 Exchange:  wPBE + LR-HF      Correlation:  PBE
 Using SG-1 standard quadrature grid
 SCF converges when DIIS error is below 1.0E-08
 Warning!  Inaccurate integrated density:
   Number of electrons =    22
   Numerical integral  =    22.029994519452
   Relative error      =     0.1363387248 %
 ---------------------------------------
  Cycle       Energy         DIIS Error
 ---------------------------------------
    1    -324.3804902005      1.49E-05
 Warning!  Inaccurate integrated density:
   Number of electrons =    22
   Numerical integral  =    22.029989807602
   Relative error      =     0.1363173073 %
    2    -324.3800660844      2.07E-06
 Warning!  Inaccurate integrated density:
   Number of electrons =    22
   Numerical integral  =    22.029990307246
   Relative error      =     0.1363195784 %
    3    -324.3800660863      1.68E-06
 Warning!  Inaccurate integrated density:
   Number of electrons =    22
   Numerical integral  =    22.029990119774
   Relative error      =     0.1363187262 %
    4    -324.3800660904      7.90E-08
 Warning!  Inaccurate integrated density:
   Number of electrons =    22
   Numerical integral  =    22.029990089818
   Relative error      =     0.1363185901 %
    5    -324.3800660887      1.08E-08
 Warning!  Inaccurate integrated density:
   Number of electrons =    22
   Numerical integral  =    22.029990089678
   Relative error      =     0.1363185894 %
    6    -324.3800660891      3.73E-09 Convergence criterion met
 ---------------------------------------
 One-Electron    Energy =  -498.0254413954
 Total Coulomb   Energy =   181.3029096301
 Alpha Exchange  Energy =    -1.3619992462
 Beta  Exchange  Energy =    -1.3619992462
 DFT   Exchange  Energy =   -25.2039772671
 DFT Correlation Energy =    -0.7630008889
 Nuclear Repu.   Energy =    21.0334423244
 Nuclear Attr.   Energy =  -821.7029882013
 Kinetic         Energy =   323.6775468060
 SCF time:  CPU 25.15 s  wall 26.19 s
 Final Alpha MO Eigenvalues
            1           2           3           4           5           6
    1 -38.0273884 -38.0273771  -2.1798001  -2.1797559  -1.1590326  -1.1579632
            7           8           9          10          11          12
    1  -1.1579632  -1.1575987  -1.1575987  -1.1566129  -0.1839183  -0.0075638
           13          14          15          16
    1   0.0102255   0.0102255   0.0116040   0.0169361
 Analysis of SCF Wavefunction
 
 --------------------------------------------------------------
                    Orbital Energies (a.u.)
 --------------------------------------------------------------
 
 Alpha MOs
 -- Occupied --
-38.027 -38.027  -2.180  -2.180  -1.159  -1.158  -1.158  -1.158
 -1.158  -1.157  -0.184
 -- Virtual --
 -0.008   0.010   0.010   0.012   0.017   0.021   0.021   0.029
  0.032   0.032   0.039   0.045   0.059   0.059   0.064   0.107
  0.110   0.110   0.111   0.111   0.130   0.134   0.134   0.144
  0.144   0.144   0.154   0.154   0.160   0.197   0.197   0.204
  0.276   0.276   0.304   0.304   0.315   0.324   0.334   0.334
  0.357   0.357   0.381   0.381   0.399   0.399   0.406   0.483
  0.491   0.491   0.500   0.500   0.526   0.532   0.532   0.533
  0.534   0.552   0.552   0.647   0.696   0.696   0.823   1.141
  1.141   1.185   1.196   1.196   1.223   1.223   1.241   1.241
  1.289   1.289   1.422   1.422   1.477   1.796   1.803   1.811
  1.811   1.818   1.825   1.862   1.876   1.942   1.942   2.162
  2.464   4.458   4.458   4.480   4.480   4.552   4.833   8.673
  8.682   8.711   8.740   9.115   9.117   9.117   9.124   9.173
  9.173  13.550  13.552  13.552  13.556  13.556  13.573  13.655
 13.655  13.657  13.660  13.662  13.663  13.663  13.665  95.874
 96.212
 --------------------------------------------------------------
 
          Ground-State Mulliken Net Atomic Charges

     Atom                 Charge (a.u.)
  ----------------------------------------
      1 Na                    0.000000
      2 Na                    0.000000
  ----------------------------------------
  Sum of atomic charges =     0.000000

 -----------------------------------------------------------------
                    Cartesian Multipole Moments
 -----------------------------------------------------------------
    Charge (ESU x 10^10)
                 0.0000
    Dipole Moment (Debye)
         X       0.0000      Y       0.0000      Z       0.0000
       Tot       0.0000
    Quadrupole Moments (Debye-Ang)
        XX     -23.2991     XY       0.0000     YY     -23.2991
        XZ       0.0000     YZ       0.0000     ZZ      -7.5935
    Octapole Moments (Debye-Ang^2)
       XXX       0.0000    XXY       0.0000    XYY       0.0000
       YYY       0.0000    XXZ     -35.4127    XYZ       0.0000
       YYZ     -35.4127    XZZ       0.0000    YZZ       0.0000
       ZZZ     -34.6245
    Hexadecapole Moments (Debye-Ang^3)
      XXXX    -101.6128   XXXY       0.0000   XXYY     -33.8694
      XYYY       0.0000   YYYY    -101.6128   XXXZ       0.0000
      XXYZ       0.0000   XYYZ       0.0000   YYYZ      -0.0001
      XXZZ    -114.1470   XYZZ       0.0000   YYZZ    -114.1470
      XZZZ       0.0000   YZZZ      -0.0001   ZZZZ    -327.4676
 -----------------------------------------------------------------
 Calculating analytic gradient of the SCF energy
 Gradient of AOints
            1           2
    1   0.0000000  -0.0000000
    2   0.0000009  -0.0000009
    3   2.8946758  -2.8946758
 Warning!  Inaccurate integrated density:
   Number of electrons =    22
   Numerical integral  =    22.029990139174
   Relative error      =     0.1363188144 %
 Gradient of XC Energy
            1           2
    1  -0.0000000   0.0000000
    2  -0.0000000   0.0000000
    3   0.0549365  -0.0549365
 Gradient of SCF Energy
            1           2
    1  -0.0000000   0.0000000
    2  -0.0000000   0.0000000
    3   0.0002751  -0.0002751
 Max gradient component =       2.751E-04
 RMS gradient           =       1.589E-04
 Gradient time:  CPU 21.84 s  wall 22.10 s
 Writing REM_CC_EA            2
 ----------------------------------------------------
       Standard Nuclear Orientation (Angstroms)
    I     Atom         X            Y            Z
 ----------------------------------------------------
    1      Na      0.000000     0.000000    -0.002192
    2      Na      0.000000     0.000000     3.040028
 ----------------------------------------------------
 Nuclear Repulsion Energy =    21.0472700140 hartrees
 There are       11 alpha and       11 beta electrons

                       Distance Matrix (Angstroms)
             Na(  1)
   Na(  2)  3.042221
 
 Requested basis set is G3large
 There are 38 shells and 132 basis functions
 A cutoff of  1.0D-11 yielded    705 shell pairs
 There are   8702 function pairs ( 12509 Cartesian)
Evaluating contribution to one-electron hamiltonian from nuclear
 Smallest overlap matrix eigenvalue = 1.48E-04
 Multipole matrices computed through 2nd order
 Guess MOs from SCF MO coefficient file
Reading MOs from coefficient file
Reading MOs from coefficient file
 Long-range K will be added via erf
 Coulomb attenuation parameter = 0.23 bohr**(-1)
 A restricted Kohn-Sham SCF calculation will be
 performed using Pulay DIIS extrapolation
 Exchange:  wPBE + LR-HF      Correlation:  PBE
 Using SG-1 standard quadrature grid
 SCF converges when DIIS error is below 1.0E-08
 Warning!  Inaccurate integrated density:
   Number of electrons =    22
   Numerical integral  =    22.029982286002
   Relative error      =     0.1362831182 %
 ---------------------------------------
  Cycle       Energy         DIIS Error
 ---------------------------------------
    1    -324.3792174252      2.47E-05
 Warning!  Inaccurate integrated density:
   Number of electrons =    22
   Numerical integral  =    22.029991133698
   Relative error      =     0.1363233350 %
    2    -324.3800649557      4.04E-06
 Warning!  Inaccurate integrated density:
   Number of electrons =    22
   Numerical integral  =    22.029990141818
   Relative error      =     0.1363188264 %
    3    -324.3800649640      3.24E-06
 Warning!  Inaccurate integrated density:
   Number of electrons =    22
   Numerical integral  =    22.029990481494
   Relative error      =     0.1363203704 %
    4    -324.3800649686      1.67E-07
 Warning!  Inaccurate integrated density:
   Number of electrons =    22
   Numerical integral  =    22.029990521820
   Relative error      =     0.1363205537 %
    5    -324.3800649691      1.74E-08
 Warning!  Inaccurate integrated density:
   Number of electrons =    22
   Numerical integral  =    22.029990533188
   Relative error      =     0.1363206054 %
    6    -324.3800649687      5.80E-09 Convergence criterion met
 ---------------------------------------
 One-Electron    Energy =  -498.0532370794
 Total Coulomb   Energy =   181.3169387677
 Alpha Exchange  Energy =    -1.3620081995
 Beta  Exchange  Energy =    -1.3620081995
 DFT   Exchange  Energy =   -25.2040154962
 DFT Correlation Energy =    -0.7630047758
 Nuclear Repu.   Energy =    21.0472700140
 Nuclear Attr.   Energy =  -821.7310550930
 Kinetic         Energy =   323.6778180136
 SCF time:  CPU 25.96 s  wall 27.02 s
 Final Alpha MO Eigenvalues
            1           2           3           4           5           6
    1 -38.0273743 -38.0273630  -2.1797883  -2.1797461  -1.1590323  -1.1579522
            7           8           9          10          11          12
    1  -1.1579522  -1.1575857  -1.1575857  -1.1565988  -0.1839496  -0.0075412
           13          14          15          16
    1   0.0102235   0.0102235   0.0116066   0.0169423
 Analysis of SCF Wavefunction
 
 --------------------------------------------------------------
                    Orbital Energies (a.u.)
 --------------------------------------------------------------
 
 Alpha MOs
 -- Occupied --
-38.027 -38.027  -2.180  -2.180  -1.159  -1.158  -1.158  -1.158
 -1.158  -1.157  -0.184
 -- Virtual --
 -0.008   0.010   0.010   0.012   0.017   0.021   0.021   0.029
  0.032   0.032   0.039   0.045   0.059   0.059   0.064   0.107
  0.110   0.110   0.111   0.111   0.130   0.134   0.134   0.144
  0.144   0.144   0.154   0.154   0.160   0.197   0.197   0.204
  0.276   0.276   0.304   0.304   0.315   0.324   0.334   0.334
  0.357   0.357   0.381   0.381   0.399   0.399   0.406   0.483
  0.491   0.491   0.500   0.500   0.526   0.532   0.532   0.534
  0.534   0.552   0.552   0.647   0.696   0.696   0.824   1.141
  1.141   1.186   1.196   1.196   1.223   1.223   1.241   1.241
  1.290   1.290   1.422   1.422   1.478   1.796   1.803   1.811
  1.811   1.818   1.825   1.862   1.877   1.942   1.942   2.162
  2.464   4.458   4.458   4.480   4.480   4.551   4.835   8.673
  8.682   8.711   8.740   9.115   9.118   9.118   9.124   9.174
  9.174  13.550  13.552  13.552  13.556  13.556  13.573  13.655
 13.655  13.657  13.660  13.662  13.663  13.663  13.666  95.874
 96.213
 --------------------------------------------------------------
 
          Ground-State Mulliken Net Atomic Charges

     Atom                 Charge (a.u.)
  ----------------------------------------
      1 Na                    0.000000
      2 Na                    0.000000
  ----------------------------------------
  Sum of atomic charges =     0.000000

 -----------------------------------------------------------------
                    Cartesian Multipole Moments
 -----------------------------------------------------------------
    Charge (ESU x 10^10)
                 0.0000
    Dipole Moment (Debye)
         X       0.0000      Y       0.0000      Z       0.0000
       Tot       0.0000
    Quadrupole Moments (Debye-Ang)
        XX     -23.2968     XY       0.0000     YY     -23.2968
        XZ       0.0000     YZ       0.0000     ZZ      -7.6055
    Octapole Moments (Debye-Ang^2)
       XXX       0.0000    XXY       0.0000    XYY       0.0000
       YYY       0.0000    XXZ     -35.3859    XYZ       0.0000
       YYZ     -35.3859    XZZ       0.0000    YZZ       0.0000
       ZZZ     -34.6562
    Hexadecapole Moments (Debye-Ang^3)
      XXXX    -101.5805   XXXY       0.0000   XXYY     -33.8587
      XYYY       0.0000   YYYY    -101.5805   XXXZ       0.0000
      XXYZ       0.0000   XYYZ       0.0000   YYYZ       0.0000
      XXZZ    -114.0146   XYZZ       0.0000   YYZZ    -114.0146
      XZZZ       0.0000   YZZZ       0.0000   ZZZZ    -327.2917
 -----------------------------------------------------------------
 Calculating analytic gradient of the SCF energy
 Gradient of AOints
            1           2
    1   0.0000000  -0.0000000
    2   0.0000000  -0.0000000
    3   2.8959856  -2.8959856
 Warning!  Inaccurate integrated density:
   Number of electrons =    22
   Numerical integral  =    22.029990515235
   Relative error      =     0.1363205238 %
 Gradient of XC Energy
            1           2
    1  -0.0000000   0.0000000
    2  -0.0000000   0.0000000
    3   0.0550548  -0.0550548
 Gradient of SCF Energy
            1           2
    1   0.0000000  -0.0000000
    2  -0.0000000   0.0000000
    3   0.0003180  -0.0003180
 Max gradient component =       3.180E-04
 RMS gradient           =       1.836E-04
 Gradient time:  CPU 22.30 s  wall 22.49 s
Dipole drv :
gprntSymmMtrx error report: 
 Final Hessian.
            1           2           3           4           5           6
    1  -0.0001691   0.0000000   0.0000000   0.0001691  -0.0000000   0.0000000
    2   0.0000000  -0.0001691  -0.0000000   0.0000000   0.0001691   0.0000000
    3   0.0000000  -0.0000000   0.0113256   0.0000002  -0.0000001  -0.0113256
    4   0.0001691   0.0000000   0.0000002  -0.0001691   0.0000000   0.0000000
    5  -0.0000000   0.0001691  -0.0000001   0.0000000  -0.0001691   0.0000001
    6   0.0000000   0.0000000  -0.0113256   0.0000000   0.0000001   0.0113256
 Writing REM_CC_EA            2
 ----------------------------------------------------
       Standard Nuclear Orientation (Angstroms)
    I     Atom         X            Y            Z
 ----------------------------------------------------
    1      Na      0.000000     0.000000    -0.002192
    2      Na      0.000000     0.000000     3.041028
 ----------------------------------------------------
 Nuclear Repulsion Energy =    21.0403538973 hartrees
 There are       11 alpha and       11 beta electrons
 old dipole drv.
            1           2           3           4           5           6
    1   0.0000161   0.0000030   0.0000031  -0.0000063  -0.0000032  -0.0000022
    2   0.0000033   0.0000070   0.0000015  -0.0000012  -0.0000062  -0.0000014
    3   0.0000043  -0.0000031  -0.0000105  -0.0000041   0.0000012   0.0000110
 New transposed dipole drv.
            1           2           3
    1   0.0000161   0.0000033   0.0000043
    2   0.0000030   0.0000070  -0.0000031
    3   0.0000031   0.0000015  -0.0000105
    4  -0.0000063  -0.0000012  -0.0000041
    5  -0.0000032  -0.0000062   0.0000012
    6  -0.0000022  -0.0000014   0.0000110
FINAL TENSOR RESULT:
Order 2, Length 6
Order 1, Length 6
  -0.0001691   0.0000000   0.0000000   0.0001691  -0.0000000   0.0000000
Order 1, Length 6
   0.0000000  -0.0001691  -0.0000000   0.0000000   0.0001691   0.0000000
Order 1, Length 6
   0.0000000  -0.0000000   0.0113256   0.0000002  -0.0000001  -0.0113256
Order 1, Length 6
   0.0001691   0.0000000   0.0000002  -0.0001691   0.0000000   0.0000000
Order 1, Length 6
  -0.0000000   0.0001691  -0.0000001   0.0000000  -0.0001691   0.0000001
Order 1, Length 6
   0.0000000   0.0000000  -0.0113256   0.0000000   0.0000001   0.0113256


 # Finishing finite difference calculation for IDERIV #
 ######################################################
 ######################################################
 Requested basis set is G3large
 There are 38 shells and 132 basis functions
 **********************************************************************
 **                                                                  **
 **                       VIBRATIONAL ANALYSIS                       **
 **                       --------------------                       **
 **                                                                  **
 **        VIBRATIONAL FREQUENCIES (CM**-1) AND NORMAL MODES         **
 **     FORCE CONSTANTS (mDYN/ANGSTROM) AND REDUCED MASSES (AMU)     **
 **                  INFRARED INTENSITIES (KM/MOL)                   **
 **                                                                  **
 **********************************************************************
 

 Mode:                 1
 Frequency:       161.36
 Force Cnst:      0.3527
 Red. Mass:      22.9898
 IR Active:          YES
 IR Intens:        0.000
 Raman Active:       YES
               X      Y      Z
 Na         0.000  0.000  0.707
 Na         0.000  0.000 -0.707
 TransDip   0.000  0.000  0.000

 STANDARD THERMODYNAMIC QUANTITIES AT   298.18 K  AND     1.00 ATM

   This Molecule has  0 Imaginary Frequencies
   Zero point vibrational energy:        0.231 kcal/mol

   Atom    1 Element Na Has Mass   22.98980
   Atom    2 Element Na Has Mass   22.98980
   Molecular Mass:    45.979600 amu
   Principal axes and moments of inertia in atomic units:
                             1           2           3
    Eigenvalues --        0.00000   380.16301   380.16301
          X               0.00000     0.00000     1.00000
          Y               0.00000     1.00000     0.00000
          Z               1.00000     0.00000     0.00000
   Rotational Symmetry Number is   1
   The Molecule is a Symmetric Top
   Translational Enthalpy:        0.889 kcal/mol
   Rotational Enthalpy:           0.889 kcal/mol
   Vibrational Enthalpy:          0.622 kcal/mol
   gas constant (RT):             0.593 kcal/mol
   Translational Entropy:        37.402  cal/mol.K
   Rotational Entropy:          -42.776  cal/mol.K
   Vibrational Entropy:           2.534  cal/mol.K

   Total Enthalpy:                2.992 kcal/mol
   Total Entropy:                -2.840  cal/mol.K
 Total job time:  597.81s(wall), 582.97s(cpu) 
 Wed May  1 12:36:19 2013

        *************************************************************
        *                                                           *
        *  Thank you very much for using Q-Chem.  Have a nice day.  *
        *                                                           *
        *************************************************************


0 sent ACK to 0 
now end server 0 ... 
