Process 0 of 1 is on cl066.stfx.acenet.ca - thread support 1
initial socket setup ...start
initial socket setup ...done 
now start server 0 ... 

cmd = /usr/bin/ssh clhead /usr/local/qchem/bin/get_hostid 1636427301 > /scratch/tmp/6063766.1.short.q/qchem22505/lic.dat
                  Welcome to Q-Chem
     A Quantum Leap Into The Future Of Chemistry

 Y. Shao, L. Fusti-Molnar, Y. Jung, J. Kussmann, C. Ochsenfeld,
 S. T. Brown, A. T. B. Gilbert, L. V. Slipchenko,S. V. Levchenko,
 D. P. O'Neill, R. A. DiStasio Jr., R. C. Lochan, T. Wang,
 G. J. O. Beran, N. A. Besley, J. M. Herbert, C. Y. Lin,
 T. Van Voorhis, S. H. Chien, A. Sodt, R. P. Steele, 
 V. A. Rassolov, P. E. Maslen, P. P. Korambath, R. D. Adamson,
 B. Austin, J. Baker, E. F. C. Byrd, H. Dachsel, R. J. Doerksen,
 A. Dreuw, B. D. Dunietz, A. D. Dutoi, T. R. Furlani,
 S. R. Gwaltney, A. Heyden, S. Hirata, C.-P. Hsu, G. Kedziora,
 R. Z. Khaliullin, P. Klunzinger, A. M. Lee, M. S. Lee, W. Liang,
 I. Lotan, N. Nair, B. Peters, E. I. Proynov, P. A. Pieniazek, 
 Y. M. Rhee, J. Ritchie, E. Rosta, C. D. Sherrill, 
 A. C. Simmonett, J. E. Subotnik, H. L. Woodcock III,
 W. Zhang, A. T. Bell, A. K. Chakraborty, D. M. Chipman,
 F. J. Keil, A. Warshel, W. J. Hehre, H. F. Schaefer III,
 J. Kong, A. I. Krylov, P. M. W. Gill, M. Head-Gordon,
 Q-Chem, Version 3.1, Q-Chem, Inc., Pittsburgh, PA (2007).

 Additional authors for Version 3.1: 
 Z. Gan, Y. Zhao, N. E. Schultz, D. Truhlar, E. Epifanovsky and M. Oana.

 Additional authors for Version 3.2: 
 R. Baer, B. R. Brooks, D. Casanova, J.-D. Chai, C.-L. Cheng, 
 C. Cramer, D. Crittenden, A. Ghysels, G. Hawkins, E. G. Hohenstein, 
 C. Kelley, W. Kurlancheek, D. Liotard, E. Livshits, P. Manohar, 
 A. Marenich, D. Neuhauser, R. Olson, M. A. Rohrdanz, K. S. Thanthiriwatte, 
 A. J. W. Thom, V. Vanovschi, C. F. Williams, Q. Wu and Z.-Q. You. 


 Intel X86 Linux Version

 Q-chem begins on Sun Jul  7 08:41:34 2013  

 Parallel job on  1  processors
Processing $rem in /usr/local/qchem/config/preferences.

theFileMan(): MAXOPENFILES=974 MAX_SUB_FILE_NUM=16
Maximum size of a physical file is 2.0 GB, maximum size of a tmp-file is 32.0 GB


--------------------------------------------------------------
User input:
--------------------------------------------------------------

$molecule
-1,1
C          0.00034        0.00000       -0.00234
C          0.00795        0.00000        1.30335
H          0.93102        0.00000       -0.58577
H         -0.92815        0.00000       -0.57958
H          0.72652        0.00000        2.11724
$end

$comment
negative
$end

$xc_functional
C PBE   1.00
X wPBE  1.00
$end

$rem
SYMMETRY_DECOMPOSITION	0
exchange 		general
LRC_DFT                 true
BASIS                   g3large
omega			700
mem_static              760
max_scf_cycles          200
scf_final_print         1
sym_ignore              true
$end

--------------------------------------------------------------
 Writing REM_CC_EA            5
 ----------------------------------------------------
       Standard Nuclear Orientation (Angstroms)
    I     Atom         X            Y            Z
 ----------------------------------------------------
    1      C       0.000340     0.000000    -0.002340
    2      C       0.007950     0.000000     1.303350
    3      H       0.931020     0.000000    -0.585770
    4      H      -0.928150     0.000000    -0.579580
    5      H       0.726520     0.000000     2.117240
 ----------------------------------------------------
 Nuclear Repulsion Energy =    28.3933182935 hartrees
 There are        8 alpha and        8 beta electrons
 Requested basis set is G3large
 There are 38 shells and 114 basis functions

Total QAlloc Memory Limit   2000 MB
Mega-Array Size       743 MB
MEM_STATIC part       760 MB

                       Distance Matrix (Angstroms)
             C (  1)   C (  2)   H (  3)   H (  4)
   C (  2)  1.305712
   H (  3)  1.098433  2.102578
   H (  4)  1.093298  2.102786  1.859180
   H (  5)  2.240526  1.085707  2.710735  3.163980
 
 A cutoff of  1.0D-08 yielded    732 shell pairs
 There are   6640 function pairs (  8147 Cartesian)
Evaluating contribution to one-electron hamiltonian from nuclear
 Smallest overlap matrix eigenvalue = 1.16E-04
 Multipole matrices computed through 2nd order

  Scale SEOQF with 1.000000e-01/1.000000e-01/1.000000e-01

 Standard Electronic Orientation quadrupole field applied
 Nucleus-field energy     =    -0.0000000016 hartrees
 Guess from superposition of atomic densities
 Warning:  Energy on first SCF cycle will be non-variational
 Long-range K will be added via erf
 Coulomb attenuation parameter = 0.7 bohr**(-1)
 A restricted Kohn-Sham SCF calculation will be
 performed using Pulay DIIS extrapolation
 Exchange:  wPBE + LR-HF      Correlation:  PBE
 Using SG-1 standard quadrature grid
 SCF converges when DIIS error is below 1.0E-05
 Requested basis set is G3large
 There are 38 shells and 114 basis functions
 A cutoff of  1.0D-08 yielded    732 shell pairs
 There are   6640 function pairs (  8147 Cartesian)
 Warning!  Inaccurate integrated density:
   Number of electrons =    16
   Numerical integral  =    14.999948730966
   Relative error      =    -6.2503204315 %
 ---------------------------------------
  Cycle       Energy         DIIS Error
 ---------------------------------------
    1     -78.1966485219      3.76E-02
    2     -77.7427594855      6.73E-03
    3     -77.8182265872      4.29E-03
    4     -77.8509711198      6.59E-04
    5     -77.8547393700      3.76E-04
    6     -77.8559501377      2.24E-04
    7     -77.8567363861      9.72E-05
    8     -77.8569265882      2.31E-05
    9     -77.8569350640      7.15E-06 Convergence criterion met
 ---------------------------------------
 One-Electron    Energy =  -163.7920504879
 Total Coulomb   Energy =    69.5843005995
 Alpha Exchange  Energy =    -2.2885680374
 Beta  Exchange  Energy =    -2.2885680374
 DFT   Exchange  Energy =    -6.9754247571
 DFT Correlation Energy =    -0.4899426356
 Nuclear Repu.   Energy =    28.3933182919
 Nuclear Attr.   Energy =  -241.3621858587
 Kinetic         Energy =    77.5701353709
 SCF time:  CPU 23.84 s  wall 23.97 s
 Final Alpha MO Eigenvalues
            1           2           3           4           5           6
    1 -10.0166786  -9.9781960  -0.7292457  -0.5002343  -0.3692181  -0.3338916
            7           8           9          10          11          12
    1  -0.1586722  -0.0447144   0.1784415   0.1839053   0.1890496   0.2726268
           13
    1   0.2831400
 Analysis of SCF Wavefunction
 
 --------------------------------------------------------------
                    Orbital Energies (a.u.)
 --------------------------------------------------------------
 
 Alpha MOs
 -- Occupied --
-10.017  -9.978  -0.729  -0.500  -0.369  -0.334  -0.159  -0.045
 -- Virtual --
  0.178   0.184   0.189   0.273   0.283   0.288   0.303   0.343
  0.351   0.367   0.379   0.422   0.436   0.459   0.551   0.672
  0.776   0.793   0.843   0.874   0.884   0.901   0.962   0.969
  0.974   0.992   1.030   1.035   1.127   1.129   1.162   1.273
  1.317   1.344   1.430   1.486   1.552   1.588   1.711   1.733
  1.783   1.811   1.874   1.896   1.927   2.107   2.852   2.901
  3.071   3.097   3.120   3.134   3.196   3.220   3.256   3.314
  3.325   3.402   3.501   3.521   3.568   3.586   3.631   3.669
  3.672   3.751   3.760   3.821   3.860   3.947   4.054   4.153
  4.154   4.213   4.363   4.557   4.575   4.624   4.761   4.868
  4.914   5.063   5.254   5.577   5.709   5.850   6.000   6.600
 24.169  25.146  27.640  27.837  27.996  28.533  28.686  28.815
 41.281  41.346  41.380  41.541  41.543  41.584  41.659  41.688
 41.746  41.772
 --------------------------------------------------------------
 
          Ground-State Mulliken Net Atomic Charges

     Atom                 Charge (a.u.)
  ----------------------------------------
      1 C                    -0.507218
      2 C                    -0.515888
      3 H                    -0.071678
      4 H                     0.055697
      5 H                     0.039087
  ----------------------------------------
  Sum of atomic charges =    -1.000000

 -----------------------------------------------------------------
                    Cartesian Multipole Moments
 -----------------------------------------------------------------
    Charge (ESU x 10^10)
                -4.8032
    Dipole Moment (Debye)
         X       1.6829      Y       0.0006      Z      -5.1279
       Tot       5.3970
    Quadrupole Moments (Debye-Ang)
        XX     -19.8609     XY      -0.0020     YY     -19.0906
        XZ       4.6368     YZ       0.0017     ZZ     -26.3119
    Octapole Moments (Debye-Ang^2)
       XXX       1.6818    XXY       0.0005    XYY       0.9335
       YYY       0.0022    XXZ     -17.0822    XYZ      -0.0027
       YYZ     -12.8401    XZZ       9.1167    YZZ       0.0040
       ZZZ     -50.0309
    Hexadecapole Moments (Debye-Ang^3)
      XXXX     -52.5610   XXXY      -0.0074   XXYY     -14.5893
      XYYY      -0.0074   YYYY     -33.4931   XXXZ       7.1894
      XXYZ       0.0019   XYYZ       2.7569   YYYZ       0.0067
      XXZZ     -44.4647   XYZZ      -0.0074   YYZZ     -32.5099
      XZZZ      24.2960   YZZZ       0.0127   ZZZZ    -178.8682
 -----------------------------------------------------------------
 Total job time:  24.10s(wall), 23.95s(cpu) 
 Sun Jul  7 08:41:58 2013

        *************************************************************
        *                                                           *
        *  Thank you very much for using Q-Chem.  Have a nice day.  *
        *                                                           *
        *************************************************************


0 sent ACK to 0 
now end server 0 ... 
 
**********************************************************************
Job 2 of 3 
**********************************************************************
 
Process 0 of 1 is on cl066.stfx.acenet.ca - thread support 1
initial socket setup ...start
initial socket setup ...done 
now start server 0 ... 

cmd = /usr/bin/ssh clhead /usr/local/qchem/bin/get_hostid 1720329922 > /scratch/tmp/6063766.1.short.q/qchem22505/lic.dat
                  Welcome to Q-Chem
     A Quantum Leap Into The Future Of Chemistry

 Y. Shao, L. Fusti-Molnar, Y. Jung, J. Kussmann, C. Ochsenfeld,
 S. T. Brown, A. T. B. Gilbert, L. V. Slipchenko,S. V. Levchenko,
 D. P. O'Neill, R. A. DiStasio Jr., R. C. Lochan, T. Wang,
 G. J. O. Beran, N. A. Besley, J. M. Herbert, C. Y. Lin,
 T. Van Voorhis, S. H. Chien, A. Sodt, R. P. Steele, 
 V. A. Rassolov, P. E. Maslen, P. P. Korambath, R. D. Adamson,
 B. Austin, J. Baker, E. F. C. Byrd, H. Dachsel, R. J. Doerksen,
 A. Dreuw, B. D. Dunietz, A. D. Dutoi, T. R. Furlani,
 S. R. Gwaltney, A. Heyden, S. Hirata, C.-P. Hsu, G. Kedziora,
 R. Z. Khaliullin, P. Klunzinger, A. M. Lee, M. S. Lee, W. Liang,
 I. Lotan, N. Nair, B. Peters, E. I. Proynov, P. A. Pieniazek, 
 Y. M. Rhee, J. Ritchie, E. Rosta, C. D. Sherrill, 
 A. C. Simmonett, J. E. Subotnik, H. L. Woodcock III,
 W. Zhang, A. T. Bell, A. K. Chakraborty, D. M. Chipman,
 F. J. Keil, A. Warshel, W. J. Hehre, H. F. Schaefer III,
 J. Kong, A. I. Krylov, P. M. W. Gill, M. Head-Gordon,
 Q-Chem, Version 3.1, Q-Chem, Inc., Pittsburgh, PA (2007).

 Additional authors for Version 3.1: 
 Z. Gan, Y. Zhao, N. E. Schultz, D. Truhlar, E. Epifanovsky and M. Oana.

 Additional authors for Version 3.2: 
 R. Baer, B. R. Brooks, D. Casanova, J.-D. Chai, C.-L. Cheng, 
 C. Cramer, D. Crittenden, A. Ghysels, G. Hawkins, E. G. Hohenstein, 
 C. Kelley, W. Kurlancheek, D. Liotard, E. Livshits, P. Manohar, 
 A. Marenich, D. Neuhauser, R. Olson, M. A. Rohrdanz, K. S. Thanthiriwatte, 
 A. J. W. Thom, V. Vanovschi, C. F. Williams, Q. Wu and Z.-Q. You. 


 Intel X86 Linux Version

 Q-chem begins on Sun Jul  7 08:42:01 2013  

 Parallel job on  1  processors
Processing $rem in /usr/local/qchem/config/preferences.

theFileMan(): MAXOPENFILES=974 MAX_SUB_FILE_NUM=16
Maximum size of a physical file is 2.0 GB, maximum size of a tmp-file is 32.0 GB


--------------------------------------------------------------
User input:
--------------------------------------------------------------

$molecule
0,2
C          0.00034        0.00000       -0.00234
C          0.00795        0.00000        1.30335
H          0.93102        0.00000       -0.58577
H         -0.92815        0.00000       -0.57958
H          0.72652        0.00000        2.11724
$end

$comment
neutral
$end

$xc_functional
C PBE   1.00
X wPBE  1.00
$end


$rem
SYMMETRY_DECOMPOSITION	0
LRC_DFT                 true
exchange 		general
BASIS                   g3large
omega			700
mem_static              760
max_scf_cycles          200
scf_final_print         1
sym_ignore              true
$end

--------------------------------------------------------------
 Writing REM_CC_EA            5
 ----------------------------------------------------
       Standard Nuclear Orientation (Angstroms)
    I     Atom         X            Y            Z
 ----------------------------------------------------
    1      C       0.000340     0.000000    -0.002340
    2      C       0.007950     0.000000     1.303350
    3      H       0.931020     0.000000    -0.585770
    4      H      -0.928150     0.000000    -0.579580
    5      H       0.726520     0.000000     2.117240
 ----------------------------------------------------
 Nuclear Repulsion Energy =    28.3933182935 hartrees
 There are        8 alpha and        7 beta electrons
 Requested basis set is G3large
 There are 38 shells and 114 basis functions

Total QAlloc Memory Limit   2000 MB
Mega-Array Size       743 MB
MEM_STATIC part       760 MB

                       Distance Matrix (Angstroms)
             C (  1)   C (  2)   H (  3)   H (  4)
   C (  2)  1.305712
   H (  3)  1.098433  2.102578
   H (  4)  1.093298  2.102786  1.859180
   H (  5)  2.240526  1.085707  2.710735  3.163980
 
 A cutoff of  1.0D-08 yielded    732 shell pairs
 There are   6640 function pairs (  8147 Cartesian)
Evaluating contribution to one-electron hamiltonian from nuclear
 Smallest overlap matrix eigenvalue = 1.16E-04
 Multipole matrices computed through 2nd order

  Scale SEOQF with 1.000000e-01/1.000000e-01/1.000000e-01

 Standard Electronic Orientation quadrupole field applied
 Nucleus-field energy     =    -0.0000000016 hartrees
 Guess from superposition of atomic densities
 Warning:  Energy on first SCF cycle will be non-variational
 Long-range K will be added via erf
 Coulomb attenuation parameter = 0.7 bohr**(-1)
 An unrestricted Kohn-Sham SCF calculation will be
 performed using Pulay DIIS extrapolation
 Exchange:  wPBE + LR-HF      Correlation:  PBE
 Using SG-1 standard quadrature grid
 SCF converges when DIIS error is below 1.0E-05
 Requested basis set is G3large
 There are 38 shells and 114 basis functions
 A cutoff of  1.0D-08 yielded    732 shell pairs
 There are   6640 function pairs (  8147 Cartesian)
 ---------------------------------------
  Cycle       Energy         DIIS Error
 ---------------------------------------
    1     -78.1966485219      3.76E-02
    2     -77.8098712189      3.08E-03
    3     -77.8463030055      1.12E-03
    4     -77.8555570488      5.75E-04
    5     -77.8601164110      2.75E-04
    6     -77.8621095899      1.53E-04
    7     -77.8629148210      5.56E-05
    8     -77.8632544058      2.51E-05
    9     -77.8634653804      1.42E-05
   10     -77.8636252813      7.95E-06 Convergence criterion met
 ---------------------------------------
 One-Electron    Energy =  -159.7274517579
 Total Coulomb   Energy =    65.3016549610
 Alpha Exchange  Energy =    -2.3475008147
 Beta  Exchange  Energy =    -2.0692216666
 DFT   Exchange  Energy =    -6.9582044445
 DFT Correlation Energy =    -0.4562198505
 Nuclear Repu.   Energy =    28.3933182919
 Nuclear Attr.   Energy =  -237.1665716099
 Kinetic         Energy =    77.4391198520
 <S^2> = 0.7787
 SCF time:  CPU 30.48 s  wall 30.87 s
 Final Alpha MO Eigenvalues
            1           2           3           4           5           6
    1 -10.2959617 -10.2726403  -1.0132325  -0.7802950  -0.6423758  -0.6066990
            7           8           9          10          11          12
    1  -0.4320915  -0.4009072   0.0457759   0.0580465   0.0653208   0.0853517
           13
    1   0.1230522
 Final Beta MO Eigenvalues
            1           2           3           4           5           6
    1 -10.2799552 -10.2753556  -0.9877214  -0.7457146  -0.6204694  -0.5819255
            7           8           9          10          11          12
    1  -0.4221736   0.0406666   0.0508117   0.0587882   0.0669930   0.0940665
 Analysis of SCF Wavefunction
 
 --------------------------------------------------------------
                    Orbital Energies (a.u.)
 --------------------------------------------------------------
 
 Alpha MOs
 -- Occupied --
-10.296 -10.273  -1.013  -0.780  -0.642  -0.607  -0.432  -0.401
 -- Virtual --
  0.046   0.058   0.065   0.085   0.123   0.131   0.140   0.182
  0.185   0.195   0.206   0.215   0.246   0.259   0.362   0.452
  0.544   0.559   0.621   0.631   0.646   0.663   0.714   0.730
  0.739   0.757   0.782   0.790   0.862   0.878   0.904   1.046
  1.069   1.114   1.190   1.235   1.302   1.339   1.462   1.482
  1.525   1.574   1.623   1.647   1.685   1.836   2.589   2.646
  2.791   2.833   2.840   2.860   2.909   2.935   2.954   3.027
  3.048   3.109   3.236   3.238   3.305   3.309   3.346   3.356
  3.395   3.470   3.478   3.518   3.571   3.663   3.775   3.866
  3.879   3.935   4.094   4.297   4.313   4.367   4.483   4.600
  4.638   4.779   4.972   5.299   5.428   5.573   5.746   6.314
 23.878  24.864  27.354  27.554  27.665  28.277  28.428  28.503
 40.996  41.024  41.124  41.245  41.262  41.301  41.362  41.403
 41.462  41.487
 
 Beta MOs
 -- Occupied --
-10.280 -10.275  -0.988  -0.746  -0.620  -0.582  -0.422
 -- Virtual --
  0.041   0.051   0.059   0.067   0.094   0.123   0.139   0.155
  0.184   0.191   0.203   0.207   0.219   0.250   0.271   0.374
  0.463   0.561   0.578   0.625   0.639   0.651   0.685   0.736
  0.743   0.759   0.770   0.790   0.808   0.891   0.893   0.930
  1.052   1.079   1.117   1.194   1.254   1.317   1.346   1.472
  1.490   1.546   1.579   1.631   1.657   1.691   1.854   2.598
  2.655   2.816   2.841   2.853   2.869   2.934   2.949   2.989
  3.048   3.058   3.142   3.242   3.252   3.309   3.326   3.369
  3.402   3.410   3.494   3.498   3.555   3.596   3.688   3.791
  3.883   3.889   3.951   4.109   4.309   4.322   4.373   4.497
  4.608   4.652   4.795   4.982   5.315   5.440   5.588   5.752
  6.329  23.887  24.870  27.360  27.557  27.700  28.275  28.426
 28.514  41.002  41.050  41.120  41.263  41.268  41.302  41.377
 41.405  41.469  41.492
 --------------------------------------------------------------
 
          Ground-State Mulliken Net Atomic Charges

     Atom                 Charge (a.u.)    Spin (a.u.)
  --------------------------------------------------------
      1 C                    -0.232367      -0.244219
      2 C                    -0.057547       1.105470
      3 H                     0.080478       0.079847
      4 H                     0.096903       0.044075
      5 H                     0.112533       0.014827
  --------------------------------------------------------
  Sum of atomic charges =     0.000000
  Sum of spin   charges =     1.000000

 -----------------------------------------------------------------
                    Cartesian Multipole Moments
 -----------------------------------------------------------------
    Charge (ESU x 10^10)
                 0.0000
    Dipole Moment (Debye)
         X       0.6283      Y       0.0000      Z      -0.2584
       Tot       0.6794
    Quadrupole Moments (Debye-Ang)
        XX     -12.0572     XY       0.0005     YY     -14.7792
        XZ       1.5892     YZ      -0.0004     ZZ     -11.1853
    Octapole Moments (Debye-Ang^2)
       XXX      -0.9384    XXY       0.0001    XYY      -0.4775
       YYY       0.0003    XXZ      -8.4121    XYZ       0.0001
       YYZ      -8.8549    XZZ       3.1701    YZZ      -0.0005
       ZZZ     -19.1565
    Hexadecapole Moments (Debye-Ang^3)
      XXXX     -22.2069   XXXY       0.0006   XXYY      -7.2035
      XYYY       0.0005   YYYY     -17.8964   XXXZ      -1.5150
      XXYZ       0.0000   XYYZ      -0.9033   YYYZ      -0.0002
      XXZZ     -17.2937   XYZZ       0.0012   YYZZ     -19.3677
      XZZZ       5.7362   YZZZ      -0.0016   ZZZZ     -80.6323
 -----------------------------------------------------------------
 Total job time:  30.98s(wall), 30.59s(cpu) 
 Sun Jul  7 08:42:32 2013

        *************************************************************
        *                                                           *
        *  Thank you very much for using Q-Chem.  Have a nice day.  *
        *                                                           *
        *************************************************************


0 sent ACK to 0 
now end server 0 ... 
 
**********************************************************************
Job 3 of 3 
**********************************************************************
 
Process 0 of 1 is on cl066.stfx.acenet.ca - thread support 1
initial socket setup ...start
initial socket setup ...done 
now start server 0 ... 

cmd = /usr/bin/ssh clhead /usr/local/qchem/bin/get_hostid 1342602247 > /scratch/tmp/6063766.1.short.q/qchem22505/lic.dat
                  Welcome to Q-Chem
     A Quantum Leap Into The Future Of Chemistry

 Y. Shao, L. Fusti-Molnar, Y. Jung, J. Kussmann, C. Ochsenfeld,
 S. T. Brown, A. T. B. Gilbert, L. V. Slipchenko,S. V. Levchenko,
 D. P. O'Neill, R. A. DiStasio Jr., R. C. Lochan, T. Wang,
 G. J. O. Beran, N. A. Besley, J. M. Herbert, C. Y. Lin,
 T. Van Voorhis, S. H. Chien, A. Sodt, R. P. Steele, 
 V. A. Rassolov, P. E. Maslen, P. P. Korambath, R. D. Adamson,
 B. Austin, J. Baker, E. F. C. Byrd, H. Dachsel, R. J. Doerksen,
 A. Dreuw, B. D. Dunietz, A. D. Dutoi, T. R. Furlani,
 S. R. Gwaltney, A. Heyden, S. Hirata, C.-P. Hsu, G. Kedziora,
 R. Z. Khaliullin, P. Klunzinger, A. M. Lee, M. S. Lee, W. Liang,
 I. Lotan, N. Nair, B. Peters, E. I. Proynov, P. A. Pieniazek, 
 Y. M. Rhee, J. Ritchie, E. Rosta, C. D. Sherrill, 
 A. C. Simmonett, J. E. Subotnik, H. L. Woodcock III,
 W. Zhang, A. T. Bell, A. K. Chakraborty, D. M. Chipman,
 F. J. Keil, A. Warshel, W. J. Hehre, H. F. Schaefer III,
 J. Kong, A. I. Krylov, P. M. W. Gill, M. Head-Gordon,
 Q-Chem, Version 3.1, Q-Chem, Inc., Pittsburgh, PA (2007).

 Additional authors for Version 3.1: 
 Z. Gan, Y. Zhao, N. E. Schultz, D. Truhlar, E. Epifanovsky and M. Oana.

 Additional authors for Version 3.2: 
 R. Baer, B. R. Brooks, D. Casanova, J.-D. Chai, C.-L. Cheng, 
 C. Cramer, D. Crittenden, A. Ghysels, G. Hawkins, E. G. Hohenstein, 
 C. Kelley, W. Kurlancheek, D. Liotard, E. Livshits, P. Manohar, 
 A. Marenich, D. Neuhauser, R. Olson, M. A. Rohrdanz, K. S. Thanthiriwatte, 
 A. J. W. Thom, V. Vanovschi, C. F. Williams, Q. Wu and Z.-Q. You. 


 Intel X86 Linux Version

 Q-chem begins on Sun Jul  7 08:42:34 2013  

 Parallel job on  1  processors
Processing $rem in /usr/local/qchem/config/preferences.

theFileMan(): MAXOPENFILES=974 MAX_SUB_FILE_NUM=16
Maximum size of a physical file is 2.0 GB, maximum size of a tmp-file is 32.0 GB


--------------------------------------------------------------
User input:
--------------------------------------------------------------

$molecule
1,1
C          0.00034        0.00000       -0.00234
C          0.00795        0.00000        1.30335
H          0.93102        0.00000       -0.58577
H         -0.92815        0.00000       -0.57958
H          0.72652        0.00000        2.11724
$end

$comment
positive
$end

$xc_functional
C PBE   1.00
X wPBE  1.00
$end

$rem
SYMMETRY_DECOMPOSITION	0
LRC_DFT                 true
exchange 		general
BASIS                   g3large
omega			700
mem_static              760
max_scf_cycles          200
scf_final_print         1
sym_ignore              true
$end

--------------------------------------------------------------
 Writing REM_CC_EA            5
 ----------------------------------------------------
       Standard Nuclear Orientation (Angstroms)
    I     Atom         X            Y            Z
 ----------------------------------------------------
    1      C       0.000340     0.000000    -0.002340
    2      C       0.007950     0.000000     1.303350
    3      H       0.931020     0.000000    -0.585770
    4      H      -0.928150     0.000000    -0.579580
    5      H       0.726520     0.000000     2.117240
 ----------------------------------------------------
 Nuclear Repulsion Energy =    28.3933182935 hartrees
 There are        7 alpha and        7 beta electrons
 Requested basis set is G3large
 There are 38 shells and 114 basis functions

Total QAlloc Memory Limit   2000 MB
Mega-Array Size       743 MB
MEM_STATIC part       760 MB

                       Distance Matrix (Angstroms)
             C (  1)   C (  2)   H (  3)   H (  4)
   C (  2)  1.305712
   H (  3)  1.098433  2.102578
   H (  4)  1.093298  2.102786  1.859180
   H (  5)  2.240526  1.085707  2.710735  3.163980
 
 A cutoff of  1.0D-08 yielded    732 shell pairs
 There are   6640 function pairs (  8147 Cartesian)
Evaluating contribution to one-electron hamiltonian from nuclear
 Smallest overlap matrix eigenvalue = 1.16E-04
 Multipole matrices computed through 2nd order

  Scale SEOQF with 1.000000e-01/1.000000e-01/1.000000e-01

 Standard Electronic Orientation quadrupole field applied
 Nucleus-field energy     =    -0.0000000016 hartrees
 Guess from superposition of atomic densities
 Warning:  Energy on first SCF cycle will be non-variational
 Long-range K will be added via erf
 Coulomb attenuation parameter = 0.7 bohr**(-1)
 A restricted Kohn-Sham SCF calculation will be
 performed using Pulay DIIS extrapolation
 Exchange:  wPBE + LR-HF      Correlation:  PBE
 Using SG-1 standard quadrature grid
 SCF converges when DIIS error is below 1.0E-05
 Requested basis set is G3large
 There are 38 shells and 114 basis functions
 A cutoff of  1.0D-08 yielded    732 shell pairs
 There are   6640 function pairs (  8147 Cartesian)
 Warning!  Inaccurate integrated density:
   Number of electrons =    14
   Numerical integral  =    14.999948730966
   Relative error      =     7.1424909355 %
 ---------------------------------------
  Cycle       Energy         DIIS Error
 ---------------------------------------
    1     -78.1966485219      3.76E-02
    2     -77.4268214444      4.59E-03
    3     -77.4775410441      2.39E-03
    4     -77.4882614515      8.53E-04
    5     -77.4916843699      4.00E-04
    6     -77.4932234700      2.82E-04
    7     -77.4950626143      1.77E-04
    8     -77.4960874818      7.11E-05
    9     -77.4962130883      2.20E-05
   10     -77.4962182275      6.90E-06 Convergence criterion met
 ---------------------------------------
 One-Electron    Energy =  -154.8474432906
 Total Coulomb   Energy =    60.4251720740
 Alpha Exchange  Energy =    -2.0873687655
 Beta  Exchange  Energy =    -2.0873687655
 DFT   Exchange  Energy =    -6.8651570371
 DFT Correlation Energy =    -0.4273707348
 Nuclear Repu.   Energy =    28.3933182919
 Nuclear Attr.   Energy =  -231.8601731579
 Kinetic         Energy =    77.0127298673
 SCF time:  CPU 25.68 s  wall 26.12 s
 Final Alpha MO Eigenvalues
            1           2           3           4           5           6
    1 -10.6889777 -10.5948222  -1.3270021  -1.0771140  -0.9456245  -0.8928450
            7           8           9          10          11          12
    1  -0.7490218  -0.3249847  -0.1803027  -0.1112073  -0.0903999  -0.0803871
 Analysis of SCF Wavefunction
 
 --------------------------------------------------------------
                    Orbital Energies (a.u.)
 --------------------------------------------------------------
 
 Alpha MOs
 -- Occupied --
-10.689 -10.595  -1.327  -1.077  -0.946  -0.893  -0.749
 -- Virtual --
 -0.325  -0.180  -0.111  -0.090  -0.080  -0.052  -0.034  -0.021
  0.000   0.007   0.021   0.041   0.043   0.047   0.054   0.163
  0.213   0.307   0.323   0.355   0.376   0.388   0.419   0.467
  0.472   0.491   0.511   0.515   0.542   0.591   0.609   0.646
  0.786   0.810   0.859   0.923   0.969   1.037   1.065   1.190
  1.209   1.251   1.309   1.344   1.376   1.417   1.552   2.290
  2.356   2.484   2.516   2.532   2.538   2.594   2.616   2.635
  2.709   2.732   2.794   2.914   2.930   2.995   2.999   3.029
  3.031   3.083   3.153   3.170   3.199   3.255   3.351   3.460
  3.542   3.564   3.623   3.789   4.000   4.007   4.072   4.167
  4.292   4.324   4.460   4.647   4.981   5.103   5.257   5.448
  5.989  23.517  24.517  26.989  27.209  27.276  27.956  28.104
 28.117  40.630  40.639  40.799  40.858  40.894  40.974  40.978
 41.057  41.122  41.143
 --------------------------------------------------------------
 
          Ground-State Mulliken Net Atomic Charges

     Atom                 Charge (a.u.)
  ----------------------------------------
      1 C                     0.006734
      2 C                     0.361926
      3 H                     0.200869
      4 H                     0.185659
      5 H                     0.244811
  ----------------------------------------
  Sum of atomic charges =     1.000000

 -----------------------------------------------------------------
                    Cartesian Multipole Moments
 -----------------------------------------------------------------
    Charge (ESU x 10^10)
                 4.8032
    Dipole Moment (Debye)
         X       0.4967      Y       0.0003      Z       3.4260
       Tot       3.4618
    Quadrupole Moments (Debye-Ang)
        XX      -7.2304     XY      -0.0004     YY     -12.3268
        XZ       1.0569     YZ       0.0004     ZZ      -0.5368
    Octapole Moments (Debye-Ang^2)
       XXX      -0.5748    XXY       0.0001    XYY      -0.5564
       YYY       0.0003    XXZ      -5.1051    XYZ      -0.0006
       YYZ      -7.5863    XZZ       2.9918    YZZ       0.0008
       ZZZ      -1.2275
    Hexadecapole Moments (Debye-Ang^3)
      XXXX     -12.2644   XXXY      -0.0002   XXYY      -4.8633
      XYYY      -0.0002   YYYY     -12.3865   XXXZ      -1.3081
      XXYZ       0.0001   XYYZ      -1.1398   YYYZ       0.0004
      XXZZ      -6.7079   XYZZ      -0.0008   YYZZ     -15.1030
      XZZZ       5.8726   YZZZ       0.0014   ZZZZ     -33.9568
 -----------------------------------------------------------------
 Total job time:  26.23s(wall), 25.79s(cpu) 
 Sun Jul  7 08:43:01 2013

        *************************************************************
        *                                                           *
        *  Thank you very much for using Q-Chem.  Have a nice day.  *
        *                                                           *
        *************************************************************


0 sent ACK to 0 
now end server 0 ... 
