Process 0 of 1 is on cl165.stfx.acenet.ca - thread support 1
initial socket setup ...start
initial socket setup ...done 
now start server 0 ... 

cmd = /usr/bin/ssh clhead /usr/local/qchem/bin/get_hostid 1782846133 > /scratch/tmp/5998158.1.medium.q/qchem9090/lic.dat
                  Welcome to Q-Chem
     A Quantum Leap Into The Future Of Chemistry

 Y. Shao, L. Fusti-Molnar, Y. Jung, J. Kussmann, C. Ochsenfeld,
 S. T. Brown, A. T. B. Gilbert, L. V. Slipchenko,S. V. Levchenko,
 D. P. O'Neill, R. A. DiStasio Jr., R. C. Lochan, T. Wang,
 G. J. O. Beran, N. A. Besley, J. M. Herbert, C. Y. Lin,
 T. Van Voorhis, S. H. Chien, A. Sodt, R. P. Steele, 
 V. A. Rassolov, P. E. Maslen, P. P. Korambath, R. D. Adamson,
 B. Austin, J. Baker, E. F. C. Byrd, H. Dachsel, R. J. Doerksen,
 A. Dreuw, B. D. Dunietz, A. D. Dutoi, T. R. Furlani,
 S. R. Gwaltney, A. Heyden, S. Hirata, C.-P. Hsu, G. Kedziora,
 R. Z. Khaliullin, P. Klunzinger, A. M. Lee, M. S. Lee, W. Liang,
 I. Lotan, N. Nair, B. Peters, E. I. Proynov, P. A. Pieniazek, 
 Y. M. Rhee, J. Ritchie, E. Rosta, C. D. Sherrill, 
 A. C. Simmonett, J. E. Subotnik, H. L. Woodcock III,
 W. Zhang, A. T. Bell, A. K. Chakraborty, D. M. Chipman,
 F. J. Keil, A. Warshel, W. J. Hehre, H. F. Schaefer III,
 J. Kong, A. I. Krylov, P. M. W. Gill, M. Head-Gordon,
 Q-Chem, Version 3.1, Q-Chem, Inc., Pittsburgh, PA (2007).

 Additional authors for Version 3.1: 
 Z. Gan, Y. Zhao, N. E. Schultz, D. Truhlar, E. Epifanovsky and M. Oana.

 Additional authors for Version 3.2: 
 R. Baer, B. R. Brooks, D. Casanova, J.-D. Chai, C.-L. Cheng, 
 C. Cramer, D. Crittenden, A. Ghysels, G. Hawkins, E. G. Hohenstein, 
 C. Kelley, W. Kurlancheek, D. Liotard, E. Livshits, P. Manohar, 
 A. Marenich, D. Neuhauser, R. Olson, M. A. Rohrdanz, K. S. Thanthiriwatte, 
 A. J. W. Thom, V. Vanovschi, C. F. Williams, Q. Wu and Z.-Q. You. 


 Intel X86 Linux Version

 Q-chem begins on Wed May 22 11:21:52 2013  

 Parallel job on  1  processors
Processing $rem in /usr/local/qchem/config/preferences.

theFileMan(): MAXOPENFILES=974 MAX_SUB_FILE_NUM=16
Maximum size of a physical file is 2.0 GB, maximum size of a tmp-file is 32.0 GB


--------------------------------------------------------------
User input:
--------------------------------------------------------------

$molecule
-1,2
C          0.00000        0.00000        1.38953
C          1.20351        0.00000        0.69484
C          1.20351        0.00000       -0.69484
C          0.00000        0.00000       -1.38953
C         -1.20351        0.00000       -0.69484
C         -1.20351        0.00000        0.69484
H          0.00000        0.00000        2.47757
H          2.14570        0.00000        1.23893
H          2.14570        0.00000       -1.23893
H          0.00000        0.00000       -2.47757
H         -2.14570        0.00000       -1.23893
H         -2.14570        0.00000        1.23893
$end

$comment
negative
$end

$xc_functional
C PBE   1.00
X wPBE  1.00
$end

$rem
SYMMETRY_DECOMPOSITION	0
exchange 		general
LRC_DFT                 true
BASIS                   g3large
omega			300
mem_static              760
max_scf_cycles          200
scf_final_print         1
sym_ignore              true
$end

--------------------------------------------------------------
 Writing REM_CC_EA           12
 ----------------------------------------------------
       Standard Nuclear Orientation (Angstroms)
    I     Atom         X            Y            Z
 ----------------------------------------------------
    1      C       0.000000     0.000000     1.389530
    2      C       1.203510     0.000000     0.694840
    3      C       1.203510     0.000000    -0.694840
    4      C       0.000000     0.000000    -1.389530
    5      C      -1.203510     0.000000    -0.694840
    6      C      -1.203510     0.000000     0.694840
    7      H       0.000000     0.000000     2.477570
    8      H       2.145700     0.000000     1.238930
    9      H       2.145700     0.000000    -1.238930
   10      H       0.000000     0.000000    -2.477570
   11      H      -2.145700     0.000000    -1.238930
   12      H      -2.145700     0.000000     1.238930
 ----------------------------------------------------
 Nuclear Repulsion Energy =   204.0246934544 hartrees
 There are       22 alpha and       21 beta electrons
 Requested basis set is G3large
 There are 96 shells and 312 basis functions

Total QAlloc Memory Limit   2000 MB
Mega-Array Size       743 MB
MEM_STATIC part       760 MB

                       Distance Matrix (Angstroms)
             C (  1)   C (  2)   C (  3)   C (  4)   C (  5)   C (  6)
   C (  2)  1.389615
   C (  3)  2.406872  1.389680
   C (  4)  2.779060  2.406872  1.389615
   C (  5)  2.406872  2.779380  2.407020  1.389615
   C (  6)  1.389615  2.407020  2.779380  2.406872  1.389680
   H (  7)  1.088040  2.150945  3.393025  3.867100  3.393025  2.150945
   H (  8)  2.150979  1.088005  2.151090  3.393056  3.867386  3.393117
   H (  9)  3.393056  2.151090  1.088005  2.150979  3.393117  3.867386
   H ( 10)  3.867100  3.393025  2.150945  1.088040  2.150945  3.393025
   H ( 11)  3.393056  3.867386  3.393117  2.150979  1.088005  2.151090
   H ( 12)  2.150979  3.393117  3.867386  3.393056  2.151090  1.088005
             H (  7)   H (  8)   H (  9)   H ( 10)   H ( 11)
   H (  8)  2.477551
   H (  9)  4.291433  2.477860
   H ( 10)  4.955140  4.291433  2.477551
   H ( 11)  4.291433  4.955391  4.291400  2.477551
   H ( 12)  2.477551  4.291400  4.955391  4.291433  2.477860
 
 A cutoff of  1.0D-08 yielded   4158 shell pairs
 There are  44823 function pairs ( 56124 Cartesian)
Evaluating contribution to one-electron hamiltonian from nuclear
 Smallest overlap matrix eigenvalue = 8.90E-07

 Q-Chem warning in module mkSTV.C, line 194:

 Overlap eigenvalue is smaller than square root of threshold

 Linear dependence detected in AO basis
 Number of orthogonalized atomic orbitals = 311
 Maximum deviation from orthogonality = 2.238E-11
 Multipole matrices computed through 2nd order

  Scale SEOQF with 1.000000e-01/1.000000e-01/1.000000e-01

 Standard Electronic Orientation quadrupole field applied
 Nucleus-field energy     =    -0.0000000038 hartrees
 Guess from superposition of atomic densities
 Warning:  Energy on first SCF cycle will be non-variational
 Long-range K will be added via erf
 Coulomb attenuation parameter = 0.3 bohr**(-1)
 An unrestricted Kohn-Sham SCF calculation will be
 performed using Pulay DIIS extrapolation
 Exchange:  wPBE + LR-HF      Correlation:  PBE
 Using SG-1 standard quadrature grid
 SCF converges when DIIS error is below 1.0E-05
 Requested basis set is G3large
 There are 96 shells and 312 basis functions
 A cutoff of  1.0D-08 yielded   4158 shell pairs
 There are  44823 function pairs ( 56124 Cartesian)
 Warning!  Inaccurate integrated density:
   Number of electrons =    43
   Numerical integral  =    42.001117063615
   Relative error      =    -2.3229835730 %
 ---------------------------------------
  Cycle       Energy         DIIS Error
 ---------------------------------------
    1    -234.0826651883      2.75E-02
    2    -231.8590024690      3.43E-03
    3    -231.8203523375      4.17E-03
    4    -232.0431884359      4.63E-04
    5    -232.0484518211      1.82E-04
    6    -232.0492912714      9.52E-05
    7    -232.0496899983      6.47E-05
    8    -232.0500775396      5.75E-05
    9    -232.0507072812      6.20E-05
   10    -232.0492439816      5.97E-05
   11    -232.0466655108      2.37E-04
   12    -232.0467016210      2.34E-04
   13    -232.0467955862      2.36E-04
   14    -232.0476219013      1.72E-05
   15    -232.0476756082      1.37E-05
   16    -232.0477140410      1.38E-05
   17    -232.0477534920      1.39E-05
   18    -232.0477311879      1.36E-05
   19    -232.0475204880      1.79E-05
   20    -232.0474257287      2.30E-05
   21    -232.0473984220      2.14E-05
   22    -232.0473670992      1.68E-05
   23    -232.0473512721      1.45E-05
   24    -232.0473568501      6.87E-06 Convergence criterion met
 ---------------------------------------
 One-Electron    Energy =  -724.0951508684
 Total Coulomb   Energy =   322.8855927880
 Alpha Exchange  Energy =    -3.3988258110
 Beta  Exchange  Energy =    -3.2559264834
 DFT   Exchange  Energy =   -26.8026071822
 DFT Correlation Energy =    -1.4051327437
 Nuclear Repu.   Energy =   204.0246934506
 Nuclear Attr.   Energy =  -955.4405905997
 Kinetic         Energy =   231.3454397313
 <S^2> = 0.7635
 SCF time:  CPU 1372.52 s  wall 1376.05 s
 Final Alpha MO Eigenvalues
            1           2           3           4           5           6
    1  -9.8553872  -9.8553371  -9.8311661  -9.8310982  -9.8283657  -9.8283062
            7           8           9          10          11          12
    1  -0.7485249  -0.6435270  -0.6393512  -0.5011514  -0.5003050  -0.4276684
           13          14          15          16          17          18
    1  -0.3602876  -0.3349430  -0.3179210  -0.3108491  -0.2815868  -0.2325085
           19          20          21          22          23          24
    1  -0.2297348  -0.1613702  -0.1601938   0.0498209   0.1499151   0.1505450
           25          26          27
    1   0.1520308   0.1631896   0.1633376
 Final Beta MO Eigenvalues
            1           2           3           4           5           6
    1  -9.8567914  -9.8567388  -9.8277739  -9.8276997  -9.8244598  -9.8243902
            7           8           9          10          11          12
    1  -0.7436074  -0.6402183  -0.6301429  -0.4994437  -0.4885684  -0.4253270
           13          14          15          16          17          18
    1  -0.3557912  -0.3318630  -0.3168375  -0.3078293  -0.2664394  -0.2303842
           19          20          21          22          23          24
    1  -0.2274458  -0.1439551  -0.1222462   0.1509230   0.1511880   0.1524640
           25          26
    1   0.1633734   0.1640316
 Analysis of SCF Wavefunction
 
 --------------------------------------------------------------
                    Orbital Energies (a.u.)
 --------------------------------------------------------------
 
 Alpha MOs
 -- Occupied --
 -9.855  -9.855  -9.831  -9.831  -9.828  -9.828  -0.749  -0.644
 -0.639  -0.501  -0.500  -0.428  -0.360  -0.335  -0.318  -0.311
 -0.282  -0.233  -0.230  -0.161  -0.160   0.050
 -- Virtual --
  0.150   0.151   0.152   0.163   0.163   0.195   0.243   0.263
  0.278   0.280   0.289   0.296   0.296   0.297   0.299   0.300
  0.311   0.320   0.322   0.323   0.324   0.335   0.360   0.360
  0.361   0.365   0.366   0.409   0.410   0.416   0.437   0.453
  0.503   0.509   0.510   0.523   0.523   0.591   0.592   0.604
  0.605   0.679   0.690   0.710   0.773   0.784   0.786   0.794
  0.796   0.797   0.798   0.803   0.822   0.822   0.863   0.868
  0.896   0.913   0.913   0.913   0.913   0.920   0.921   0.922
  0.954   0.958   1.018   1.019   1.020   1.021   1.036   1.038
  1.077   1.086   1.087   1.088   1.097   1.193   1.248   1.251
  1.297   1.306   1.308   1.323   1.360   1.364   1.385   1.435
  1.441   1.455   1.458   1.499   1.560   1.562   1.562   1.563
  1.563   1.622   1.622   1.645   1.646   1.652   1.653   1.668
  1.692   1.741   1.753   1.757   1.854   1.860   1.976   1.999
  2.006   2.016   2.016   2.121   2.261   2.263   2.272   2.274
  2.355   2.738   2.773   2.786   2.821   2.831   2.836   2.929
  2.930   2.956   2.960   2.992   3.010   3.013   3.035   3.049
  3.049   3.071   3.106   3.106   3.107   3.117   3.121   3.140
  3.141   3.187   3.202   3.202   3.317   3.363   3.363   3.376
  3.377   3.389   3.429   3.431   3.456   3.458   3.461   3.463
  3.533   3.572   3.573   3.598   3.601   3.605   3.607   3.635
  3.640   3.664   3.677   3.678   3.685   3.778   3.791   3.834
  3.840   3.862   3.958   3.979   4.010   4.010   4.044   4.062
  4.065   4.121   4.123   4.123   4.124   4.161   4.166   4.192
  4.228   4.257   4.300   4.346   4.349   4.382   4.391   4.471
  4.492   4.493   4.627   4.637   4.643   4.714   4.715   4.734
  4.751   4.751   4.754   4.761   4.763   4.876   4.940   4.942
  5.005   5.007   5.022   5.265   5.334   5.335   5.381   5.385
  5.398   5.442   5.638   5.640   6.014   6.017   6.055   6.063
  6.074   6.528   6.781  23.825  24.409  24.424  24.727  24.741
 25.274  27.350  27.495  27.510  27.593  27.607  27.847  28.084
 28.217  28.219  28.375  28.385  28.386  28.614  28.617  28.691
 28.692  28.743  29.228  41.005  41.054  41.058  41.096  41.129
 41.158  41.171  41.204  41.230  41.267  41.274  41.283  41.313
 41.322  41.327  41.331  41.363  41.369  41.373  41.378  41.378
 41.385  41.397  41.402  41.428  41.444  41.518  41.573  41.645
 41.687
 
 Beta MOs
 -- Occupied --
 -9.857  -9.857  -9.828  -9.828  -9.824  -9.824  -0.744  -0.640
 -0.630  -0.499  -0.489  -0.425  -0.356  -0.332  -0.317  -0.308
 -0.266  -0.230  -0.227  -0.144  -0.122
 -- Virtual --
  0.151   0.151   0.152   0.163   0.164   0.196   0.243   0.257
  0.265   0.280   0.284   0.290   0.297   0.297   0.297   0.300
  0.302   0.313   0.323   0.325   0.329   0.335   0.347   0.361
  0.361   0.363   0.366   0.369   0.409   0.416   0.416   0.454
  0.469   0.504   0.510   0.513   0.525   0.529   0.592   0.596
  0.606   0.609   0.681   0.693   0.717   0.776   0.789   0.793
  0.798   0.804   0.806   0.809   0.810   0.824   0.824   0.870
  0.883   0.901   0.914   0.915   0.921   0.921   0.925   0.926
  0.937   0.957   0.967   1.021   1.023   1.029   1.029   1.045
  1.048   1.080   1.088   1.091   1.094   1.099   1.197   1.253
  1.256   1.301   1.315   1.316   1.328   1.365   1.369   1.388
  1.438   1.442   1.459   1.460   1.503   1.561   1.564   1.567
  1.572   1.574   1.624   1.625   1.648   1.651   1.654   1.665
  1.669   1.693   1.744   1.753   1.761   1.864   1.871   1.984
  2.001   2.008   2.018   2.027   2.126   2.267   2.268   2.276
  2.277   2.357   2.745   2.778   2.793   2.831   2.832   2.842
  2.934   2.947   2.959   2.978   3.002   3.012   3.015   3.042
  3.055   3.058   3.071   3.109   3.115   3.119   3.120   3.135
  3.150   3.154   3.203   3.209   3.214   3.324   3.365   3.368
  3.378   3.385   3.392   3.437   3.440   3.459   3.464   3.467
  3.471   3.543   3.577   3.579   3.601   3.605   3.611   3.613
  3.643   3.649   3.671   3.681   3.690   3.692   3.790   3.801
  3.836   3.849   3.868   3.959   3.989   4.021   4.023   4.049
  4.065   4.072   4.123   4.125   4.133   4.134   4.162   4.166
  4.196   4.231   4.265   4.303   4.346   4.354   4.383   4.395
  4.474   4.495   4.497   4.628   4.638   4.651   4.721   4.727
  4.739   4.754   4.755   4.759   4.769   4.775   4.882   4.942
  4.945   5.006   5.011   5.031   5.274   5.336   5.338   5.384
  5.386   5.401   5.443   5.638   5.642   6.015   6.019   6.055
  6.065   6.076   6.530   6.783  23.827  24.409  24.428  24.727
 24.746  25.276  27.355  27.496  27.521  27.595  27.618  27.854
 28.085  28.218  28.220  28.376  28.386  28.388  28.615  28.618
 28.692  28.694  28.745  29.229  41.010  41.055  41.065  41.096
 41.133  41.158  41.180  41.204  41.233  41.271  41.276  41.285
 41.313  41.322  41.334  41.337  41.368  41.376  41.376  41.381
 41.383  41.393  41.399  41.408  41.428  41.445  41.519  41.574
 41.645  41.687
 --------------------------------------------------------------
 
          Ground-State Mulliken Net Atomic Charges

     Atom                 Charge (a.u.)    Spin (a.u.)
  --------------------------------------------------------
      1 C                    -0.171482      -0.098973
      2 C                    -0.316503       0.303762
      3 C                    -0.331921       0.348753
      4 C                    -0.171241      -0.099125
      5 C                    -0.316216       0.303636
      6 C                    -0.331884       0.348843
      7 H                     0.104787       0.007898
      8 H                     0.107377      -0.028694
      9 H                     0.107566      -0.032751
     10 H                     0.104601       0.008086
     11 H                     0.107292      -0.028604
     12 H                     0.107623      -0.032832
  --------------------------------------------------------
  Sum of atomic charges =    -1.000000
  Sum of spin   charges =     1.000000

 -----------------------------------------------------------------
                    Cartesian Multipole Moments
 -----------------------------------------------------------------
    Charge (ESU x 10^10)
                -4.8032
    Dipole Moment (Debye)
         X      -0.0005      Y       0.0001      Z       0.0009
       Tot       0.0010
    Quadrupole Moments (Debye-Ang)
        XX     -47.8716     XY      -0.3109     YY     -47.2372
        XZ       0.1175     YZ      -0.0313     ZZ     -45.3423
    Octapole Moments (Debye-Ang^2)
       XXX       0.0010    XXY      -0.0010    XYY       0.0002
       YYY      -0.0001    XXZ       0.0061    XYZ       0.0166
       YYZ       0.0034    XZZ       0.0004    YZZ       0.0007
       ZZZ       0.0191
    Hexadecapole Moments (Debye-Ang^3)
      XXXX    -375.7723   XXXY      -2.5714   XXYY     -89.9400
      XYYY      -2.0823   YYYY     -79.9584   XXXZ       1.1333
      XXYZ      -0.1341   XYYZ       0.1656   YYYZ      -0.2093
      XXZZ    -132.2462   XYZZ      -2.4069   YYZZ     -86.4764
      XZZZ      -0.2868   YZZZ      -0.3691   ZZZZ    -357.9081
 -----------------------------------------------------------------
 Total job time:  1376.71s(wall), 1373.16s(cpu) 
 Wed May 22 11:44:48 2013

        *************************************************************
        *                                                           *
        *  Thank you very much for using Q-Chem.  Have a nice day.  *
        *                                                           *
        *************************************************************


0 sent ACK to 0 
now end server 0 ... 
 
**********************************************************************
Job 2 of 3 
**********************************************************************
 
Process 0 of 1 is on cl165.stfx.acenet.ca - thread support 1
initial socket setup ...start
initial socket setup ...done 
now start server 0 ... 

cmd = /usr/bin/ssh clhead /usr/local/qchem/bin/get_hostid 851104669 > /scratch/tmp/5998158.1.medium.q/qchem9090/lic.dat
                  Welcome to Q-Chem
     A Quantum Leap Into The Future Of Chemistry

 Y. Shao, L. Fusti-Molnar, Y. Jung, J. Kussmann, C. Ochsenfeld,
 S. T. Brown, A. T. B. Gilbert, L. V. Slipchenko,S. V. Levchenko,
 D. P. O'Neill, R. A. DiStasio Jr., R. C. Lochan, T. Wang,
 G. J. O. Beran, N. A. Besley, J. M. Herbert, C. Y. Lin,
 T. Van Voorhis, S. H. Chien, A. Sodt, R. P. Steele, 
 V. A. Rassolov, P. E. Maslen, P. P. Korambath, R. D. Adamson,
 B. Austin, J. Baker, E. F. C. Byrd, H. Dachsel, R. J. Doerksen,
 A. Dreuw, B. D. Dunietz, A. D. Dutoi, T. R. Furlani,
 S. R. Gwaltney, A. Heyden, S. Hirata, C.-P. Hsu, G. Kedziora,
 R. Z. Khaliullin, P. Klunzinger, A. M. Lee, M. S. Lee, W. Liang,
 I. Lotan, N. Nair, B. Peters, E. I. Proynov, P. A. Pieniazek, 
 Y. M. Rhee, J. Ritchie, E. Rosta, C. D. Sherrill, 
 A. C. Simmonett, J. E. Subotnik, H. L. Woodcock III,
 W. Zhang, A. T. Bell, A. K. Chakraborty, D. M. Chipman,
 F. J. Keil, A. Warshel, W. J. Hehre, H. F. Schaefer III,
 J. Kong, A. I. Krylov, P. M. W. Gill, M. Head-Gordon,
 Q-Chem, Version 3.1, Q-Chem, Inc., Pittsburgh, PA (2007).

 Additional authors for Version 3.1: 
 Z. Gan, Y. Zhao, N. E. Schultz, D. Truhlar, E. Epifanovsky and M. Oana.

 Additional authors for Version 3.2: 
 R. Baer, B. R. Brooks, D. Casanova, J.-D. Chai, C.-L. Cheng, 
 C. Cramer, D. Crittenden, A. Ghysels, G. Hawkins, E. G. Hohenstein, 
 C. Kelley, W. Kurlancheek, D. Liotard, E. Livshits, P. Manohar, 
 A. Marenich, D. Neuhauser, R. Olson, M. A. Rohrdanz, K. S. Thanthiriwatte, 
 A. J. W. Thom, V. Vanovschi, C. F. Williams, Q. Wu and Z.-Q. You. 


 Intel X86 Linux Version

 Q-chem begins on Wed May 22 11:44:51 2013  

 Parallel job on  1  processors
Processing $rem in /usr/local/qchem/config/preferences.

theFileMan(): MAXOPENFILES=974 MAX_SUB_FILE_NUM=16
Maximum size of a physical file is 2.0 GB, maximum size of a tmp-file is 32.0 GB


--------------------------------------------------------------
User input:
--------------------------------------------------------------

$molecule
0,1
C          0.00000        0.00000        1.38953
C          1.20351        0.00000        0.69484
C          1.20351        0.00000       -0.69484
C          0.00000        0.00000       -1.38953
C         -1.20351        0.00000       -0.69484
C         -1.20351        0.00000        0.69484
H          0.00000        0.00000        2.47757
H          2.14570        0.00000        1.23893
H          2.14570        0.00000       -1.23893
H          0.00000        0.00000       -2.47757
H         -2.14570        0.00000       -1.23893
H         -2.14570        0.00000        1.23893
$end

$comment
neutral
$end

$xc_functional
C PBE   1.00
X wPBE  1.00
$end


$rem
SYMMETRY_DECOMPOSITION	0
LRC_DFT                 true
exchange 		general
BASIS                   g3large
omega			300
mem_static              760
max_scf_cycles          200
scf_final_print         1
sym_ignore              true
$end

--------------------------------------------------------------
 Writing REM_CC_EA           12
 ----------------------------------------------------
       Standard Nuclear Orientation (Angstroms)
    I     Atom         X            Y            Z
 ----------------------------------------------------
    1      C       0.000000     0.000000     1.389530
    2      C       1.203510     0.000000     0.694840
    3      C       1.203510     0.000000    -0.694840
    4      C       0.000000     0.000000    -1.389530
    5      C      -1.203510     0.000000    -0.694840
    6      C      -1.203510     0.000000     0.694840
    7      H       0.000000     0.000000     2.477570
    8      H       2.145700     0.000000     1.238930
    9      H       2.145700     0.000000    -1.238930
   10      H       0.000000     0.000000    -2.477570
   11      H      -2.145700     0.000000    -1.238930
   12      H      -2.145700     0.000000     1.238930
 ----------------------------------------------------
 Nuclear Repulsion Energy =   204.0246934544 hartrees
 There are       21 alpha and       21 beta electrons
 Requested basis set is G3large
 There are 96 shells and 312 basis functions

Total QAlloc Memory Limit   2000 MB
Mega-Array Size       743 MB
MEM_STATIC part       760 MB

                       Distance Matrix (Angstroms)
             C (  1)   C (  2)   C (  3)   C (  4)   C (  5)   C (  6)
   C (  2)  1.389615
   C (  3)  2.406872  1.389680
   C (  4)  2.779060  2.406872  1.389615
   C (  5)  2.406872  2.779380  2.407020  1.389615
   C (  6)  1.389615  2.407020  2.779380  2.406872  1.389680
   H (  7)  1.088040  2.150945  3.393025  3.867100  3.393025  2.150945
   H (  8)  2.150979  1.088005  2.151090  3.393056  3.867386  3.393117
   H (  9)  3.393056  2.151090  1.088005  2.150979  3.393117  3.867386
   H ( 10)  3.867100  3.393025  2.150945  1.088040  2.150945  3.393025
   H ( 11)  3.393056  3.867386  3.393117  2.150979  1.088005  2.151090
   H ( 12)  2.150979  3.393117  3.867386  3.393056  2.151090  1.088005
             H (  7)   H (  8)   H (  9)   H ( 10)   H ( 11)
   H (  8)  2.477551
   H (  9)  4.291433  2.477860
   H ( 10)  4.955140  4.291433  2.477551
   H ( 11)  4.291433  4.955391  4.291400  2.477551
   H ( 12)  2.477551  4.291400  4.955391  4.291433  2.477860
 
 A cutoff of  1.0D-08 yielded   4158 shell pairs
 There are  44823 function pairs ( 56124 Cartesian)
Evaluating contribution to one-electron hamiltonian from nuclear
 Smallest overlap matrix eigenvalue = 8.90E-07

 Q-Chem warning in module mkSTV.C, line 194:

 Overlap eigenvalue is smaller than square root of threshold

 Linear dependence detected in AO basis
 Number of orthogonalized atomic orbitals = 311
 Maximum deviation from orthogonality = 2.238E-11
 Multipole matrices computed through 2nd order

  Scale SEOQF with 1.000000e-01/1.000000e-01/1.000000e-01

 Standard Electronic Orientation quadrupole field applied
 Nucleus-field energy     =    -0.0000000038 hartrees
 Guess from superposition of atomic densities
 Warning:  Energy on first SCF cycle will be non-variational
 Long-range K will be added via erf
 Coulomb attenuation parameter = 0.3 bohr**(-1)
 A restricted Kohn-Sham SCF calculation will be
 performed using Pulay DIIS extrapolation
 Exchange:  wPBE + LR-HF      Correlation:  PBE
 Using SG-1 standard quadrature grid
 SCF converges when DIIS error is below 1.0E-05
 Requested basis set is G3large
 There are 96 shells and 312 basis functions
 A cutoff of  1.0D-08 yielded   4158 shell pairs
 There are  44823 function pairs ( 56124 Cartesian)
 ---------------------------------------
  Cycle       Energy         DIIS Error
 ---------------------------------------
    1    -234.0826651883      2.75E-02
    2    -232.0205917531      2.25E-03
    3    -232.0734615762      1.46E-03
    4    -232.0985528695      2.56E-04
    5    -232.1000612487      6.49E-05
    6    -232.1001893133      1.22E-05
    7    -232.1001955574      4.11E-06 Convergence criterion met
 ---------------------------------------
 One-Electron    Energy =  -715.4696358634
 Total Coulomb   Energy =   313.9487959641
 Alpha Exchange  Energy =    -3.2658255989
 Beta  Exchange  Energy =    -3.2658255989
 DFT   Exchange  Energy =   -26.6969407343
 DFT Correlation Energy =    -1.3754571767
 Nuclear Repu.   Energy =   204.0246934506
 Nuclear Attr.   Energy =  -946.5428628480
 Kinetic         Energy =   231.0732269846
 SCF time:  CPU 302.92 s  wall 305.08 s
 Final Alpha MO Eigenvalues
            1           2           3           4           5           6
    1 -10.0530624 -10.0530054 -10.0529014 -10.0525913 -10.0524627 -10.0523664
            7           8           9          10          11          12
    1  -0.9573493  -0.8472281  -0.8471774  -0.7024626  -0.7024296  -0.6281895
           13          14          15          16          17          18
    1  -0.5554589  -0.5442313  -0.5160255  -0.5159894  -0.4818027  -0.4331847
           19          20          21          22          23          24
    1  -0.4331380  -0.3485914  -0.3485415   0.0374609   0.0466537   0.0466853
           25          26
    1   0.0569933   0.0570233
 Analysis of SCF Wavefunction
 
 --------------------------------------------------------------
                    Orbital Energies (a.u.)
 --------------------------------------------------------------
 
 Alpha MOs
 -- Occupied --
-10.053 -10.053 -10.053 -10.053 -10.052 -10.052  -0.957  -0.847
 -0.847  -0.702  -0.702  -0.628  -0.555  -0.544  -0.516  -0.516
 -0.482  -0.433  -0.433  -0.349  -0.349
 -- Virtual --
  0.037   0.047   0.047   0.057   0.057   0.064   0.064   0.096
  0.119   0.143   0.143   0.143   0.155   0.167   0.168   0.169
  0.169   0.169   0.191   0.191   0.194   0.203   0.203   0.214
  0.214   0.232   0.242   0.242   0.269   0.275   0.277   0.296
  0.296   0.346   0.346   0.360   0.360   0.361   0.422   0.423
  0.429   0.429   0.509   0.514   0.518   0.601   0.606   0.606
  0.612   0.616   0.616   0.621   0.621   0.632   0.637   0.689
  0.689   0.720   0.728   0.738   0.738   0.738   0.744   0.744
  0.744   0.769   0.769   0.850   0.850   0.850   0.850   0.854
  0.854   0.894   0.898   0.902   0.902   0.904   1.012   1.070
  1.070   1.112   1.119   1.119   1.147   1.174   1.174   1.218
  1.261   1.261   1.279   1.279   1.306   1.369   1.369   1.376
  1.376   1.377   1.431   1.431   1.454   1.454   1.462   1.462
  1.490   1.510   1.565   1.575   1.575   1.668   1.670   1.788
  1.812   1.812   1.830   1.830   1.937   2.068   2.068   2.080
  2.080   2.168   2.530   2.579   2.581   2.615   2.641   2.641
  2.726   2.726   2.756   2.757   2.791   2.811   2.811   2.831
  2.849   2.849   2.865   2.901   2.902   2.902   2.916   2.916
  2.935   2.935   2.983   2.997   2.997   3.122   3.162   3.162
  3.171   3.171   3.187   3.227   3.227   3.251   3.258   3.258
  3.259   3.334   3.369   3.369   3.395   3.395   3.405   3.405
  3.435   3.435   3.466   3.477   3.477   3.486   3.576   3.585
  3.640   3.640   3.667   3.756   3.776   3.804   3.804   3.842
  3.866   3.866   3.917   3.918   3.922   3.922   3.967   3.967
  3.992   4.025   4.052   4.106   4.147   4.147   4.191   4.191
  4.266   4.293   4.293   4.432   4.441   4.441   4.507   4.507
  4.531   4.547   4.547   4.554   4.556   4.556   4.675   4.736
  4.736   4.803   4.803   4.815   5.060   5.133   5.133   5.177
  5.177   5.192   5.245   5.435   5.435   5.810   5.811   5.859
  5.859   5.867   6.327   6.574  23.612  24.203  24.203  24.520
 24.520  25.060  27.138  27.289  27.290  27.387  27.387  27.634
 27.870  28.004  28.004  28.161  28.172  28.172  28.401  28.401
 28.478  28.479  28.528  29.014  40.791  40.836  40.847  40.880
 40.910  40.952  40.958  41.002  41.018  41.058  41.062  41.070
 41.107  41.107  41.114  41.114  41.151  41.151  41.159  41.163
 41.163  41.164  41.174  41.186  41.213  41.228  41.298  41.352
 41.436  41.477
 --------------------------------------------------------------
 
          Ground-State Mulliken Net Atomic Charges

     Atom                 Charge (a.u.)
  ----------------------------------------
      1 C                    -0.156345
      2 C                    -0.156290
      3 C                    -0.156271
      4 C                    -0.156494
      5 C                    -0.156358
      6 C                    -0.156302
      7 H                     0.156113
      8 H                     0.156470
      9 H                     0.156424
     10 H                     0.156139
     11 H                     0.156473
     12 H                     0.156440
  ----------------------------------------
  Sum of atomic charges =     0.000000

 -----------------------------------------------------------------
                    Cartesian Multipole Moments
 -----------------------------------------------------------------
    Charge (ESU x 10^10)
                 0.0000
    Dipole Moment (Debye)
         X       0.0000      Y       0.0000      Z      -0.0001
       Tot       0.0001
    Quadrupole Moments (Debye-Ang)
        XX     -31.6937     XY      -0.0001     YY     -39.7168
        XZ      -0.0015     YZ       0.0000     ZZ     -31.6972
    Octapole Moments (Debye-Ang^2)
       XXX       0.0000    XXY       0.0000    XYY       0.0000
       YYY       0.0000    XXZ       0.0000    XYZ       0.0000
       YYZ       0.0000    XZZ       0.0000    YZZ       0.0000
       ZZZ       0.0000
    Hexadecapole Moments (Debye-Ang^3)
      XXXX    -271.3669   XXXY      -0.0030   XXYY     -63.7598
      XYYY       0.0017   YYYY     -47.3136   XXXZ       0.0016
      XXYZ       0.0000   XYYZ       0.0000   YYYZ      -0.0001
      XXZZ     -90.4490   XYZZ      -0.0010   YYZZ     -63.7561
      XZZZ      -0.0010   YZZZ       0.0001   ZZZZ    -271.3553
 -----------------------------------------------------------------
 Total job time:  305.68s(wall), 303.51s(cpu) 
 Wed May 22 11:49:57 2013

        *************************************************************
        *                                                           *
        *  Thank you very much for using Q-Chem.  Have a nice day.  *
        *                                                           *
        *************************************************************


0 sent ACK to 0 
now end server 0 ... 
 
**********************************************************************
Job 3 of 3 
**********************************************************************
 
Process 0 of 1 is on cl165.stfx.acenet.ca - thread support 1
initial socket setup ...start
initial socket setup ...done 
now start server 0 ... 

cmd = /usr/bin/ssh clhead /usr/local/qchem/bin/get_hostid 1679044620 > /scratch/tmp/5998158.1.medium.q/qchem9090/lic.dat
                  Welcome to Q-Chem
     A Quantum Leap Into The Future Of Chemistry

 Y. Shao, L. Fusti-Molnar, Y. Jung, J. Kussmann, C. Ochsenfeld,
 S. T. Brown, A. T. B. Gilbert, L. V. Slipchenko,S. V. Levchenko,
 D. P. O'Neill, R. A. DiStasio Jr., R. C. Lochan, T. Wang,
 G. J. O. Beran, N. A. Besley, J. M. Herbert, C. Y. Lin,
 T. Van Voorhis, S. H. Chien, A. Sodt, R. P. Steele, 
 V. A. Rassolov, P. E. Maslen, P. P. Korambath, R. D. Adamson,
 B. Austin, J. Baker, E. F. C. Byrd, H. Dachsel, R. J. Doerksen,
 A. Dreuw, B. D. Dunietz, A. D. Dutoi, T. R. Furlani,
 S. R. Gwaltney, A. Heyden, S. Hirata, C.-P. Hsu, G. Kedziora,
 R. Z. Khaliullin, P. Klunzinger, A. M. Lee, M. S. Lee, W. Liang,
 I. Lotan, N. Nair, B. Peters, E. I. Proynov, P. A. Pieniazek, 
 Y. M. Rhee, J. Ritchie, E. Rosta, C. D. Sherrill, 
 A. C. Simmonett, J. E. Subotnik, H. L. Woodcock III,
 W. Zhang, A. T. Bell, A. K. Chakraborty, D. M. Chipman,
 F. J. Keil, A. Warshel, W. J. Hehre, H. F. Schaefer III,
 J. Kong, A. I. Krylov, P. M. W. Gill, M. Head-Gordon,
 Q-Chem, Version 3.1, Q-Chem, Inc., Pittsburgh, PA (2007).

 Additional authors for Version 3.1: 
 Z. Gan, Y. Zhao, N. E. Schultz, D. Truhlar, E. Epifanovsky and M. Oana.

 Additional authors for Version 3.2: 
 R. Baer, B. R. Brooks, D. Casanova, J.-D. Chai, C.-L. Cheng, 
 C. Cramer, D. Crittenden, A. Ghysels, G. Hawkins, E. G. Hohenstein, 
 C. Kelley, W. Kurlancheek, D. Liotard, E. Livshits, P. Manohar, 
 A. Marenich, D. Neuhauser, R. Olson, M. A. Rohrdanz, K. S. Thanthiriwatte, 
 A. J. W. Thom, V. Vanovschi, C. F. Williams, Q. Wu and Z.-Q. You. 


 Intel X86 Linux Version

 Q-chem begins on Wed May 22 11:50:00 2013  

 Parallel job on  1  processors
Processing $rem in /usr/local/qchem/config/preferences.

theFileMan(): MAXOPENFILES=974 MAX_SUB_FILE_NUM=16
Maximum size of a physical file is 2.0 GB, maximum size of a tmp-file is 32.0 GB


--------------------------------------------------------------
User input:
--------------------------------------------------------------

$molecule
1,2
C          0.00000        0.00000        1.38953
C          1.20351        0.00000        0.69484
C          1.20351        0.00000       -0.69484
C          0.00000        0.00000       -1.38953
C         -1.20351        0.00000       -0.69484
C         -1.20351        0.00000        0.69484
H          0.00000        0.00000        2.47757
H          2.14570        0.00000        1.23893
H          2.14570        0.00000       -1.23893
H          0.00000        0.00000       -2.47757
H         -2.14570        0.00000       -1.23893
H         -2.14570        0.00000        1.23893
$end

$comment
positive
$end

$xc_functional
C PBE   1.00
X wPBE  1.00
$end

$rem
SYMMETRY_DECOMPOSITION	0
LRC_DFT                 true
exchange 		general
BASIS                   g3large
omega			300
mem_static              760
max_scf_cycles          200
scf_final_print         1
sym_ignore              true
$end

--------------------------------------------------------------
 Writing REM_CC_EA           12
 ----------------------------------------------------
       Standard Nuclear Orientation (Angstroms)
    I     Atom         X            Y            Z
 ----------------------------------------------------
    1      C       0.000000     0.000000     1.389530
    2      C       1.203510     0.000000     0.694840
    3      C       1.203510     0.000000    -0.694840
    4      C       0.000000     0.000000    -1.389530
    5      C      -1.203510     0.000000    -0.694840
    6      C      -1.203510     0.000000     0.694840
    7      H       0.000000     0.000000     2.477570
    8      H       2.145700     0.000000     1.238930
    9      H       2.145700     0.000000    -1.238930
   10      H       0.000000     0.000000    -2.477570
   11      H      -2.145700     0.000000    -1.238930
   12      H      -2.145700     0.000000     1.238930
 ----------------------------------------------------
 Nuclear Repulsion Energy =   204.0246934544 hartrees
 There are       21 alpha and       20 beta electrons
 Requested basis set is G3large
 There are 96 shells and 312 basis functions

Total QAlloc Memory Limit   2000 MB
Mega-Array Size       743 MB
MEM_STATIC part       760 MB

                       Distance Matrix (Angstroms)
             C (  1)   C (  2)   C (  3)   C (  4)   C (  5)   C (  6)
   C (  2)  1.389615
   C (  3)  2.406872  1.389680
   C (  4)  2.779060  2.406872  1.389615
   C (  5)  2.406872  2.779380  2.407020  1.389615
   C (  6)  1.389615  2.407020  2.779380  2.406872  1.389680
   H (  7)  1.088040  2.150945  3.393025  3.867100  3.393025  2.150945
   H (  8)  2.150979  1.088005  2.151090  3.393056  3.867386  3.393117
   H (  9)  3.393056  2.151090  1.088005  2.150979  3.393117  3.867386
   H ( 10)  3.867100  3.393025  2.150945  1.088040  2.150945  3.393025
   H ( 11)  3.393056  3.867386  3.393117  2.150979  1.088005  2.151090
   H ( 12)  2.150979  3.393117  3.867386  3.393056  2.151090  1.088005
             H (  7)   H (  8)   H (  9)   H ( 10)   H ( 11)
   H (  8)  2.477551
   H (  9)  4.291433  2.477860
   H ( 10)  4.955140  4.291433  2.477551
   H ( 11)  4.291433  4.955391  4.291400  2.477551
   H ( 12)  2.477551  4.291400  4.955391  4.291433  2.477860
 
 A cutoff of  1.0D-08 yielded   4158 shell pairs
 There are  44823 function pairs ( 56124 Cartesian)
Evaluating contribution to one-electron hamiltonian from nuclear
 Smallest overlap matrix eigenvalue = 8.90E-07

 Q-Chem warning in module mkSTV.C, line 194:

 Overlap eigenvalue is smaller than square root of threshold

 Linear dependence detected in AO basis
 Number of orthogonalized atomic orbitals = 311
 Maximum deviation from orthogonality = 2.238E-11
 Multipole matrices computed through 2nd order

  Scale SEOQF with 1.000000e-01/1.000000e-01/1.000000e-01

 Standard Electronic Orientation quadrupole field applied
 Nucleus-field energy     =    -0.0000000038 hartrees
 Guess from superposition of atomic densities
 Warning:  Energy on first SCF cycle will be non-variational
 Long-range K will be added via erf
 Coulomb attenuation parameter = 0.3 bohr**(-1)
 An unrestricted Kohn-Sham SCF calculation will be
 performed using Pulay DIIS extrapolation
 Exchange:  wPBE + LR-HF      Correlation:  PBE
 Using SG-1 standard quadrature grid
 SCF converges when DIIS error is below 1.0E-05
 Requested basis set is G3large
 There are 96 shells and 312 basis functions
 A cutoff of  1.0D-08 yielded   4158 shell pairs
 There are  44823 function pairs ( 56124 Cartesian)
 Warning!  Inaccurate integrated density:
   Number of electrons =    41
   Numerical integral  =    42.001117063615
   Relative error      =     2.4417489356 %
 ---------------------------------------
  Cycle       Energy         DIIS Error
 ---------------------------------------
    1    -234.0826651883      2.75E-02
    2    -231.6922345850      1.64E-03
    3    -231.7431445917      7.72E-04
    4    -231.7512644567      3.66E-04
    5    -231.7539463282      7.62E-05
    6    -231.7543090658      2.14E-05
    7    -231.7543788287      1.04E-05
    8    -231.7543921281      2.69E-06 Convergence criterion met
 ---------------------------------------
 One-Electron    Energy =  -705.7185009134
 Total Coulomb   Energy =   304.2617421903
 Alpha Exchange  Energy =    -3.2751607898
 Beta  Exchange  Energy =    -3.1232540527
 DFT   Exchange  Energy =   -26.5882636354
 DFT Correlation Energy =    -1.3356483776
 Nuclear Repu.   Energy =   204.0246934506
 Nuclear Attr.   Energy =  -936.6905572879
 Kinetic         Energy =   230.9720563744
 <S^2> = 0.7742
 SCF time:  CPU 430.23 s  wall 433.92 s
 Final Alpha MO Eigenvalues
            1           2           3           4           5           6
    1 -10.3088764 -10.3088210 -10.3039469 -10.3038933 -10.2693819 -10.2693297
            7           8           9          10          11          12
    1  -1.2012127  -1.0980289  -1.0730630  -0.9338659  -0.9337357  -0.8512836
           13          14          15          16          17          18
    1  -0.7819264  -0.7735789  -0.7493522  -0.7303278  -0.7268555  -0.6584295
           19          20          21          22          23          24
    1  -0.6563261  -0.6107332  -0.5720874  -0.1857195  -0.1587439  -0.0931299
           25          26
    1  -0.0729614  -0.0689335
 Final Beta MO Eigenvalues
            1           2           3           4           5           6
    1 -10.3040599 -10.3040256 -10.3000097 -10.2999722 -10.2710133 -10.2709617
            7           8           9          10          11          12
    1  -1.1905086  -1.0759885  -1.0711893  -0.9281363  -0.9251648  -0.8487675
           13          14          15          16          17          18
    1  -0.7774577  -0.7694967  -0.7444305  -0.7303116  -0.6795558  -0.6564804
           19          20          21          22          23          24
    1  -0.6534144  -0.5697769  -0.3433802  -0.1387716  -0.1380179  -0.0924974
           25
    1  -0.0722934
 Analysis of SCF Wavefunction
 
 --------------------------------------------------------------
                    Orbital Energies (a.u.)
 --------------------------------------------------------------
 
 Alpha MOs
 -- Occupied --
-10.309 -10.309 -10.304 -10.304 -10.269 -10.269  -1.201  -1.098
 -1.073  -0.934  -0.934  -0.851  -0.782  -0.774  -0.749  -0.730
 -0.727  -0.658  -0.656  -0.611  -0.572
 -- Virtual --
 -0.186  -0.159  -0.093  -0.073  -0.069  -0.048  -0.047  -0.037
 -0.035  -0.011  -0.006  -0.002   0.004   0.014   0.022   0.035
  0.035   0.036   0.040   0.047   0.047   0.050   0.054   0.073
  0.077   0.094   0.103   0.110   0.110   0.130   0.130   0.134
  0.169   0.172   0.174   0.174   0.187   0.204   0.251   0.252
  0.252   0.259   0.296   0.325   0.328   0.402   0.403   0.405
  0.407   0.419   0.421   0.423   0.424   0.425   0.433   0.483
  0.498   0.498   0.529   0.542   0.549   0.551   0.552   0.552
  0.558   0.560   0.565   0.635   0.638   0.659   0.667   0.674
  0.682   0.687   0.689   0.699   0.700   0.706   0.815   0.873
  0.873   0.908   0.908   0.910   0.956   0.959   0.970   1.038
  1.067   1.073   1.087   1.087   1.092   1.148   1.148   1.165
  1.174   1.178   1.222   1.222   1.243   1.243   1.243   1.251
  1.302   1.314   1.374   1.375   1.385   1.456   1.457   1.574
  1.597   1.611   1.618   1.629   1.737   1.851   1.851   1.865
  1.868   1.966   2.285   2.343   2.363   2.372   2.421   2.436
  2.479   2.493   2.507   2.533   2.560   2.578   2.589   2.596
  2.624   2.625   2.634   2.653   2.657   2.669   2.675   2.691
  2.694   2.700   2.744   2.750   2.765   2.902   2.934   2.935
  2.936   2.939   2.959   2.987   3.000   3.010   3.023   3.032
  3.033   3.103   3.130   3.136   3.163   3.167   3.176   3.185
  3.199   3.206   3.239   3.240   3.252   3.263   3.342   3.345
  3.410   3.429   3.450   3.533   3.534   3.564   3.567   3.615
  3.641   3.648   3.677   3.678   3.698   3.700   3.752   3.755
  3.767   3.800   3.817   3.895   3.921   3.929   3.971   3.986
  4.034   4.068   4.072   4.212   4.221   4.225   4.256   4.270
  4.301   4.312   4.312   4.318   4.325   4.335   4.447   4.505
  4.507   4.573   4.574   4.579   4.824   4.909   4.910   4.946
  4.947   4.961   5.030   5.206   5.210   5.583   5.585   5.632
  5.635   5.646   6.104   6.344  23.371  23.951  23.973  24.267
 24.292  24.820  26.891  27.030  27.059  27.128  27.159  27.391
 27.628  27.761  27.765  27.921  27.931  27.932  28.160  28.165
 28.237  28.240  28.292  28.775  40.543  40.579  40.611  40.639
 40.660  40.696  40.734  40.775  40.783  40.815  40.823  40.827
 40.853  40.862  40.867  40.870  40.901  40.906  40.911  40.921
 40.922  40.931  40.934  40.949  40.972  40.985  41.053  41.104
 41.205  41.246
 
 Beta MOs
 -- Occupied --
-10.304 -10.304 -10.300 -10.300 -10.271 -10.271  -1.191  -1.076
 -1.071  -0.928  -0.925  -0.849  -0.777  -0.769  -0.744  -0.730
 -0.680  -0.656  -0.653  -0.570
 -- Virtual --
 -0.343  -0.139  -0.138  -0.092  -0.072  -0.069  -0.047  -0.047
 -0.035  -0.031  -0.011  -0.002   0.000   0.014   0.020   0.023
  0.036   0.036   0.037   0.040   0.051   0.051   0.054   0.054
  0.074   0.077   0.096   0.107   0.111   0.111   0.132   0.132
  0.134   0.174   0.175   0.177   0.179   0.187   0.208   0.254
  0.254   0.254   0.260   0.305   0.327   0.332   0.414   0.415
  0.418   0.420   0.424   0.425   0.426   0.430   0.431   0.435
  0.498   0.500   0.514   0.534   0.550   0.553   0.554   0.556
  0.559   0.563   0.565   0.566   0.645   0.649   0.667   0.668
  0.679   0.684   0.692   0.692   0.701   0.707   0.707   0.818
  0.876   0.881   0.913   0.917   0.918   0.960   0.970   0.973
  1.040   1.068   1.074   1.088   1.091   1.097   1.160   1.160
  1.173   1.177   1.179   1.224   1.225   1.246   1.249   1.254
  1.257   1.303   1.316   1.377   1.381   1.387   1.466   1.467
  1.586   1.602   1.610   1.630   1.632   1.741   1.855   1.860
  1.872   1.872   1.968   2.297   2.356   2.369   2.388   2.428
  2.436   2.500   2.502   2.532   2.538   2.570   2.588   2.591
  2.608   2.631   2.633   2.636   2.677   2.677   2.679   2.691
  2.697   2.708   2.713   2.761   2.768   2.773   2.910   2.939
  2.943   2.944   2.948   2.964   3.003   3.007   3.024   3.034
  3.036   3.040   3.116   3.144   3.145   3.168   3.171   3.182
  3.188   3.210   3.217   3.250   3.256   3.258   3.269   3.355
  3.359   3.423   3.430   3.455   3.534   3.550   3.577   3.581
  3.621   3.649   3.652   3.690   3.691   3.701   3.704   3.752
  3.756   3.774   3.803   3.829   3.897   3.927   3.930   3.976
  3.987   4.037   4.074   4.075   4.222   4.222   4.229   4.275
  4.279   4.309   4.322   4.323   4.328   4.334   4.336   4.456
  4.509   4.511   4.578   4.581   4.586   4.836   4.912   4.913
  4.949   4.950   4.964   5.031   5.208   5.210   5.585   5.586
  5.635   5.636   5.646   6.106   6.346  23.374  23.957  23.974
 24.273  24.292  24.823  26.900  27.044  27.061  27.142  27.159
 27.398  27.630  27.763  27.767  27.922  27.932  27.934  28.162
 28.166  28.239  28.241  28.293  28.776  40.551  40.588  40.615
 40.639  40.665  40.707  40.734  40.776  40.784  40.822  40.829
 40.830  40.862  40.870  40.873  40.877  40.908  40.913  40.915
 40.921  40.925  40.932  40.934  40.951  40.973  40.986  41.054
 41.105  41.205  41.246
 --------------------------------------------------------------
 
          Ground-State Mulliken Net Atomic Charges

     Atom                 Charge (a.u.)    Spin (a.u.)
  --------------------------------------------------------
      1 C                    -0.134349      -0.128513
      2 C                    -0.015297       0.293511
      3 C                     0.003565       0.355806
      4 C                    -0.134150      -0.128545
      5 C                    -0.015221       0.293501
      6 C                     0.003553       0.355779
      7 H                     0.204449       0.001383
      8 H                     0.219633      -0.010321
      9 H                     0.221915      -0.011824
     10 H                     0.204435       0.001389
     11 H                     0.219590      -0.010323
     12 H                     0.221879      -0.011844
  --------------------------------------------------------
  Sum of atomic charges =     1.000000
  Sum of spin   charges =     1.000000

 -----------------------------------------------------------------
                    Cartesian Multipole Moments
 -----------------------------------------------------------------
    Charge (ESU x 10^10)
                 4.8032
    Dipole Moment (Debye)
         X       0.0000      Y       0.0000      Z       0.0000
       Tot       0.0000
    Quadrupole Moments (Debye-Ang)
        XX     -17.9923     XY       0.0006     YY     -34.8769
        XZ      -0.2137     YZ       0.0000     ZZ     -21.5201
    Octapole Moments (Debye-Ang^2)
       XXX       0.0000    XXY       0.0000    XYY       0.0000
       YYY       0.0000    XXZ       0.0000    XYZ       0.0000
       YYZ       0.0000    XZZ       0.0000    YZZ       0.0000
       ZZZ       0.0000
    Hexadecapole Moments (Debye-Ang^3)
      XXXX    -197.4112   XXXY       0.0040   XXYY     -52.0164
      XYYY       0.0009   YYYY     -35.7849   XXXZ      -0.5571
      XXYZ      -0.0011   XYYZ      -0.2203   YYYZ      -0.0001
      XXZZ     -66.7907   XYZZ       0.0032   YYZZ     -55.5939
      XZZZ      -0.3135   YZZZ       0.0007   ZZZZ    -212.1868
 -----------------------------------------------------------------
 Total job time:  434.54s(wall), 430.84s(cpu) 
 Wed May 22 11:57:15 2013

        *************************************************************
        *                                                           *
        *  Thank you very much for using Q-Chem.  Have a nice day.  *
        *                                                           *
        *************************************************************


0 sent ACK to 0 
now end server 0 ... 
