Process 0 of 1 is on cl195.stfx.acenet.ca - thread support 1
initial socket setup ...start
initial socket setup ...done 
now start server 0 ... 

cmd = /usr/bin/ssh clhead /usr/local/qchem/bin/get_hostid 416145265 > /scratch/tmp/6064177.1.medium.q/qchem24400/lic.dat
                  Welcome to Q-Chem
     A Quantum Leap Into The Future Of Chemistry

 Y. Shao, L. Fusti-Molnar, Y. Jung, J. Kussmann, C. Ochsenfeld,
 S. T. Brown, A. T. B. Gilbert, L. V. Slipchenko,S. V. Levchenko,
 D. P. O'Neill, R. A. DiStasio Jr., R. C. Lochan, T. Wang,
 G. J. O. Beran, N. A. Besley, J. M. Herbert, C. Y. Lin,
 T. Van Voorhis, S. H. Chien, A. Sodt, R. P. Steele, 
 V. A. Rassolov, P. E. Maslen, P. P. Korambath, R. D. Adamson,
 B. Austin, J. Baker, E. F. C. Byrd, H. Dachsel, R. J. Doerksen,
 A. Dreuw, B. D. Dunietz, A. D. Dutoi, T. R. Furlani,
 S. R. Gwaltney, A. Heyden, S. Hirata, C.-P. Hsu, G. Kedziora,
 R. Z. Khaliullin, P. Klunzinger, A. M. Lee, M. S. Lee, W. Liang,
 I. Lotan, N. Nair, B. Peters, E. I. Proynov, P. A. Pieniazek, 
 Y. M. Rhee, J. Ritchie, E. Rosta, C. D. Sherrill, 
 A. C. Simmonett, J. E. Subotnik, H. L. Woodcock III,
 W. Zhang, A. T. Bell, A. K. Chakraborty, D. M. Chipman,
 F. J. Keil, A. Warshel, W. J. Hehre, H. F. Schaefer III,
 J. Kong, A. I. Krylov, P. M. W. Gill, M. Head-Gordon,
 Q-Chem, Version 3.1, Q-Chem, Inc., Pittsburgh, PA (2007).

 Additional authors for Version 3.1: 
 Z. Gan, Y. Zhao, N. E. Schultz, D. Truhlar, E. Epifanovsky and M. Oana.

 Additional authors for Version 3.2: 
 R. Baer, B. R. Brooks, D. Casanova, J.-D. Chai, C.-L. Cheng, 
 C. Cramer, D. Crittenden, A. Ghysels, G. Hawkins, E. G. Hohenstein, 
 C. Kelley, W. Kurlancheek, D. Liotard, E. Livshits, P. Manohar, 
 A. Marenich, D. Neuhauser, R. Olson, M. A. Rohrdanz, K. S. Thanthiriwatte, 
 A. J. W. Thom, V. Vanovschi, C. F. Williams, Q. Wu and Z.-Q. You. 


 Intel X86 Linux Version

 Q-chem begins on Sun Jul  7 11:17:33 2013  

 Parallel job on  1  processors
Processing $rem in /usr/local/qchem/config/preferences.

theFileMan(): MAXOPENFILES=974 MAX_SUB_FILE_NUM=16
Maximum size of a physical file is 2.0 GB, maximum size of a tmp-file is 32.0 GB


--------------------------------------------------------------
User input:
--------------------------------------------------------------

$molecule
0,2
N          0.00399        0.00000        0.00166
O          0.00042        0.00000        1.19663
O          0.86345        0.00000       -0.82843
$end

$comment
neutral
$end

$xc_functional
C PBE   1.00
X wPBE  1.00
$end


$rem
SYMMETRY_DECOMPOSITION	0
LRC_DFT                 true
exchange 		general
BASIS                   g3large
omega			230 
JOBTYPE                 opt
mem_static              760
max_scf_cycles          200
scf_final_print         1
sym_ignore              true
$end


--------------------------------------------------------------
 Writing REM_CC_EA            3
 ----------------------------------------------------
       Standard Nuclear Orientation (Angstroms)
    I     Atom         X            Y            Z
 ----------------------------------------------------
    1      N       0.003990     0.000000     0.001660
    2      O       0.000420     0.000000     1.196630
    3      O       0.863450     0.000000    -0.828430
 ----------------------------------------------------
 Nuclear Repulsion Energy =    64.9848850742 hartrees
 There are       12 alpha and       11 beta electrons
 Requested basis set is G3large
 There are 30 shells and 126 basis functions

Total QAlloc Memory Limit   2000 MB
Mega-Array Size       743 MB
MEM_STATIC part       760 MB
 A cutoff of  1.0D-11 yielded    438 shell pairs
 There are   7874 function pairs ( 10341 Cartesian)
Evaluating contribution to one-electron hamiltonian from nuclear
 Smallest overlap matrix eigenvalue = 1.55E-03
 Multipole matrices computed through 2nd order

  Scale SEOQF with 1.000000e-01/1.000000e-01/1.000000e-01

 Standard Electronic Orientation quadrupole field applied
 Nucleus-field energy     =    -0.0000000016 hartrees
 Guess from superposition of atomic densities
 Warning:  Energy on first SCF cycle will be non-variational
 Long-range K will be added via erf
 Coulomb attenuation parameter = 0.23 bohr**(-1)
 An unrestricted Kohn-Sham SCF calculation will be
 performed using Pulay DIIS extrapolation
 Exchange:  wPBE + LR-HF      Correlation:  PBE
 Using SG-1 standard quadrature grid
 SCF converges when DIIS error is below 1.0E-08
 Requested basis set is G3large
 There are 30 shells and 126 basis functions
 A cutoff of  1.0D-11 yielded    438 shell pairs
 There are   7874 function pairs ( 10341 Cartesian)
 ---------------------------------------
  Cycle       Energy         DIIS Error
 ---------------------------------------
    1    -205.6407320571      4.61E-02
    2    -204.8452975657      9.90E-03
    3    -204.6581682193      1.61E-02
    4    -204.9902371927      7.49E-04
    5    -204.9908917153      2.36E-04
    6    -204.9909875393      1.55E-04
    7    -204.9910234083      6.99E-05
    8    -204.9910397458      2.43E-05
    9    -204.9910455034      1.00E-05
   10    -204.9910472450      4.96E-06
   11    -204.9910476790      1.70E-06
   12    -204.9910477857      3.45E-07
   13    -204.9910477915      5.45E-08
   14    -204.9910477910      1.51E-08
   15    -204.9910477959      6.73E-09 Convergence criterion met
 ---------------------------------------
 One-Electron    Energy =  -408.7607513033
 Total Coulomb   Energy =   162.5657055472
 Alpha Exchange  Energy =    -1.5001805578
 Beta  Exchange  Energy =    -1.3704067989
 DFT   Exchange  Energy =   -20.1315130793
 DFT Correlation Energy =    -0.7787866763
 Nuclear Repu.   Energy =    64.9848850726
 Nuclear Attr.   Energy =  -613.3039890626
 Kinetic         Energy =   204.5432377593
 <S^2> = 0.7523
 SCF time:  CPU 48.41 s  wall 50.36 s
 Final Alpha MO Eigenvalues
            1           2           3           4           5           6
    1 -18.9867376 -18.9866930 -14.3504332  -1.3302508  -1.1880264  -0.7392961
            7           8           9          10          11          12
    1  -0.6490639  -0.6475933  -0.6421984  -0.4569612  -0.4525412  -0.3570925
           13          14          15          16          17
    1  -0.0281863   0.0886241   0.1273547   0.1405599   0.1431871
 Final Beta MO Eigenvalues
            1           2           3           4           5           6
    1 -18.9790636 -18.9790159 -14.3414336  -1.3160588  -1.1718133  -0.7128972
            7           8           9          10          11          12
    1  -0.6389734  -0.6241007  -0.6132123  -0.4504781  -0.4213051  -0.0853484
           13          14          15          16
    1  -0.0131904   0.0945330   0.1293184   0.1453881
 Analysis of SCF Wavefunction
 
 --------------------------------------------------------------
                    Orbital Energies (a.u.)
 --------------------------------------------------------------
 
 Alpha MOs
 -- Occupied --
-18.987 -18.987 -14.350  -1.330  -1.188  -0.739  -0.649  -0.648
 -0.642  -0.457  -0.453  -0.357
 -- Virtual --
 -0.028   0.089   0.127   0.141   0.143   0.222   0.235   0.250
  0.261   0.283   0.312   0.312   0.374   0.421   0.488   0.740
  0.756   0.803   0.888   0.946   0.990   1.022   1.043   1.043
  1.093   1.101   1.110   1.116   1.422   1.486   1.518   1.548
  1.552   1.592   1.678   1.847   2.033   2.177   2.267   2.402
  2.423   2.568   3.431   3.448   3.562   3.599   3.617   3.679
  3.932   3.935   4.306   4.323   4.391   4.456   4.538   4.586
  4.650   4.870   4.880   4.897   4.946   4.962   4.992   4.995
  5.011   5.218   5.332   5.401   5.419   5.460   5.616   6.052
  6.356   6.640   6.646   6.662   6.690   6.803   6.908   6.979
  7.046   7.069   7.130   7.311   7.515   7.681   8.005  35.686
 37.126  37.297  38.168  40.168  40.259  40.337  40.464  40.565
 43.464  43.479  43.523  43.529  43.567  43.635  43.636  43.663
 43.755  43.813  45.474  45.491  45.502  45.627  46.121  46.464
 49.829  49.895
 
 Beta MOs
 -- Occupied --
-18.979 -18.979 -14.341  -1.316  -1.172  -0.713  -0.639  -0.624
 -0.613  -0.450  -0.421
 -- Virtual --
 -0.085  -0.013   0.095   0.129   0.145   0.146   0.227   0.238
  0.251   0.267   0.285   0.314   0.321   0.379   0.425   0.513
  0.763   0.765   0.808   0.905   0.963   0.999   1.041   1.047
  1.052   1.106   1.110   1.120   1.124   1.434   1.494   1.528
  1.558   1.572   1.612   1.687   1.862   2.038   2.202   2.280
  2.414   2.433   2.593   3.461   3.476   3.577   3.624   3.640
  3.687   3.944   3.950   4.331   4.334   4.403   4.467   4.575
  4.627   4.687   4.886   4.893   4.912   4.963   4.971   5.013
  5.016   5.038   5.238   5.353   5.410   5.437   5.477   5.629
  6.082   6.364   6.662   6.672   6.694   6.717   6.816   6.941
  6.992   7.051   7.084   7.143   7.339   7.530   7.699   8.033
 35.696  37.133  37.321  38.174  40.186  40.276  40.338  40.475
 40.575  43.479  43.493  43.534  43.547  43.587  43.637  43.645
 43.683  43.767  43.826  45.490  45.496  45.507  45.647  46.133
 46.473  49.836  49.903
 --------------------------------------------------------------
 
          Ground-State Mulliken Net Atomic Charges

     Atom                 Charge (a.u.)    Spin (a.u.)
  --------------------------------------------------------
      1 N                    -0.000910       0.469051
      2 O                     0.000461       0.265460
      3 O                     0.000449       0.265489
  --------------------------------------------------------
  Sum of atomic charges =     0.000000
  Sum of spin   charges =     1.000000

 -----------------------------------------------------------------
                    Cartesian Multipole Moments
 -----------------------------------------------------------------
    Charge (ESU x 10^10)
                 0.0000
    Dipole Moment (Debye)
         X      -0.2880      Y       0.0000      Z      -0.1233
       Tot       0.3133
    Quadrupole Moments (Debye-Ang)
        XX     -16.3056     XY       0.0000     YY     -14.9718
        XZ       0.6948     YZ       0.0000     ZZ     -17.6398
    Octapole Moments (Debye-Ang^2)
       XXX     -13.9916    XXY       0.0000    XYY      -4.3942
       YYY       0.0000    XXZ      -1.6793    XYZ       0.0000
       YYZ      -1.8731    XZZ      -4.8286    YZZ       0.0000
       ZZZ      -6.3430
    Hexadecapole Moments (Debye-Ang^3)
      XXXX     -37.3423   XXXY       0.0000   XXYY      -8.0562
      XYYY       0.0000   YYYY     -11.7893   XXXZ      11.4555
      XXYZ       0.0000   XYYZ       3.7974   YYYZ       0.0000
      XXZZ     -19.8643   XYZZ       0.0000   YYZZ     -15.3488
      XZZZ      11.6969   YZZZ       0.0000   ZZZZ     -81.8032
 -----------------------------------------------------------------
 Calculating analytic gradient of the SCF energy
 Gradient of AOints
            1           2           3
    1   9.7848703   1.4424926 -11.2273629
    2   0.0000003   0.0000003  -0.0000006
    3   4.1687135 -16.9490981  12.7803846
 Gradient of XC Energy
            1           2           3
    1  -0.3744149  -0.0053634   0.3797784
    2  -0.0000000  -0.0000000   0.0000000
    3  -0.1593828   0.5314976  -0.3721148
 Gradient of SCF Energy
            1           2           3
    1  -0.0000802   0.0000452   0.0000350
    2  -0.0000000   0.0000000   0.0000000
    3  -0.0000486   0.0000279   0.0000207
 Max gradient component =       8.022E-05
 RMS gradient           =       3.840E-05
 Gradient time:  CPU 14.70 s  wall 15.13 s
 Geometry Optimization Parameters
   NAtoms,    NIC,     NZ,  NCons,   NDum,   NFix, NCnnct, MaxDiis
        3       9       0       0       0       0       0       0


** GEOMETRY OPTIMIZATION IN DELOCALIZED INTERNAL COORDINATES **
   Searching for a Minimum

   Optimization Cycle:   1

                       Coordinates (Angstroms)
     ATOM              X           Y           Z
    1  N           0.003990    0.000000    0.001660
    2  O           0.000420    0.000000    1.196630
    3  O           0.863450    0.000000   -0.828430
   Point Group: c1    Number of degrees of freedom:   3


   Energy is   -204.991047796


 Attempting to Generate Delocalized Internal Coordinates

  3 Hessian modes will be used to form the next step
  Hessian Eigenvalues:
     0.250000    1.073889    1.074422

 Minimum Search - Taking Simple RFO Step
 Searching for Lamda that Minimizes Along All modes
 Value Taken    Lamda =   0.00000000
 Step Taken.  Stepsize is  0.000383

                             Maximum     Tolerance    Cnvgd?
         Gradient           0.000080      0.000300     YES
         Displacement       0.000288      0.001200     YES
         Energy change     *********      0.000001      NO


                       Distance Matrix (Angstroms)
             N (  1)   O (  2)
   O (  2)  1.194975
   O (  3)  1.194873  2.201293
 


 ******************************
 **  OPTIMIZATION CONVERGED  **
 ******************************
 Analysis of SCF Wavefunction
 
 --------------------------------------------------------------
                    Orbital Energies (a.u.)
 --------------------------------------------------------------
 
 Alpha MOs
 -- Occupied --
-18.987 -18.987 -14.350  -1.330  -1.188  -0.739  -0.649  -0.648
 -0.642  -0.457  -0.453  -0.357
 -- Virtual --
 -0.028   0.089   0.127   0.141   0.143   0.222   0.235   0.250
  0.261   0.283   0.312   0.312   0.374   0.421   0.488   0.740
  0.756   0.803   0.888   0.946   0.990   1.022   1.043   1.043
  1.093   1.101   1.110   1.116   1.422   1.486   1.518   1.548
  1.552   1.592   1.678   1.847   2.033   2.177   2.267   2.402
  2.423   2.568   3.431   3.448   3.562   3.599   3.617   3.679
  3.932   3.935   4.306   4.323   4.391   4.456   4.538   4.586
  4.650   4.870   4.880   4.897   4.946   4.962   4.992   4.995
  5.011   5.218   5.332   5.401   5.419   5.460   5.616   6.052
  6.356   6.640   6.646   6.662   6.690   6.803   6.908   6.979
  7.046   7.069   7.130   7.311   7.515   7.681   8.005  35.686
 37.126  37.297  38.168  40.168  40.259  40.337  40.464  40.565
 43.464  43.479  43.523  43.529  43.567  43.635  43.636  43.663
 43.755  43.813  45.474  45.491  45.502  45.627  46.121  46.464
 49.829  49.895
 
 Beta MOs
 -- Occupied --
-18.979 -18.979 -14.341  -1.316  -1.172  -0.713  -0.639  -0.624
 -0.613  -0.450  -0.421
 -- Virtual --
 -0.085  -0.013   0.095   0.129   0.145   0.146   0.227   0.238
  0.251   0.267   0.285   0.314   0.321   0.379   0.425   0.513
  0.763   0.765   0.808   0.905   0.963   0.999   1.041   1.047
  1.052   1.106   1.110   1.120   1.124   1.434   1.494   1.528
  1.558   1.572   1.612   1.687   1.862   2.038   2.202   2.280
  2.414   2.433   2.593   3.461   3.476   3.577   3.624   3.640
  3.687   3.944   3.950   4.331   4.334   4.403   4.467   4.575
  4.627   4.687   4.886   4.893   4.912   4.963   4.971   5.013
  5.016   5.038   5.238   5.353   5.410   5.437   5.477   5.629
  6.082   6.364   6.662   6.672   6.694   6.717   6.816   6.941
  6.992   7.051   7.084   7.143   7.339   7.530   7.699   8.033
 35.696  37.133  37.321  38.174  40.186  40.276  40.338  40.475
 40.575  43.479  43.493  43.534  43.547  43.587  43.637  43.645
 43.683  43.767  43.826  45.490  45.496  45.507  45.647  46.133
 46.473  49.836  49.903
 --------------------------------------------------------------
 
          Ground-State Mulliken Net Atomic Charges

     Atom                 Charge (a.u.)    Spin (a.u.)
  --------------------------------------------------------
      1 N                    -0.000910       0.469051
      2 O                     0.000461       0.265460
      3 O                     0.000449       0.265489
  --------------------------------------------------------
  Sum of atomic charges =     0.000000
  Sum of spin   charges =     1.000000

 -----------------------------------------------------------------
                    Cartesian Multipole Moments
 -----------------------------------------------------------------
    Charge (ESU x 10^10)
                 0.0000
    Dipole Moment (Debye)
         X      -0.2880      Y       0.0000      Z      -0.1233
       Tot       0.3133
    Quadrupole Moments (Debye-Ang)
        XX     -16.3056     XY       0.0000     YY     -14.9718
        XZ       0.6948     YZ       0.0000     ZZ     -17.6398
    Octapole Moments (Debye-Ang^2)
       XXX     -13.9916    XXY       0.0000    XYY      -4.3942
       YYY       0.0000    XXZ      -1.6793    XYZ       0.0000
       YYZ      -1.8731    XZZ      -4.8286    YZZ       0.0000
       ZZZ      -6.3430
    Hexadecapole Moments (Debye-Ang^3)
      XXXX     -37.3423   XXXY       0.0000   XXYY      -8.0562
      XYYY       0.0000   YYYY     -11.7893   XXXZ      11.4555
      XXYZ       0.0000   XYYZ       3.7974   YYYZ       0.0000
      XXZZ     -19.8643   XYZZ       0.0000   YYZZ     -15.3488
      XZZZ      11.6969   YZZZ       0.0000   ZZZZ     -81.8032
 -----------------------------------------------------------------
 Total job time:  65.67s(wall), 63.27s(cpu) 
 Sun Jul  7 11:18:39 2013

        *************************************************************
        *                                                           *
        *  Thank you very much for using Q-Chem.  Have a nice day.  *
        *                                                           *
        *************************************************************


0 sent ACK to 0 
now end server 0 ... 
 
**********************************************************************
Job 2 of 2 
**********************************************************************
 
Process 0 of 1 is on cl195.stfx.acenet.ca - thread support 1
initial socket setup ...start
initial socket setup ...done 
now start server 0 ... 

cmd = /usr/bin/ssh clhead /usr/local/qchem/bin/get_hostid 150176950 > /scratch/tmp/6064177.1.medium.q/qchem24400/lic.dat
                  Welcome to Q-Chem
     A Quantum Leap Into The Future Of Chemistry

 Y. Shao, L. Fusti-Molnar, Y. Jung, J. Kussmann, C. Ochsenfeld,
 S. T. Brown, A. T. B. Gilbert, L. V. Slipchenko,S. V. Levchenko,
 D. P. O'Neill, R. A. DiStasio Jr., R. C. Lochan, T. Wang,
 G. J. O. Beran, N. A. Besley, J. M. Herbert, C. Y. Lin,
 T. Van Voorhis, S. H. Chien, A. Sodt, R. P. Steele, 
 V. A. Rassolov, P. E. Maslen, P. P. Korambath, R. D. Adamson,
 B. Austin, J. Baker, E. F. C. Byrd, H. Dachsel, R. J. Doerksen,
 A. Dreuw, B. D. Dunietz, A. D. Dutoi, T. R. Furlani,
 S. R. Gwaltney, A. Heyden, S. Hirata, C.-P. Hsu, G. Kedziora,
 R. Z. Khaliullin, P. Klunzinger, A. M. Lee, M. S. Lee, W. Liang,
 I. Lotan, N. Nair, B. Peters, E. I. Proynov, P. A. Pieniazek, 
 Y. M. Rhee, J. Ritchie, E. Rosta, C. D. Sherrill, 
 A. C. Simmonett, J. E. Subotnik, H. L. Woodcock III,
 W. Zhang, A. T. Bell, A. K. Chakraborty, D. M. Chipman,
 F. J. Keil, A. Warshel, W. J. Hehre, H. F. Schaefer III,
 J. Kong, A. I. Krylov, P. M. W. Gill, M. Head-Gordon,
 Q-Chem, Version 3.1, Q-Chem, Inc., Pittsburgh, PA (2007).

 Additional authors for Version 3.1: 
 Z. Gan, Y. Zhao, N. E. Schultz, D. Truhlar, E. Epifanovsky and M. Oana.

 Additional authors for Version 3.2: 
 R. Baer, B. R. Brooks, D. Casanova, J.-D. Chai, C.-L. Cheng, 
 C. Cramer, D. Crittenden, A. Ghysels, G. Hawkins, E. G. Hohenstein, 
 C. Kelley, W. Kurlancheek, D. Liotard, E. Livshits, P. Manohar, 
 A. Marenich, D. Neuhauser, R. Olson, M. A. Rohrdanz, K. S. Thanthiriwatte, 
 A. J. W. Thom, V. Vanovschi, C. F. Williams, Q. Wu and Z.-Q. You. 


 Intel X86 Linux Version

 Q-chem begins on Sun Jul  7 11:18:42 2013  

 Parallel job on  1  processors
Processing $rem in /usr/local/qchem/config/preferences.

theFileMan(): MAXOPENFILES=974 MAX_SUB_FILE_NUM=16
Maximum size of a physical file is 2.0 GB, maximum size of a tmp-file is 32.0 GB


--------------------------------------------------------------
User input:
--------------------------------------------------------------

$molecule 
READ 
$end 

$xc_functional
C PBE   1.00
X wPBE  1.00
$end


$rem
SYMMETRY_DECOMPOSITION	0
LRC_DFT                 true
exchange 		general
BASIS                   g3large
omega			230 
JOBTYPE                 freq
IDERIV 1
SCF_GUESS READ
mem_static              760
max_scf_cycles          200
scf_final_print         1
sym_ignore              true
$end

--------------------------------------------------------------
 Writing REM_CC_EA            3
 ----------------------------------------------------
       Standard Nuclear Orientation (Angstroms)
    I     Atom         X            Y            Z
 ----------------------------------------------------
    1      N       0.003990     0.000000     0.001660
    2      O       0.000420     0.000000     1.196630
    3      O       0.863450     0.000000    -0.828430
 ----------------------------------------------------
 Nuclear Repulsion Energy =    64.9848850742 hartrees
 There are       12 alpha and       11 beta electrons
 Requested basis set is G3large
 There are 30 shells and 126 basis functions

Total QAlloc Memory Limit   2000 MB
Mega-Array Size       759 MB
MEM_STATIC part       760 MB

                       Distance Matrix (Angstroms)
             N (  1)   O (  2)
   O (  2)  1.194975
   O (  3)  1.194873  2.201293
 
 A cutoff of  1.0D-11 yielded    438 shell pairs
 There are   7874 function pairs ( 10341 Cartesian)
Evaluating contribution to one-electron hamiltonian from nuclear
 Smallest overlap matrix eigenvalue = 1.55E-03
 Multipole matrices computed through 2nd order
 Guess MOs from SCF MO coefficient file
Reading MOs from coefficient file
Reading MOs from coefficient file
 Long-range K will be added via erf
 Coulomb attenuation parameter = 0.23 bohr**(-1)
 An unrestricted Kohn-Sham SCF calculation will be
 performed using Pulay DIIS extrapolation
 Exchange:  wPBE + LR-HF      Correlation:  PBE
 Using SG-1 standard quadrature grid
 SCF converges when DIIS error is below 1.0E-08
 ---------------------------------------
  Cycle       Energy         DIIS Error
 ---------------------------------------
    1    -204.9910478032      3.77E-09
    2    -204.9910478033      4.47E-09 Convergence criterion met
 ---------------------------------------
 One-Electron    Energy =  -408.7607511962
 Total Coulomb   Energy =   162.5657054230
 Alpha Exchange  Energy =    -1.5001805847
 Beta  Exchange  Energy =    -1.3704067683
 DFT   Exchange  Energy =   -20.1315130728
 DFT Correlation Energy =    -0.7787866785
 Nuclear Repu.   Energy =    64.9848850742
 Nuclear Attr.   Energy =  -613.3039890864
 Kinetic         Energy =   204.5432378902
 <S^2> = 0.7523
 SCF time:  CPU 6.88 s  wall 7.00 s
 Final Alpha MO Eigenvalues
            1           2           3           4           5           6
    1 -18.9867374 -18.9866932 -14.3504331  -1.3302508  -1.1880264  -0.7392961
            7           8           9          10          11          12
    1  -0.6490639  -0.6475933  -0.6421984  -0.4569613  -0.4525413  -0.3570925
           13          14          15          16          17
    1  -0.0281862   0.0886241   0.1273547   0.1405599   0.1431871
 Final Beta MO Eigenvalues
            1           2           3           4           5           6
    1 -18.9790638 -18.9790158 -14.3414336  -1.3160588  -1.1718132  -0.7128972
            7           8           9          10          11          12
    1  -0.6389735  -0.6241007  -0.6132123  -0.4504781  -0.4213051  -0.0853484
           13          14          15          16
    1  -0.0131905   0.0945330   0.1293184   0.1453881
 Analysis of SCF Wavefunction
 
 --------------------------------------------------------------
                    Orbital Energies (a.u.)
 --------------------------------------------------------------
 
 Alpha MOs
 -- Occupied --
-18.987 -18.987 -14.350  -1.330  -1.188  -0.739  -0.649  -0.648
 -0.642  -0.457  -0.453  -0.357
 -- Virtual --
 -0.028   0.089   0.127   0.141   0.143   0.222   0.235   0.250
  0.261   0.283   0.312   0.312   0.374   0.421   0.488   0.740
  0.756   0.803   0.888   0.946   0.990   1.022   1.043   1.043
  1.093   1.101   1.110   1.116   1.422   1.486   1.518   1.548
  1.552   1.592   1.678   1.847   2.033   2.177   2.267   2.402
  2.423   2.568   3.431   3.448   3.562   3.599   3.617   3.679
  3.932   3.935   4.306   4.323   4.391   4.456   4.538   4.586
  4.650   4.870   4.880   4.897   4.946   4.962   4.992   4.995
  5.011   5.218   5.332   5.401   5.419   5.460   5.616   6.052
  6.356   6.640   6.646   6.662   6.690   6.803   6.908   6.979
  7.046   7.069   7.130   7.311   7.515   7.681   8.005  35.686
 37.126  37.297  38.168  40.168  40.259  40.337  40.464  40.565
 43.464  43.479  43.523  43.529  43.567  43.635  43.636  43.663
 43.755  43.813  45.474  45.491  45.502  45.627  46.121  46.464
 49.829  49.895
 
 Beta MOs
 -- Occupied --
-18.979 -18.979 -14.341  -1.316  -1.172  -0.713  -0.639  -0.624
 -0.613  -0.450  -0.421
 -- Virtual --
 -0.085  -0.013   0.095   0.129   0.145   0.146   0.227   0.238
  0.251   0.267   0.285   0.314   0.321   0.379   0.425   0.513
  0.763   0.765   0.808   0.905   0.963   0.999   1.041   1.047
  1.052   1.106   1.110   1.120   1.124   1.434   1.494   1.528
  1.558   1.572   1.612   1.687   1.862   2.038   2.202   2.280
  2.414   2.433   2.593   3.461   3.476   3.577   3.624   3.640
  3.687   3.944   3.950   4.331   4.334   4.403   4.467   4.575
  4.627   4.687   4.886   4.893   4.912   4.963   4.971   5.013
  5.016   5.038   5.238   5.353   5.410   5.437   5.477   5.629
  6.082   6.364   6.662   6.672   6.694   6.717   6.816   6.941
  6.992   7.051   7.084   7.143   7.339   7.530   7.699   8.033
 35.696  37.133  37.321  38.174  40.186  40.276  40.338  40.475
 40.575  43.479  43.493  43.534  43.547  43.587  43.637  43.645
 43.683  43.767  43.826  45.490  45.496  45.507  45.647  46.133
 46.473  49.836  49.903
 --------------------------------------------------------------
 
          Ground-State Mulliken Net Atomic Charges

     Atom                 Charge (a.u.)    Spin (a.u.)
  --------------------------------------------------------
      1 N                    -0.000910       0.469050
      2 O                     0.000461       0.265471
      3 O                     0.000449       0.265479
  --------------------------------------------------------
  Sum of atomic charges =     0.000000
  Sum of spin   charges =     1.000000

 -----------------------------------------------------------------
                    Cartesian Multipole Moments
 -----------------------------------------------------------------
    Charge (ESU x 10^10)
                 0.0000
    Dipole Moment (Debye)
         X      -0.2880      Y       0.0000      Z      -0.1233
       Tot       0.3133
    Quadrupole Moments (Debye-Ang)
        XX     -16.3056     XY       0.0000     YY     -14.9718
        XZ       0.6948     YZ       0.0000     ZZ     -17.6398
    Octapole Moments (Debye-Ang^2)
       XXX     -13.9916    XXY       0.0000    XYY      -4.3942
       YYY       0.0000    XXZ      -1.6793    XYZ       0.0000
       YYZ      -1.8731    XZZ      -4.8286    YZZ       0.0000
       ZZZ      -6.3429
    Hexadecapole Moments (Debye-Ang^3)
      XXXX     -37.3423   XXXY       0.0000   XXYY      -8.0562
      XYYY       0.0000   YYYY     -11.7893   XXXZ      11.4555
      XXYZ       0.0000   XYYZ       3.7974   YYYZ       0.0000
      XXZZ     -19.8643   XYZZ       0.0000   YYZZ     -15.3488
      XZZZ      11.6969   YZZZ       0.0000   ZZZZ     -81.8032
 -----------------------------------------------------------------
 Calculating analytic gradient of the SCF energy
 Gradient of AOints
            1           2           3
    1   9.7848695   1.4424930 -11.2273625
    2   0.0000002   0.0000002  -0.0000003
    3   4.1687145 -16.9490985  12.7803840
 Gradient of XC Energy
            1           2           3
    1  -0.3744149  -0.0053634   0.3797784
    2  -0.0000000  -0.0000000   0.0000000
    3  -0.1593828   0.5314975  -0.3721148
 Gradient of SCF Energy
            1           2           3
    1  -0.0000802   0.0000452   0.0000350
    2  -0.0000000   0.0000000   0.0000000
    3  -0.0000486   0.0000279   0.0000207
 Max gradient component =       8.021E-05
 RMS gradient           =       3.840E-05
 Gradient time:  CPU 14.80 s  wall 14.87 s
 ######################################################
 ######################################################
 # Starting finite difference calculation for IDERIV  #
 Finite diff step size: 1.89e-03 a.u.
 Writing REM_CC_EA            3
 ----------------------------------------------------
       Standard Nuclear Orientation (Angstroms)
    I     Atom         X            Y            Z
 ----------------------------------------------------
    1      N       0.004990     0.000000     0.001660
    2      O       0.000420     0.000000     1.196630
    3      O       0.863450     0.000000    -0.828430
 ----------------------------------------------------
 Nuclear Repulsion Energy =    64.9997488440 hartrees
 There are       12 alpha and       11 beta electrons

                       Distance Matrix (Angstroms)
             N (  1)   O (  2)
   O (  2)  1.194979
   O (  3)  1.194154  2.201293
 
 Requested basis set is G3large
 There are 30 shells and 126 basis functions
 A cutoff of  1.0D-11 yielded    438 shell pairs
 There are   7874 function pairs ( 10341 Cartesian)
Evaluating contribution to one-electron hamiltonian from nuclear
 Smallest overlap matrix eigenvalue = 1.54E-03
 Multipole matrices computed through 2nd order
 Guess MOs from SCF MO coefficient file
Reading MOs from coefficient file
Reading MOs from coefficient file
 Long-range K will be added via erf
 Coulomb attenuation parameter = 0.23 bohr**(-1)
 An unrestricted Kohn-Sham SCF calculation will be
 performed using Pulay DIIS extrapolation
 Exchange:  wPBE + LR-HF      Correlation:  PBE
 Using SG-1 standard quadrature grid
 SCF converges when DIIS error is below 1.0E-08
 ---------------------------------------
  Cycle       Energy         DIIS Error
 ---------------------------------------
    1    -204.9914391644      5.91E-05
    2    -204.9910466398      1.63E-05
    3    -204.9910456563      3.05E-05
    4    -204.9910469336      3.06E-06
    5    -204.9910470391      6.44E-07
    6    -204.9910470140      4.14E-07
    7    -204.9910469618      2.37E-07
    8    -204.9910469656      3.91E-08
    9    -204.9910469648      1.91E-08
   10    -204.9910469653      6.42E-09 Convergence criterion met
 ---------------------------------------
 One-Electron    Energy =  -408.7888135594
 Total Coulomb   Energy =   162.5795145968
 Alpha Exchange  Energy =    -1.5001873863
 Beta  Exchange  Energy =    -1.3704242568
 DFT   Exchange  Energy =   -20.1320570951
 DFT Correlation Energy =    -0.7788281085
 Nuclear Repu.   Energy =    64.9997488440
 Nuclear Attr.   Energy =  -613.3341879298
 Kinetic         Energy =   204.5453743704
 <S^2> = 0.7523
 SCF time:  CPU 31.36 s  wall 32.23 s
 Final Alpha MO Eigenvalues
            1           2           3           4           5           6
    1 -18.9867973 -18.9865788 -14.3503847  -1.3304655  -1.1883134  -0.7391929
            7           8           9          10          11          12
    1  -0.6492260  -0.6477399  -0.6422311  -0.4570140  -0.4526299  -0.3567791
           13          14          15          16          17
    1  -0.0279947   0.0885909   0.1273505   0.1405653   0.1431676
 Final Beta MO Eigenvalues
            1           2           3           4           5           6
    1 -18.9791306 -18.9789021 -14.3413772  -1.3162721  -1.1721133  -0.7128089
            7           8           9          10          11          12
    1  -0.6391300  -0.6241539  -0.6133434  -0.4505363  -0.4213997  -0.0850156
           13          14          15          16
    1  -0.0129929   0.0945109   0.1293123   0.1453731
 Analysis of SCF Wavefunction
 
 --------------------------------------------------------------
                    Orbital Energies (a.u.)
 --------------------------------------------------------------
 
 Alpha MOs
 -- Occupied --
-18.987 -18.987 -14.350  -1.330  -1.188  -0.739  -0.649  -0.648
 -0.642  -0.457  -0.453  -0.357
 -- Virtual --
 -0.028   0.089   0.127   0.141   0.143   0.222   0.235   0.250
  0.261   0.283   0.312   0.313   0.375   0.421   0.489   0.740
  0.756   0.803   0.888   0.946   0.990   1.022   1.042   1.043
  1.093   1.102   1.110   1.116   1.422   1.486   1.518   1.548
  1.553   1.592   1.677   1.848   2.033   2.178   2.268   2.402
  2.424   2.568   3.431   3.448   3.562   3.599   3.616   3.679
  3.931   3.936   4.305   4.323   4.391   4.454   4.538   4.586
  4.650   4.870   4.880   4.897   4.946   4.961   4.992   4.995
  5.011   5.218   5.334   5.401   5.420   5.460   5.616   6.054
  6.357   6.640   6.646   6.663   6.690   6.806   6.908   6.982
  7.045   7.069   7.130   7.311   7.514   7.682   8.009  35.687
 37.126  37.297  38.170  40.168  40.259  40.337  40.464  40.566
 43.464  43.479  43.523  43.529  43.567  43.635  43.636  43.663
 43.755  43.813  45.474  45.492  45.503  45.628  46.122  46.465
 49.829  49.897
 
 Beta MOs
 -- Occupied --
-18.979 -18.979 -14.341  -1.316  -1.172  -0.713  -0.639  -0.624
 -0.613  -0.451  -0.421
 -- Virtual --
 -0.085  -0.013   0.095   0.129   0.145   0.146   0.227   0.238
  0.251   0.267   0.285   0.314   0.321   0.379   0.425   0.514
  0.763   0.765   0.808   0.905   0.963   0.999   1.041   1.046
  1.052   1.106   1.110   1.121   1.123   1.434   1.494   1.527
  1.558   1.573   1.613   1.687   1.862   2.038   2.203   2.281
  2.415   2.434   2.593   3.461   3.476   3.577   3.624   3.640
  3.687   3.945   3.949   4.331   4.335   4.403   4.466   4.576
  4.627   4.687   4.886   4.893   4.912   4.963   4.971   5.013
  5.016   5.038   5.238   5.355   5.410   5.438   5.477   5.630
  6.085   6.365   6.662   6.672   6.694   6.717   6.819   6.941
  6.995   7.050   7.083   7.143   7.339   7.529   7.700   8.037
 35.697  37.134  37.321  38.176  40.186  40.276  40.338  40.475
 40.576  43.479  43.493  43.534  43.547  43.587  43.637  43.645
 43.683  43.768  43.827  45.491  45.496  45.507  45.647  46.134
 46.473  49.837  49.905
 --------------------------------------------------------------
 
          Ground-State Mulliken Net Atomic Charges

     Atom                 Charge (a.u.)    Spin (a.u.)
  --------------------------------------------------------
      1 N                    -0.000882       0.469712
      2 O                     0.000163       0.265316
      3 O                     0.000719       0.264972
  --------------------------------------------------------
  Sum of atomic charges =     0.000000
  Sum of spin   charges =     1.000000

 -----------------------------------------------------------------
                    Cartesian Multipole Moments
 -----------------------------------------------------------------
    Charge (ESU x 10^10)
                 0.0000
    Dipole Moment (Debye)
         X      -0.2857      Y       0.0000      Z      -0.1265
       Tot       0.3125
    Quadrupole Moments (Debye-Ang)
        XX     -16.3057     XY       0.0000     YY     -14.9706
        XZ       0.6942     YZ       0.0000     ZZ     -17.6398
    Octapole Moments (Debye-Ang^2)
       XXX     -14.0069    XXY       0.0000    XYY      -4.3975
       YYY       0.0000    XXZ      -1.6802    XYZ       0.0000
       YYZ      -1.8760    XZZ      -4.8346    YZZ       0.0000
       ZZZ      -6.3524
    Hexadecapole Moments (Debye-Ang^3)
      XXXX     -37.3472   XXXY       0.0000   XXYY      -8.0557
      XYYY       0.0000   YYYY     -11.7886   XXXZ      11.4564
      XXYZ       0.0000   XYYZ       3.7961   YYYZ       0.0000
      XXZZ     -19.8660   XYZZ       0.0000   YYZZ     -15.3484
      XZZZ      11.6904   YZZZ       0.0000   ZZZZ     -81.8005
 -----------------------------------------------------------------
 Calculating analytic gradient of the SCF energy
 Gradient of AOints
            1           2           3
    1   9.7719338   1.4565326 -11.2284665
    2  -0.0000000   0.0000000  -0.0000000
    3   4.1538184 -16.9500220  12.7962037
 Gradient of XC Energy
            1           2           3
    1  -0.3740239  -0.0059288   0.3799526
    2   0.0000000  -0.0000000  -0.0000000
    3  -0.1586057   0.5315000  -0.3728943
 Gradient of SCF Energy
            1           2           3
    1   0.0009061  -0.0001468  -0.0007593
    2  -0.0000000   0.0000000  -0.0000000
    3  -0.0004613  -0.0000607   0.0005220
 Max gradient component =       9.061E-04
 RMS gradient           =       4.604E-04
 Gradient time:  CPU 14.82 s  wall 14.90 s
 Writing REM_CC_EA            3
 ----------------------------------------------------
       Standard Nuclear Orientation (Angstroms)
    I     Atom         X            Y            Z
 ----------------------------------------------------
    1      N       0.002990     0.000000     0.001660
    2      O       0.000420     0.000000     1.196630
    3      O       0.863450     0.000000    -0.828430
 ----------------------------------------------------
 Nuclear Repulsion Energy =    64.9700135294 hartrees
 There are       12 alpha and       11 beta electrons

                       Distance Matrix (Angstroms)
             N (  1)   O (  2)
   O (  2)  1.194973
   O (  3)  1.195592  2.201293
 
 Requested basis set is G3large
 There are 30 shells and 126 basis functions
 A cutoff of  1.0D-11 yielded    438 shell pairs
 There are   7874 function pairs ( 10341 Cartesian)
Evaluating contribution to one-electron hamiltonian from nuclear
 Smallest overlap matrix eigenvalue = 1.55E-03
 Multipole matrices computed through 2nd order
 Guess MOs from SCF MO coefficient file
Reading MOs from coefficient file
Reading MOs from coefficient file
 Long-range K will be added via erf
 Coulomb attenuation parameter = 0.23 bohr**(-1)
 An unrestricted Kohn-Sham SCF calculation will be
 performed using Pulay DIIS extrapolation
 Exchange:  wPBE + LR-HF      Correlation:  PBE
 Using SG-1 standard quadrature grid
 SCF converges when DIIS error is below 1.0E-08
 ---------------------------------------
  Cycle       Energy         DIIS Error
 ---------------------------------------
    1    -204.9902621528      1.18E-04
    2    -204.9910449513      3.27E-05
    3    -204.9910413439      6.10E-05
    4    -204.9910466577      6.18E-06
    5    -204.9910466734      1.31E-06
    6    -204.9910467339      8.64E-07
    7    -204.9910467026      4.70E-07
    8    -204.9910466958      7.87E-08
    9    -204.9910466623      3.71E-08
   10    -204.9910466615      1.19E-08
   11    -204.9910466562      5.37E-09 Convergence criterion met
 ---------------------------------------
 One-Electron    Energy =  -408.7326699096
 Total Coulomb   Energy =   162.5518870168
 Alpha Exchange  Energy =    -1.5001737636
 Beta  Exchange  Energy =    -1.3703892478
 DFT   Exchange  Energy =   -20.1309691106
 DFT Correlation Energy =    -0.7787451709
 Nuclear Repu.   Energy =    64.9700135294
 Nuclear Attr.   Energy =  -613.2737768388
 Kinetic         Energy =   204.5411069292
 <S^2> = 0.7523
 SCF time:  CPU 34.38 s  wall 34.83 s
 Final Alpha MO Eigenvalues
            1           2           3           4           5           6
    1 -18.9868095 -18.9866757 -14.3504814  -1.3300373  -1.1877380  -0.7393995
            7           8           9          10          11          12
    1  -0.6489020  -0.6474471  -0.6421656  -0.4569084  -0.4524524  -0.3574055
           13          14          15          16          17
    1  -0.0283776   0.0886573   0.1273587   0.1405544   0.1432065
 Final Beta MO Eigenvalues
            1           2           3           4           5           6
    1 -18.9791340 -18.9789926 -14.3414899  -1.3158468  -1.1715116  -0.7129858
            7           8           9          10          11          12
    1  -0.6388174  -0.6240476  -0.6130816  -0.4504193  -0.4212102  -0.0856807
           13          14          15          16
    1  -0.0133881   0.0945550   0.1293243   0.1454030
 Analysis of SCF Wavefunction
 
 --------------------------------------------------------------
                    Orbital Energies (a.u.)
 --------------------------------------------------------------
 
 Alpha MOs
 -- Occupied --
-18.987 -18.987 -14.350  -1.330  -1.188  -0.739  -0.649  -0.647
 -0.642  -0.457  -0.452  -0.357
 -- Virtual --
 -0.028   0.089   0.127   0.141   0.143   0.222   0.235   0.250
  0.261   0.283   0.312   0.312   0.374   0.421   0.487   0.740
  0.756   0.803   0.888   0.946   0.990   1.022   1.042   1.043
  1.093   1.101   1.110   1.116   1.422   1.487   1.519   1.548
  1.551   1.592   1.678   1.847   2.033   2.176   2.266   2.401
  2.423   2.567   3.431   3.448   3.562   3.599   3.617   3.679
  3.932   3.934   4.306   4.322   4.391   4.457   4.537   4.586
  4.651   4.870   4.880   4.897   4.946   4.962   4.992   4.995
  5.010   5.219   5.330   5.401   5.417   5.460   5.615   6.050
  6.355   6.640   6.646   6.662   6.690   6.799   6.908   6.975
  7.046   7.069   7.129   7.311   7.515   7.680   8.001  35.684
 37.126  37.297  38.167  40.168  40.259  40.336  40.464  40.564
 43.464  43.479  43.523  43.529  43.567  43.635  43.636  43.663
 43.754  43.812  45.473  45.491  45.502  45.627  46.121  46.463
 49.828  49.893
 
 Beta MOs
 -- Occupied --
-18.979 -18.979 -14.341  -1.316  -1.172  -0.713  -0.639  -0.624
 -0.613  -0.450  -0.421
 -- Virtual --
 -0.086  -0.013   0.095   0.129   0.145   0.146   0.227   0.238
  0.251   0.267   0.285   0.314   0.321   0.379   0.425   0.512
  0.763   0.765   0.808   0.905   0.963   0.999   1.041   1.047
  1.052   1.105   1.110   1.120   1.124   1.434   1.494   1.528
  1.557   1.572   1.612   1.688   1.861   2.038   2.201   2.279
  2.414   2.432   2.592   3.461   3.476   3.577   3.624   3.640
  3.687   3.943   3.950   4.331   4.334   4.403   4.469   4.575
  4.627   4.687   4.886   4.893   4.912   4.963   4.971   5.013
  5.016   5.037   5.238   5.352   5.410   5.435   5.477   5.629
  6.080   6.363   6.662   6.673   6.693   6.717   6.813   6.941
  6.989   7.051   7.084   7.142   7.339   7.531   7.699   8.029
 35.694  37.133  37.321  38.173  40.186  40.276  40.338  40.475
 40.574  43.479  43.493  43.534  43.547  43.587  43.637  43.645
 43.683  43.767  43.825  45.490  45.496  45.506  45.646  46.132
 46.472  49.836  49.902
 --------------------------------------------------------------
 
          Ground-State Mulliken Net Atomic Charges

     Atom                 Charge (a.u.)    Spin (a.u.)
  --------------------------------------------------------
      1 N                    -0.000939       0.468385
      2 O                     0.000761       0.265665
      3 O                     0.000178       0.265951
  --------------------------------------------------------
  Sum of atomic charges =     0.000000
  Sum of spin   charges =     1.000000

 -----------------------------------------------------------------
                    Cartesian Multipole Moments
 -----------------------------------------------------------------
    Charge (ESU x 10^10)
                 0.0000
    Dipole Moment (Debye)
         X      -0.2902      Y       0.0000      Z      -0.1202
       Tot       0.3141
    Quadrupole Moments (Debye-Ang)
        XX     -16.3055     XY       0.0000     YY     -14.9730
        XZ       0.6953     YZ       0.0000     ZZ     -17.6398
    Octapole Moments (Debye-Ang^2)
       XXX     -13.9762    XXY       0.0000    XYY      -4.3908
       YYY       0.0000    XXZ      -1.6784    XYZ       0.0000
       YYZ      -1.8703    XZZ      -4.8227    YZZ       0.0000
       ZZZ      -6.3335
    Hexadecapole Moments (Debye-Ang^3)
      XXXX     -37.3374   XXXY       0.0000   XXYY      -8.0568
      XYYY       0.0000   YYYY     -11.7901   XXXZ      11.4547
      XXYZ       0.0000   XYYZ       3.7987   YYYZ       0.0000
      XXZZ     -19.8626   XYZZ       0.0000   YYZZ     -15.3493
      XZZZ      11.7034   YZZZ       0.0000   ZZZZ     -81.8060
 -----------------------------------------------------------------
 Calculating analytic gradient of the SCF energy
 Gradient of AOints
            1           2           3
    1   9.7977684   1.4284533 -11.2262217
    2  -0.0000000  -0.0000000   0.0000000
    3   4.1835850 -16.9481429  12.7645579
 Gradient of XC Energy
            1           2           3
    1  -0.3748042  -0.0047981   0.3796023
    2   0.0000000   0.0000000  -0.0000000
    3  -0.1601583   0.5314935  -0.3713352
 Gradient of SCF Energy
            1           2           3
    1  -0.0010630   0.0002372   0.0008258
    2   0.0000000  -0.0000000   0.0000000
    3   0.0003591   0.0001171  -0.0004762
 Max gradient component =       1.063E-03
 RMS gradient           =       4.986E-04
 Gradient time:  CPU 14.88 s  wall 14.95 s
 Writing REM_CC_EA            3
 ----------------------------------------------------
       Standard Nuclear Orientation (Angstroms)
    I     Atom         X            Y            Z
 ----------------------------------------------------
    1      N       0.003990     0.001000     0.001660
    2      O       0.000420     0.000000     1.196630
    3      O       0.863450     0.000000    -0.828430
 ----------------------------------------------------
 Nuclear Repulsion Energy =    64.9848677054 hartrees
 There are       12 alpha and       11 beta electrons

                       Distance Matrix (Angstroms)
             N (  1)   O (  2)
   O (  2)  1.194976
   O (  3)  1.194873  2.201293
 
 Requested basis set is G3large
 There are 30 shells and 126 basis functions
 A cutoff of  1.0D-11 yielded    438 shell pairs
 There are   7874 function pairs ( 10341 Cartesian)
Evaluating contribution to one-electron hamiltonian from nuclear
 Smallest overlap matrix eigenvalue = 1.55E-03
 Multipole matrices computed through 2nd order
 Guess MOs from SCF MO coefficient file
Reading MOs from coefficient file
Reading MOs from coefficient file
 Long-range K will be added via erf
 Coulomb attenuation parameter = 0.23 bohr**(-1)
 An unrestricted Kohn-Sham SCF calculation will be
 performed using Pulay DIIS extrapolation
 Exchange:  wPBE + LR-HF      Correlation:  PBE
 Using SG-1 standard quadrature grid
 SCF converges when DIIS error is below 1.0E-08
 ---------------------------------------
  Cycle       Energy         DIIS Error
 ---------------------------------------
    1    -204.9914387785      7.13E-05
    2    -204.9910472000      1.68E-05
    3    -204.9910462501      3.17E-05
    4    -204.9910476461      3.67E-06
    5    -204.9910477822      1.09E-06
    6    -204.9910477085      7.87E-07
    7    -204.9910477436      5.56E-07
    8    -204.9910477524      2.25E-07
    9    -204.9910477504      5.72E-08
   10    -204.9910477514      1.95E-08
   11    -204.9910477509      4.63E-09 Convergence criterion met
 ---------------------------------------
 One-Electron    Energy =  -408.7607181175
 Total Coulomb   Energy =   162.5656889524
 Alpha Exchange  Energy =    -1.5001805774
 Beta  Exchange  Energy =    -1.3704067471
 DFT   Exchange  Energy =   -20.1315123413
 DFT Correlation Energy =    -0.7787866254
 Nuclear Repu.   Energy =    64.9848677054
 Nuclear Attr.   Energy =  -613.3039530858
 Kinetic         Energy =   204.5432349683
 <S^2> = 0.7523
 SCF time:  CPU 35.16 s  wall 35.66 s
 Final Alpha MO Eigenvalues
            1           2           3           4           5           6
    1 -18.9867370 -18.9866937 -14.3504332  -1.3302505  -1.1880261  -0.7392962
            7           8           9          10          11          12
    1  -0.6490636  -0.6475931  -0.6421983  -0.4569613  -0.4525412  -0.3570929
           13          14          15          16          17
    1  -0.0281864   0.0886242   0.1273547   0.1405599   0.1431871
 Final Beta MO Eigenvalues
            1           2           3           4           5           6
    1 -18.9790640 -18.9790156 -14.3414336  -1.3160585  -1.1718129  -0.7128973
            7           8           9          10          11          12
    1  -0.6389733  -0.6241007  -0.6132121  -0.4504780  -0.4213050  -0.0853487
           13          14          15          16
    1  -0.0131907   0.0945330   0.1293184   0.1453881
 Analysis of SCF Wavefunction
 
 --------------------------------------------------------------
                    Orbital Energies (a.u.)
 --------------------------------------------------------------
 
 Alpha MOs
 -- Occupied --
-18.987 -18.987 -14.350  -1.330  -1.188  -0.739  -0.649  -0.648
 -0.642  -0.457  -0.453  -0.357
 -- Virtual --
 -0.028   0.089   0.127   0.141   0.143   0.222   0.235   0.250
  0.261   0.283   0.312   0.312   0.374   0.421   0.488   0.740
  0.756   0.803   0.888   0.946   0.990   1.022   1.043   1.043
  1.093   1.101   1.110   1.116   1.422   1.486   1.518   1.548
  1.552   1.592   1.678   1.847   2.033   2.177   2.267   2.402
  2.423   2.568   3.431   3.448   3.562   3.599   3.617   3.679
  3.932   3.935   4.306   4.323   4.391   4.456   4.538   4.586
  4.650   4.870   4.880   4.897   4.946   4.962   4.992   4.995
  5.011   5.218   5.332   5.401   5.419   5.460   5.616   6.052
  6.356   6.640   6.646   6.662   6.690   6.803   6.908   6.979
  7.046   7.069   7.130   7.311   7.515   7.681   8.005  35.686
 37.126  37.297  38.168  40.168  40.259  40.337  40.464  40.565
 43.464  43.479  43.523  43.529  43.567  43.635  43.636  43.663
 43.755  43.813  45.474  45.491  45.502  45.627  46.121  46.464
 49.829  49.895
 
 Beta MOs
 -- Occupied --
-18.979 -18.979 -14.341  -1.316  -1.172  -0.713  -0.639  -0.624
 -0.613  -0.450  -0.421
 -- Virtual --
 -0.085  -0.013   0.095   0.129   0.145   0.146   0.227   0.238
  0.251   0.267   0.285   0.314   0.321   0.379   0.425   0.513
  0.763   0.765   0.808   0.905   0.963   0.999   1.041   1.047
  1.052   1.106   1.110   1.120   1.124   1.434   1.494   1.528
  1.558   1.572   1.612   1.687   1.862   2.038   2.202   2.280
  2.414   2.433   2.593   3.461   3.476   3.577   3.624   3.640
  3.687   3.944   3.950   4.331   4.334   4.403   4.468   4.575
  4.627   4.687   4.886   4.893   4.912   4.963   4.971   5.013
  5.016   5.038   5.238   5.353   5.410   5.437   5.477   5.629
  6.082   6.364   6.662   6.672   6.694   6.717   6.816   6.941
  6.992   7.051   7.084   7.143   7.339   7.530   7.699   8.033
 35.696  37.133  37.321  38.174  40.186  40.276  40.338  40.475
 40.575  43.479  43.493  43.534  43.547  43.587  43.637  43.645
 43.683  43.767  43.826  45.490  45.496  45.507  45.647  46.133
 46.473  49.836  49.903
 --------------------------------------------------------------
 
          Ground-State Mulliken Net Atomic Charges

     Atom                 Charge (a.u.)    Spin (a.u.)
  --------------------------------------------------------
      1 N                    -0.000910       0.469049
      2 O                     0.000462       0.265491
      3 O                     0.000448       0.265460
  --------------------------------------------------------
  Sum of atomic charges =     0.000000
  Sum of spin   charges =     1.000000

 -----------------------------------------------------------------
                    Cartesian Multipole Moments
 -----------------------------------------------------------------
    Charge (ESU x 10^10)
                 0.0000
    Dipole Moment (Debye)
         X      -0.2880      Y       0.0007      Z      -0.1233
       Tot       0.3133
    Quadrupole Moments (Debye-Ang)
        XX     -16.3056     XY       0.0018     YY     -14.9718
        XZ       0.6948     YZ       0.0007     ZZ     -17.6398
    Octapole Moments (Debye-Ang^2)
       XXX     -13.9916    XXY      -0.0048    XYY      -4.3942
       YYY      -0.0145    XXZ      -1.6793    XYZ       0.0007
       YYZ      -1.8731    XZZ      -4.8286    YZZ      -0.0061
       ZZZ      -6.3429
    Hexadecapole Moments (Debye-Ang^3)
      XXXX     -37.3423   XXXY       0.0023   XXYY      -8.0563
      XYYY       0.0016   YYYY     -11.7894   XXXZ      11.4555
      XXYZ       0.0006   XYYZ       3.7974   YYYZ       0.0007
      XXZZ     -19.8643   XYZZ       0.0006   YYZZ     -15.3489
      XZZZ      11.6969   YZZZ       0.0006   ZZZZ     -81.8032
 -----------------------------------------------------------------
 Calculating analytic gradient of the SCF energy
 Gradient of AOints
            1           2           3
    1   9.7848651   1.4424918 -11.2273569
    2  -0.0228541   0.0114253   0.0114288
    3   4.1687135 -16.9490860  12.7803725
 Gradient of XC Energy
            1           2           3
    1  -0.3744148  -0.0053633   0.3797781
    2   0.0008733  -0.0004370  -0.0004364
    3  -0.1593827   0.5314969  -0.3721142
 Gradient of SCF Energy
            1           2           3
    1  -0.0000810   0.0000454   0.0000356
    2  -0.0000008  -0.0000000   0.0000008
    3  -0.0000489   0.0000284   0.0000205
 Max gradient component =       8.103E-05
 RMS gradient           =       3.875E-05
 Gradient time:  CPU 14.79 s  wall 14.86 s
 Writing REM_CC_EA            3
 ----------------------------------------------------
       Standard Nuclear Orientation (Angstroms)
    I     Atom         X            Y            Z
 ----------------------------------------------------
    1      N       0.003990    -0.001000     0.001660
    2      O       0.000420     0.000000     1.196630
    3      O       0.863450     0.000000    -0.828430
 ----------------------------------------------------
 Nuclear Repulsion Energy =    64.9848677054 hartrees
 There are       12 alpha and       11 beta electrons

                       Distance Matrix (Angstroms)
             N (  1)   O (  2)
   O (  2)  1.194976
   O (  3)  1.194873  2.201293
 
 Requested basis set is G3large
 There are 30 shells and 126 basis functions
 A cutoff of  1.0D-11 yielded    438 shell pairs
 There are   7874 function pairs ( 10341 Cartesian)
Evaluating contribution to one-electron hamiltonian from nuclear
 Smallest overlap matrix eigenvalue = 1.55E-03
 Multipole matrices computed through 2nd order
 Guess MOs from SCF MO coefficient file
Reading MOs from coefficient file
Reading MOs from coefficient file
 Long-range K will be added via erf
 Coulomb attenuation parameter = 0.23 bohr**(-1)
 An unrestricted Kohn-Sham SCF calculation will be
 performed using Pulay DIIS extrapolation
 Exchange:  wPBE + LR-HF      Correlation:  PBE
 Using SG-1 standard quadrature grid
 SCF converges when DIIS error is below 1.0E-08
 ---------------------------------------
  Cycle       Energy         DIIS Error
 ---------------------------------------
    1    -204.9910386733      7.99E-05
    2    -204.9910469182      7.92E-06
    3    -204.9910474947      3.91E-06
    4    -204.9910476344      1.78E-06
    5    -204.9910477641      1.04E-06
    6    -204.9910477810      7.37E-07
    7    -204.9910478066      3.73E-07
    8    -204.9910478041      6.36E-08
    9    -204.9910478031      9.17E-08
   10    -204.9910478036      1.03E-08
   11    -204.9910478043      3.35E-09 Convergence criterion met
 ---------------------------------------
 One-Electron    Energy =  -408.7607172688
 Total Coulomb   Energy =   162.5656880098
 Alpha Exchange  Energy =    -1.5001805816
 Beta  Exchange  Energy =    -1.3704067394
 DFT   Exchange  Energy =   -20.1315123011
 DFT Correlation Energy =    -0.7787866286
 Nuclear Repu.   Energy =    64.9848677054
 Nuclear Attr.   Energy =  -613.3039515421
 Kinetic         Energy =   204.5432342733
 <S^2> = 0.7523
 SCF time:  CPU 34.82 s  wall 35.27 s
 Final Alpha MO Eigenvalues
            1           2           3           4           5           6
    1 -18.9867370 -18.9866937 -14.3504332  -1.3302506  -1.1880261  -0.7392962
            7           8           9          10          11          12
    1  -0.6490636  -0.6475931  -0.6421984  -0.4569613  -0.4525412  -0.3570929
           13          14          15          16          17
    1  -0.0281864   0.0886242   0.1273547   0.1405599   0.1431871
 Final Beta MO Eigenvalues
            1           2           3           4           5           6
    1 -18.9790640 -18.9790156 -14.3414337  -1.3160585  -1.1718129  -0.7128973
            7           8           9          10          11          12
    1  -0.6389733  -0.6241007  -0.6132121  -0.4504780  -0.4213050  -0.0853488
           13          14          15          16
    1  -0.0131907   0.0945330   0.1293184   0.1453881
 Analysis of SCF Wavefunction
 
 --------------------------------------------------------------
                    Orbital Energies (a.u.)
 --------------------------------------------------------------
 
 Alpha MOs
 -- Occupied --
-18.987 -18.987 -14.350  -1.330  -1.188  -0.739  -0.649  -0.648
 -0.642  -0.457  -0.453  -0.357
 -- Virtual --
 -0.028   0.089   0.127   0.141   0.143   0.222   0.235   0.250
  0.261   0.283   0.312   0.312   0.374   0.421   0.488   0.740
  0.756   0.803   0.888   0.946   0.990   1.022   1.043   1.043
  1.093   1.101   1.110   1.116   1.422   1.486   1.518   1.548
  1.552   1.592   1.678   1.847   2.033   2.177   2.267   2.402
  2.423   2.568   3.431   3.448   3.562   3.599   3.617   3.679
  3.932   3.935   4.306   4.323   4.391   4.456   4.538   4.586
  4.650   4.870   4.880   4.897   4.946   4.962   4.992   4.995
  5.011   5.218   5.332   5.401   5.419   5.460   5.616   6.052
  6.356   6.640   6.646   6.662   6.690   6.803   6.908   6.979
  7.046   7.069   7.130   7.311   7.515   7.681   8.005  35.686
 37.126  37.297  38.168  40.168  40.259  40.337  40.464  40.565
 43.464  43.479  43.523  43.529  43.567  43.635  43.636  43.663
 43.755  43.813  45.474  45.491  45.502  45.627  46.121  46.464
 49.829  49.895
 
 Beta MOs
 -- Occupied --
-18.979 -18.979 -14.341  -1.316  -1.172  -0.713  -0.639  -0.624
 -0.613  -0.450  -0.421
 -- Virtual --
 -0.085  -0.013   0.095   0.129   0.145   0.146   0.227   0.238
  0.251   0.267   0.285   0.314   0.321   0.379   0.425   0.513
  0.763   0.765   0.808   0.905   0.963   0.999   1.041   1.047
  1.052   1.106   1.110   1.120   1.124   1.434   1.494   1.528
  1.558   1.572   1.612   1.687   1.862   2.038   2.202   2.280
  2.414   2.433   2.593   3.461   3.476   3.577   3.624   3.640
  3.687   3.944   3.950   4.331   4.334   4.403   4.468   4.575
  4.627   4.687   4.886   4.893   4.912   4.963   4.971   5.013
  5.016   5.038   5.238   5.353   5.410   5.437   5.477   5.629
  6.082   6.364   6.662   6.672   6.694   6.717   6.816   6.941
  6.992   7.051   7.084   7.143   7.339   7.530   7.699   8.033
 35.696  37.133  37.321  38.174  40.186  40.276  40.338  40.475
 40.575  43.479  43.493  43.534  43.547  43.587  43.637  43.645
 43.683  43.767  43.826  45.490  45.496  45.507  45.647  46.133
 46.473  49.836  49.903
 --------------------------------------------------------------
 
          Ground-State Mulliken Net Atomic Charges

     Atom                 Charge (a.u.)    Spin (a.u.)
  --------------------------------------------------------
      1 N                    -0.000910       0.469048
      2 O                     0.000462       0.265492
      3 O                     0.000448       0.265460
  --------------------------------------------------------
  Sum of atomic charges =     0.000000
  Sum of spin   charges =     1.000000

 -----------------------------------------------------------------
                    Cartesian Multipole Moments
 -----------------------------------------------------------------
    Charge (ESU x 10^10)
                 0.0000
    Dipole Moment (Debye)
         X      -0.2880      Y      -0.0007      Z      -0.1233
       Tot       0.3133
    Quadrupole Moments (Debye-Ang)
        XX     -16.3056     XY      -0.0018     YY     -14.9718
        XZ       0.6948     YZ      -0.0007     ZZ     -17.6398
    Octapole Moments (Debye-Ang^2)
       XXX     -13.9916    XXY       0.0048    XYY      -4.3942
       YYY       0.0145    XXZ      -1.6793    XYZ      -0.0007
       YYZ      -1.8731    XZZ      -4.8286    YZZ       0.0061
       ZZZ      -6.3429
    Hexadecapole Moments (Debye-Ang^3)
      XXXX     -37.3423   XXXY      -0.0023   XXYY      -8.0563
      XYYY      -0.0016   YYYY     -11.7894   XXXZ      11.4555
      XXYZ      -0.0006   XYYZ       3.7974   YYYZ      -0.0007
      XXZZ     -19.8643   XYZZ      -0.0006   YYZZ     -15.3489
      XZZZ      11.6969   YZZZ      -0.0006   ZZZZ     -81.8032
 -----------------------------------------------------------------
 Calculating analytic gradient of the SCF energy
 Gradient of AOints
            1           2           3
    1   9.7848654   1.4424918 -11.2273572
    2   0.0228537  -0.0114251  -0.0114286
    3   4.1687133 -16.9490857  12.7803724
 Gradient of XC Energy
            1           2           3
    1  -0.3744148  -0.0053633   0.3797781
    2  -0.0008733   0.0004369   0.0004363
    3  -0.1593826   0.5314969  -0.3721143
 Gradient of SCF Energy
            1           2           3
    1  -0.0000810   0.0000454   0.0000356
    2   0.0000008   0.0000000  -0.0000008
    3  -0.0000489   0.0000284   0.0000205
 Max gradient component =       8.103E-05
 RMS gradient           =       3.874E-05
 Gradient time:  CPU 14.75 s  wall 14.79 s
 Writing REM_CC_EA            3
 ----------------------------------------------------
       Standard Nuclear Orientation (Angstroms)
    I     Atom         X            Y            Z
 ----------------------------------------------------
    1      N       0.003990     0.000000     0.002660
    2      O       0.000420     0.000000     1.196630
    3      O       0.863450     0.000000    -0.828430
 ----------------------------------------------------
 Nuclear Repulsion Energy =    64.9912393239 hartrees
 There are       12 alpha and       11 beta electrons

                       Distance Matrix (Angstroms)
             N (  1)   O (  2)
   O (  2)  1.193975
   O (  3)  1.195568  2.201293
 
 Requested basis set is G3large
 There are 30 shells and 126 basis functions
 A cutoff of  1.0D-11 yielded    438 shell pairs
 There are   7874 function pairs ( 10341 Cartesian)
Evaluating contribution to one-electron hamiltonian from nuclear
 Smallest overlap matrix eigenvalue = 1.54E-03
 Multipole matrices computed through 2nd order
 Guess MOs from SCF MO coefficient file
Reading MOs from coefficient file
Reading MOs from coefficient file
 Long-range K will be added via erf
 Coulomb attenuation parameter = 0.23 bohr**(-1)
 An unrestricted Kohn-Sham SCF calculation will be
 performed using Pulay DIIS extrapolation
 Exchange:  wPBE + LR-HF      Correlation:  PBE
 Using SG-1 standard quadrature grid
 SCF converges when DIIS error is below 1.0E-08
 ---------------------------------------
  Cycle       Energy         DIIS Error
 ---------------------------------------
    1    -204.9912132878      9.31E-05
    2    -204.9910441034      3.47E-05
    3    -204.9910399740      6.50E-05
    4    -204.9910461042      3.41E-06
    5    -204.9910461864      1.13E-06
    6    -204.9910461756      5.67E-07
    7    -204.9910462067      4.71E-07
    8    -204.9910462023      2.45E-07
    9    -204.9910462004      7.47E-08
   10    -204.9910462027      2.04E-08
   11    -204.9910462022      5.13E-09 Convergence criterion met
 ---------------------------------------
 One-Electron    Energy =  -408.7727445312
 Total Coulomb   Energy =   162.5716071478
 Alpha Exchange  Energy =    -1.5001834846
 Beta  Exchange  Energy =    -1.3704142484
 DFT   Exchange  Energy =   -20.1317460713
 DFT Correlation Energy =    -0.7788043384
 Nuclear Repu.   Energy =    64.9912393239
 Nuclear Attr.   Energy =  -613.3169034797
 Kinetic         Energy =   204.5441589485
 <S^2> = 0.7523
 SCF time:  CPU 35.28 s  wall 35.81 s
 Final Alpha MO Eigenvalues
            1           2           3           4           5           6
    1 -18.9868886 -18.9865186 -14.3504123  -1.3303459  -1.1881459  -0.7392522
            7           8           9          10          11          12
    1  -0.6491341  -0.6476569  -0.6422124  -0.4569830  -0.4525783  -0.3569589
           13          14          15          16          17
    1  -0.0281042   0.0886099   0.1273529   0.1405623   0.1431788
 Final Beta MO Eigenvalues
            1           2           3           4           5           6
    1 -18.9792234 -18.9788358 -14.3414094  -1.3161534  -1.1719380  -0.7128597
            7           8           9          10          11          12
    1  -0.6390414  -0.6241236  -0.6132690  -0.4505020  -0.4213448  -0.0852065
           13          14          15          16
    1  -0.0131059   0.0945235   0.1293158   0.1453816
 Analysis of SCF Wavefunction
 
 --------------------------------------------------------------
                    Orbital Energies (a.u.)
 --------------------------------------------------------------
 
 Alpha MOs
 -- Occupied --
-18.987 -18.987 -14.350  -1.330  -1.188  -0.739  -0.649  -0.648
 -0.642  -0.457  -0.453  -0.357
 -- Virtual --
 -0.028   0.089   0.127   0.141   0.143   0.222   0.235   0.250
  0.261   0.283   0.312   0.313   0.374   0.421   0.488   0.740
  0.756   0.803   0.888   0.946   0.990   1.022   1.042   1.043
  1.093   1.101   1.110   1.116   1.422   1.486   1.518   1.548
  1.552   1.592   1.678   1.848   2.033   2.178   2.268   2.402
  2.423   2.568   3.431   3.448   3.562   3.599   3.617   3.679
  3.931   3.936   4.306   4.323   4.391   4.455   4.538   4.586
  4.650   4.870   4.880   4.897   4.946   4.961   4.992   4.995
  5.011   5.218   5.333   5.401   5.419   5.460   5.616   6.053
  6.356   6.640   6.646   6.662   6.690   6.804   6.908   6.980
  7.045   7.069   7.130   7.311   7.514   7.681   8.007  35.686
 37.126  37.297  38.169  40.168  40.259  40.337  40.465  40.565
 43.464  43.480  43.523  43.529  43.567  43.635  43.636  43.663
 43.755  43.813  45.474  45.491  45.502  45.627  46.122  46.464
 49.829  49.896
 
 Beta MOs
 -- Occupied --
-18.979 -18.979 -14.341  -1.316  -1.172  -0.713  -0.639  -0.624
 -0.613  -0.451  -0.421
 -- Virtual --
 -0.085  -0.013   0.095   0.129   0.145   0.146   0.227   0.238
  0.251   0.267   0.285   0.314   0.321   0.379   0.425   0.513
  0.763   0.765   0.808   0.905   0.963   0.999   1.041   1.046
  1.052   1.106   1.110   1.120   1.123   1.434   1.494   1.527
  1.558   1.573   1.613   1.687   1.862   2.038   2.202   2.281
  2.414   2.433   2.593   3.461   3.476   3.577   3.624   3.640
  3.687   3.944   3.950   4.330   4.335   4.403   4.467   4.576
  4.627   4.687   4.886   4.893   4.912   4.963   4.971   5.013
  5.016   5.038   5.238   5.354   5.410   5.437   5.477   5.629
  6.083   6.364   6.662   6.672   6.694   6.717   6.817   6.941
  6.994   7.050   7.083   7.143   7.339   7.529   7.700   8.035
 35.696  37.133  37.321  38.175  40.186  40.276  40.338  40.476
 40.575  43.479  43.493  43.534  43.547  43.587  43.637  43.645
 43.683  43.768  43.826  45.491  45.496  45.507  45.647  46.133
 46.473  49.837  49.904
 --------------------------------------------------------------
 
          Ground-State Mulliken Net Atomic Charges

     Atom                 Charge (a.u.)    Spin (a.u.)
  --------------------------------------------------------
      1 N                    -0.000899       0.469331
      2 O                     0.001125       0.264976
      3 O                    -0.000226       0.265693
  --------------------------------------------------------
  Sum of atomic charges =     0.000000
  Sum of spin   charges =     1.000000

 -----------------------------------------------------------------
                    Cartesian Multipole Moments
 -----------------------------------------------------------------
    Charge (ESU x 10^10)
                 0.0000
    Dipole Moment (Debye)
         X      -0.2911      Y       0.0000      Z      -0.1150
       Tot       0.3130
    Quadrupole Moments (Debye-Ang)
        XX     -16.3064     XY       0.0000     YY     -14.9713
        XZ       0.6952     YZ       0.0000     ZZ     -17.6390
    Octapole Moments (Debye-Ang^2)
       XXX     -13.9991    XXY       0.0000    XYY      -4.3970
       YYY       0.0000    XXZ      -1.6789    XYZ       0.0000
       YYZ      -1.8709    XZZ      -4.8315    YZZ       0.0000
       ZZZ      -6.3447
    Hexadecapole Moments (Debye-Ang^3)
      XXXX     -37.3498   XXXY       0.0000   XXYY      -8.0579
      XYYY       0.0000   YYYY     -11.7890   XXXZ      11.4569
      XXYZ       0.0000   XYYZ       3.7987   YYYZ       0.0000
      XXZZ     -19.8618   XYZZ       0.0000   YYZZ     -15.3468
      XZZZ      11.6953   YZZZ       0.0000   ZZZZ     -81.8030
 -----------------------------------------------------------------
 Calculating analytic gradient of the SCF energy
 Gradient of AOints
            1           2           3
    1   9.7699864   1.4437646 -11.2137510
    2  -0.0000006   0.0000003   0.0000003
    3   4.1843774 -16.9644944  12.7801170
 Gradient of XC Energy
            1           2           3
    1  -0.3736387  -0.0054330   0.3790717
    2   0.0000000  -0.0000000  -0.0000000
    3  -0.1604767   0.5324109  -0.3719343
 Gradient of SCF Energy
            1           2           3
    1  -0.0004883  -0.0000332   0.0005215
    2   0.0000000  -0.0000000  -0.0000000
    3   0.0017332  -0.0011693  -0.0005639
 Max gradient component =       1.733E-03
 RMS gradient           =       7.602E-04
 Gradient time:  CPU 14.80 s  wall 14.88 s
 Writing REM_CC_EA            3
 ----------------------------------------------------
       Standard Nuclear Orientation (Angstroms)
    I     Atom         X            Y            Z
 ----------------------------------------------------
    1      N       0.003990     0.000000     0.000660
    2      O       0.000420     0.000000     1.196630
    3      O       0.863450     0.000000    -0.828430
 ----------------------------------------------------
 Nuclear Repulsion Energy =    64.9785733368 hartrees
 There are       12 alpha and       11 beta electrons

                       Distance Matrix (Angstroms)
             N (  1)   O (  2)
   O (  2)  1.195975
   O (  3)  1.194178  2.201293
 
 Requested basis set is G3large
 There are 30 shells and 126 basis functions
 A cutoff of  1.0D-11 yielded    438 shell pairs
 There are   7874 function pairs ( 10341 Cartesian)
Evaluating contribution to one-electron hamiltonian from nuclear
 Smallest overlap matrix eigenvalue = 1.55E-03
 Multipole matrices computed through 2nd order
 Guess MOs from SCF MO coefficient file
Reading MOs from coefficient file
Reading MOs from coefficient file
 Long-range K will be added via erf
 Coulomb attenuation parameter = 0.23 bohr**(-1)
 An unrestricted Kohn-Sham SCF calculation will be
 performed using Pulay DIIS extrapolation
 Exchange:  wPBE + LR-HF      Correlation:  PBE
 Using SG-1 standard quadrature grid
 SCF converges when DIIS error is below 1.0E-08
 ---------------------------------------
  Cycle       Energy         DIIS Error
 ---------------------------------------
    1    -204.9907200806      1.68E-04
    2    -204.9910384772      6.89E-05
    3    -204.9910236649      1.24E-04
    4    -204.9910459507      5.99E-06
    5    -204.9910460083      1.50E-06
    6    -204.9910459886      8.08E-07
    7    -204.9910459681      4.39E-07
    8    -204.9910460026      9.95E-08
    9    -204.9910460062      6.58E-08
   10    -204.9910460354      2.56E-08
   11    -204.9910460353      8.06E-09 Convergence criterion met
 ---------------------------------------
 One-Electron    Energy =  -408.7488281247
 Total Coulomb   Energy =   162.5598379449
 Alpha Exchange  Energy =    -1.5001776808
 Beta  Exchange  Energy =    -1.3703993298
 DFT   Exchange  Energy =   -20.1312831941
 DFT Correlation Energy =    -0.7787689877
 Nuclear Repu.   Energy =    64.9785733368
 Nuclear Attr.   Energy =  -613.2911701035
 Kinetic         Energy =   204.5423419788
 <S^2> = 0.7523
 SCF time:  CPU 34.71 s  wall 35.18 s
 Final Alpha MO Eigenvalues
            1           2           3           4           5           6
    1 -18.9869539 -18.9864998 -14.3504535  -1.3301647  -1.1878995  -0.7393403
            7           8           9          10          11          12
    1  -0.6489965  -0.6475326  -0.6421844  -0.4569377  -0.4525024  -0.3572258
           13          14          15          16          17
    1  -0.0282673   0.0886381   0.1273564   0.1405576   0.1431952
 Final Beta MO Eigenvalues
            1           2           3           4           5           6
    1 -18.9792870 -18.9788124 -14.3414575  -1.3159735  -1.1716803  -0.7129353
            7           8           9          10          11          12
    1  -0.6389087  -0.6240783  -0.6131578  -0.4504518  -0.4212638  -0.0854899
           13          14          15          16
    1  -0.0132743   0.0945422   0.1293209   0.1453943
 Analysis of SCF Wavefunction
 
 --------------------------------------------------------------
                    Orbital Energies (a.u.)
 --------------------------------------------------------------
 
 Alpha MOs
 -- Occupied --
-18.987 -18.986 -14.350  -1.330  -1.188  -0.739  -0.649  -0.648
 -0.642  -0.457  -0.453  -0.357
 -- Virtual --
 -0.028   0.089   0.127   0.141   0.143   0.222   0.235   0.250
  0.261   0.283   0.312   0.312   0.374   0.421   0.487   0.740
  0.756   0.803   0.888   0.946   0.990   1.022   1.042   1.043
  1.093   1.101   1.110   1.116   1.422   1.487   1.518   1.548
  1.552   1.592   1.678   1.847   2.033   2.177   2.267   2.402
  2.423   2.567   3.431   3.448   3.562   3.599   3.617   3.679
  3.932   3.935   4.306   4.322   4.391   4.456   4.538   4.586
  4.650   4.870   4.880   4.897   4.946   4.962   4.992   4.995
  5.010   5.219   5.331   5.401   5.418   5.460   5.615   6.051
  6.356   6.640   6.646   6.662   6.690   6.801   6.908   6.977
  7.046   7.069   7.129   7.311   7.515   7.681   8.003  35.685
 37.126  37.297  38.167  40.168  40.259  40.337  40.463  40.565
 43.465  43.479  43.523  43.529  43.567  43.635  43.636  43.663
 43.754  43.813  45.474  45.491  45.502  45.627  46.121  46.464
 49.828  49.894
 
 Beta MOs
 -- Occupied --
-18.979 -18.979 -14.341  -1.316  -1.172  -0.713  -0.639  -0.624
 -0.613  -0.450  -0.421
 -- Virtual --
 -0.085  -0.013   0.095   0.129   0.145   0.146   0.227   0.238
  0.251   0.267   0.285   0.314   0.321   0.379   0.425   0.512
  0.763   0.765   0.808   0.905   0.963   0.999   1.041   1.047
  1.052   1.106   1.110   1.120   1.124   1.434   1.494   1.528
  1.558   1.572   1.612   1.688   1.862   2.038   2.202   2.280
  2.414   2.433   2.592   3.461   3.476   3.577   3.624   3.640
  3.687   3.944   3.950   4.331   4.334   4.403   4.468   4.575
  4.627   4.687   4.886   4.893   4.912   4.963   4.971   5.013
  5.016   5.037   5.238   5.352   5.410   5.436   5.477   5.629
  6.081   6.363   6.662   6.673   6.694   6.717   6.815   6.941
  6.991   7.051   7.084   7.142   7.339   7.530   7.699   8.031
 35.695  37.133  37.321  38.174  40.186  40.276  40.338  40.474
 40.575  43.479  43.493  43.534  43.547  43.587  43.637  43.645
 43.683  43.767  43.826  45.490  45.496  45.506  45.646  46.133
 46.473  49.836  49.903
 --------------------------------------------------------------
 
          Ground-State Mulliken Net Atomic Charges

     Atom                 Charge (a.u.)    Spin (a.u.)
  --------------------------------------------------------
      1 N                    -0.000924       0.468764
      2 O                    -0.000199       0.266008
      3 O                     0.001122       0.265228
  --------------------------------------------------------
  Sum of atomic charges =     0.000000
  Sum of spin   charges =     1.000000

 -----------------------------------------------------------------
                    Cartesian Multipole Moments
 -----------------------------------------------------------------
    Charge (ESU x 10^10)
                 0.0000
    Dipole Moment (Debye)
         X      -0.2848      Y       0.0000      Z      -0.1316
       Tot       0.3138
    Quadrupole Moments (Debye-Ang)
        XX     -16.3048     XY       0.0000     YY     -14.9723
        XZ       0.6943     YZ       0.0000     ZZ     -17.6405
    Octapole Moments (Debye-Ang^2)
       XXX     -13.9841    XXY       0.0000    XYY      -4.3913
       YYY       0.0000    XXZ      -1.6797    XYZ       0.0000
       YYZ      -1.8753    XZZ      -4.8258    YZZ       0.0000
       ZZZ      -6.3412
    Hexadecapole Moments (Debye-Ang^3)
      XXXX     -37.3348   XXXY       0.0000   XXYY      -8.0546
      XYYY       0.0000   YYYY     -11.7897   XXXZ      11.4542
      XXYZ       0.0000   XYYZ       3.7961   YYYZ       0.0000
      XXZZ     -19.8667   XYZZ       0.0000   YYZZ     -15.3509
      XZZZ      11.6985   YZZZ       0.0000   ZZZZ     -81.8034
 -----------------------------------------------------------------
 Calculating analytic gradient of the SCF energy
 Gradient of AOints
            1           2           3
    1   9.7997462   1.4412272 -11.2409734
    2   0.0000000   0.0000000  -0.0000000
    3   4.1530610 -16.9336739  12.7806128
 Gradient of XC Energy
            1           2           3
    1  -0.3751910  -0.0052941   0.3804851
    2  -0.0000000  -0.0000000   0.0000000
    3  -0.1582894   0.5305829  -0.3722935
 Gradient of SCF Energy
            1           2           3
    1   0.0003321   0.0001234  -0.0004555
    2   0.0000000  -0.0000000  -0.0000000
    3  -0.0018219   0.0012139   0.0006080
 Max gradient component =       1.822E-03
 RMS gradient           =       7.814E-04
 Gradient time:  CPU 14.88 s  wall 14.92 s
 Writing REM_CC_EA            3
 ----------------------------------------------------
       Standard Nuclear Orientation (Angstroms)
    I     Atom         X            Y            Z
 ----------------------------------------------------
    1      N       0.003990     0.000000     0.001660
    2      O       0.001420     0.000000     1.196630
    3      O       0.863450     0.000000    -0.828430
 ----------------------------------------------------
 Nuclear Repulsion Energy =    64.9876776795 hartrees
 There are       12 alpha and       11 beta electrons

                       Distance Matrix (Angstroms)
             N (  1)   O (  2)
   O (  2)  1.194973
   O (  3)  1.194873  2.200901
 
 Requested basis set is G3large
 There are 30 shells and 126 basis functions
 A cutoff of  1.0D-11 yielded    438 shell pairs
 There are   7874 function pairs ( 10341 Cartesian)
Evaluating contribution to one-electron hamiltonian from nuclear
 Smallest overlap matrix eigenvalue = 1.55E-03
 Multipole matrices computed through 2nd order
 Guess MOs from SCF MO coefficient file
Reading MOs from coefficient file
Reading MOs from coefficient file
 Long-range K will be added via erf
 Coulomb attenuation parameter = 0.23 bohr**(-1)
 An unrestricted Kohn-Sham SCF calculation will be
 performed using Pulay DIIS extrapolation
 Exchange:  wPBE + LR-HF      Correlation:  PBE
 Using SG-1 standard quadrature grid
 SCF converges when DIIS error is below 1.0E-08
 ---------------------------------------
  Cycle       Energy         DIIS Error
 ---------------------------------------
    1    -204.9912327707      8.83E-05
    2    -204.9910455434      3.53E-05
    3    -204.9910416018      6.43E-05
    4    -204.9910475767      3.25E-06
    5    -204.9910476584      1.40E-06
    6    -204.9910475853      8.58E-07
    7    -204.9910476316      1.47E-07
    8    -204.9910476417      4.19E-08
    9    -204.9910476390      1.97E-08
   10    -204.9910476395      5.83E-09 Convergence criterion met
 ---------------------------------------
 One-Electron    Energy =  -408.7664784060
 Total Coulomb   Energy =   162.5686762652
 Alpha Exchange  Energy =    -1.5001829295
 Beta  Exchange  Energy =    -1.3704065305
 DFT   Exchange  Energy =   -20.1315452947
 DFT Correlation Energy =    -0.7787884234
 Nuclear Repu.   Energy =    64.9876776795
 Nuclear Attr.   Energy =  -613.3099819060
 Kinetic         Energy =   204.5435034999
 <S^2> = 0.7523
 SCF time:  CPU 31.40 s  wall 31.85 s
 Final Alpha MO Eigenvalues
            1           2           3           4           5           6
[...]
  0.261   0.283   0.312   0.313   0.374   0.421   0.488   0.740
  0.755   0.803   0.888   0.946   0.990   1.022   1.043   1.043
  1.093   1.101   1.110   1.116   1.422   1.487   1.518   1.548
  1.552   1.592   1.679   1.847   2.033   2.177   2.267   2.402
  2.424   2.568   3.431   3.448   3.562   3.599   3.617   3.679
  3.932   3.936   4.306   4.322   4.391   4.455   4.538   4.586
  4.650   4.870   4.880   4.897   4.946   4.962   4.992   4.995
  5.011   5.218   5.332   5.402   5.419   5.461   5.616   6.053
  6.358   6.640   6.646   6.662   6.690   6.803   6.908   6.980
  7.046   7.071   7.130   7.312   7.515   7.681   8.006  35.687
 37.126  37.298  38.168  40.168  40.259  40.337  40.464  40.565
 43.465  43.479  43.523  43.529  43.568  43.635  43.636  43.663
 43.755  43.813  45.474  45.492  45.502  45.628  46.122  46.464
 49.829  49.896
 
 Beta MOs
 -- Occupied --
-18.979 -18.979 -14.341  -1.316  -1.172  -0.713  -0.639  -0.624
 -0.613  -0.450  -0.421
 -- Virtual --
 -0.085  -0.013   0.095   0.129   0.145   0.146   0.227   0.238
  0.251   0.267   0.285   0.314   0.322   0.379   0.425   0.513
  0.763   0.765   0.808   0.905   0.963   0.999   1.041   1.047
  1.052   1.106   1.110   1.120   1.124   1.434   1.494   1.528
  1.558   1.572   1.612   1.688   1.862   2.038   2.202   2.280
  2.415   2.433   2.593   3.461   3.476   3.577   3.624   3.640
  3.688   3.944   3.950   4.331   4.334   4.403   4.467   4.575
  4.627   4.687   4.886   4.893   4.912   4.963   4.971   5.013
  5.017   5.038   5.237   5.353   5.411   5.437   5.478   5.630
  6.083   6.366   6.662   6.673   6.694   6.717   6.817   6.941
  6.994   7.051   7.086   7.143   7.340   7.530   7.700   8.034
 35.697  37.133  37.322  38.174  40.186  40.276  40.338  40.475
 40.576  43.479  43.493  43.534  43.547  43.587  43.637  43.645
 43.683  43.767  43.826  45.491  45.496  45.507  45.647  46.134
 46.473  49.837  49.905
 --------------------------------------------------------------
 
          Ground-State Mulliken Net Atomic Charges

     Atom                 Charge (a.u.)    Spin (a.u.)
  --------------------------------------------------------
      1 N                    -0.000695       0.469110
      2 O                     0.000081       0.265615
      3 O                     0.000614       0.265276
  --------------------------------------------------------
  Sum of atomic charges =     0.000000
  Sum of spin   charges =     1.000000

 -----------------------------------------------------------------
                    Cartesian Multipole Moments
 -----------------------------------------------------------------
    Charge (ESU x 10^10)
                 0.0000
    Dipole Moment (Debye)
         X      -0.2872      Y       0.0000      Z      -0.1270
       Tot       0.3140
    Quadrupole Moments (Debye-Ang)
        XX     -16.3050     XY       0.0000     YY     -14.9705
        XZ       0.6950     YZ       0.0000     ZZ     -17.6402
    Octapole Moments (Debye-Ang^2)
       XXX     -13.9888    XXY       0.0000    XYY      -4.3927
       YYY       0.0000    XXZ      -1.6861    XYZ       0.0000
       YYZ      -1.8810    XZZ      -4.8273    YZZ       0.0000
       ZZZ      -6.3681
    Hexadecapole Moments (Debye-Ang^3)
      XXXX     -37.3395   XXXY       0.0000   XXYY      -8.0551
      XYYY       0.0000   YYYY     -11.7875   XXXZ      11.4418
      XXYZ       0.0000   XYYZ       3.7924   YYYZ       0.0000
      XXZZ     -19.8571   XYZZ       0.0000   YYZZ     -15.3403
      XZZZ      11.6851   YZZZ       0.0000   ZZZZ     -81.7553
 -----------------------------------------------------------------
 Calculating analytic gradient of the SCF energy
 Gradient of AOints
            1           2           3
    1   9.7991561   1.4419513 -11.2411074
    2   0.0000004  -0.0000001  -0.0000003
    3   4.1678736 -16.9477937  12.7799201
 Gradient of XC Energy
            1           2           3
    1  -0.3751193  -0.0052601   0.3803795
    2  -0.0000000   0.0000000   0.0000000
    3  -0.1591770   0.5312976  -0.3721206
 Gradient of SCF Energy
            1           2           3
    1   0.0004208   0.0001807  -0.0006015
    2  -0.0000000   0.0000000   0.0000000
    3  -0.0006359  -0.0001868   0.0008227
 Max gradient component =       8.227E-04
 RMS gradient           =       4.330E-04
 Gradient time:  CPU 14.76 s  wall 14.83 s
 Writing REM_CC_EA            3
 ----------------------------------------------------
       Standard Nuclear Orientation (Angstroms)
    I     Atom         X            Y            Z
 ----------------------------------------------------
    1      N       0.003990     0.000000     0.001660
    2      O       0.000420     0.000000     1.196630
    3      O       0.863450     0.000000    -0.829430
 ----------------------------------------------------
 Nuclear Repulsion Energy =    64.9640423108 hartrees
 There are       12 alpha and       11 beta electrons

                       Distance Matrix (Angstroms)
             N (  1)   O (  2)
   O (  2)  1.194975
   O (  3)  1.195568  2.202213
 
 Requested basis set is G3large
 There are 30 shells and 126 basis functions
 A cutoff of  1.0D-11 yielded    438 shell pairs
 There are   7874 function pairs ( 10341 Cartesian)
Evaluating contribution to one-electron hamiltonian from nuclear
 Smallest overlap matrix eigenvalue = 1.55E-03
 Multipole matrices computed through 2nd order
 Guess MOs from SCF MO coefficient file
Reading MOs from coefficient file
Reading MOs from coefficient file
 Long-range K will be added via erf
 Coulomb attenuation parameter = 0.23 bohr**(-1)
 An unrestricted Kohn-Sham SCF calculation will be
 performed using Pulay DIIS extrapolation
 Exchange:  wPBE + LR-HF      Correlation:  PBE
 Using SG-1 standard quadrature grid
 SCF converges when DIIS error is below 1.0E-08
 ---------------------------------------
  Cycle       Energy         DIIS Error
 ---------------------------------------
    1    -204.9902238688      9.81E-05
    2    -204.9910452936      3.39E-05
    3    -204.9910419403      5.99E-05
    4    -204.9910470169      6.70E-06
    5    -204.9910470018      3.82E-06
    6    -204.9910470795      6.53E-07
    7    -204.9910471188      1.77E-07
    8    -204.9910471100      5.10E-08
    9    -204.9910470835      1.85E-08
   10    -204.9910470833      4.93E-09 Convergence criterion met
 ---------------------------------------
 One-Electron    Energy =  -408.7203278787
 Total Coulomb   Energy =   162.5454549593
 Alpha Exchange  Energy =    -1.5001685432
 Beta  Exchange  Energy =    -1.3703904616
 DFT   Exchange  Energy =   -20.1309147643
 DFT Correlation Energy =    -0.7787427055
 Nuclear Repu.   Energy =    64.9640423108
 Nuclear Attr.   Energy =  -613.2608944413
 Kinetic         Energy =   204.5405665626
 <S^2> = 0.7523
 SCF time:  CPU 31.60 s  wall 32.01 s
 Final Alpha MO Eigenvalues
            1           2           3           4           5           6
    1 -18.9868578 -18.9867306 -14.3504754  -1.3299645  -1.1878771  -0.7393716
            7           8           9          10          11          12
    1  -0.6489047  -0.6474629  -0.6421908  -0.4569572  -0.4525828  -0.3571136
           13          14          15          16          17
    1  -0.0283544   0.0885992   0.1273520   0.1405840   0.1432122
 Final Beta MO Eigenvalues
            1           2           3           4           5           6
    1 -18.9791844 -18.9790499 -14.3414747  -1.3157673  -1.1716623  -0.7129850
            7           8           9          10          11          12
    1  -0.6388141  -0.6240853  -0.6130696  -0.4504740  -0.4213414  -0.0853721
           13          14          15          16
    1  -0.0133605   0.0945057   0.1293163   0.1454115
 Analysis of SCF Wavefunction
 
 --------------------------------------------------------------
                    Orbital Energies (a.u.)
 --------------------------------------------------------------
 
 Alpha MOs
 -- Occupied --
-18.987 -18.987 -14.350  -1.330  -1.188  -0.739  -0.649  -0.647
 -0.642  -0.457  -0.453  -0.357
 -- Virtual --
 -0.028   0.089   0.127   0.141   0.143   0.222   0.235   0.250
  0.261   0.283   0.312   0.312   0.374   0.421   0.487   0.740
  0.756   0.803   0.888   0.946   0.990   1.022   1.043   1.043
  1.093   1.101   1.110   1.116   1.422   1.486   1.518   1.548
  1.552   1.592   1.677   1.847   2.033   2.177   2.267   2.401
  2.423   2.567   3.431   3.448   3.562   3.599   3.617   3.678
  3.931   3.935   4.305   4.323   4.391   4.456   4.538   4.586
  4.650   4.869   4.880   4.897   4.946   4.961   4.992   4.995
  5.010   5.219   5.332   5.400   5.418   5.458   5.615   6.051
  6.354   6.640   6.646   6.662   6.690   6.802   6.908   6.977
  7.045   7.067   7.130   7.311   7.515   7.681   8.004  35.684
 37.126  37.297  38.168  40.168  40.258  40.337  40.464  40.564
 43.464  43.479  43.523  43.529  43.567  43.635  43.636  43.662
 43.755  43.812  45.473  45.491  45.502  45.627  46.121  46.464
 49.828  49.894
 
 Beta MOs
 -- Occupied --
-18.979 -18.979 -14.341  -1.316  -1.172  -0.713  -0.639  -0.624
 -0.613  -0.450  -0.421
 -- Virtual --
 -0.085  -0.013   0.095   0.129   0.145   0.146   0.227   0.238
  0.251   0.267   0.285   0.314   0.321   0.379   0.425   0.512
  0.763   0.765   0.808   0.905   0.963   0.999   1.041   1.047
  1.052   1.106   1.110   1.120   1.123   1.434   1.494   1.527
  1.558   1.572   1.612   1.686   1.862   2.037   2.202   2.280
  2.414   2.433   2.592   3.461   3.476   3.577   3.624   3.640
  3.686   3.944   3.949   4.330   4.334   4.403   4.468   4.575
  4.627   4.687   4.886   4.892   4.912   4.963   4.971   5.013
  5.016   5.037   5.238   5.353   5.409   5.436   5.475   5.629
  6.082   6.362   6.662   6.672   6.694   6.717   6.815   6.940
  6.991   7.050   7.081   7.143   7.339   7.530   7.699   8.032
 35.694  37.133  37.321  38.174  40.186  40.276  40.338  40.475
 40.575  43.479  43.493  43.534  43.547  43.586  43.637  43.645
 43.683  43.767  43.826  45.490  45.495  45.506  45.646  46.132
 46.473  49.836  49.902
 --------------------------------------------------------------
 
          Ground-State Mulliken Net Atomic Charges

     Atom                 Charge (a.u.)    Spin (a.u.)
  --------------------------------------------------------
      1 N                    -0.001126       0.468988
      2 O                     0.000844       0.265371
      3 O                     0.000282       0.265642
  --------------------------------------------------------
  Sum of atomic charges =     0.000000
  Sum of spin   charges =     1.000000

 -----------------------------------------------------------------
                    Cartesian Multipole Moments
 -----------------------------------------------------------------
    Charge (ESU x 10^10)
                 0.0000
    Dipole Moment (Debye)
         X      -0.2888      Y       0.0000      Z      -0.1196
       Tot       0.3126
    Quadrupole Moments (Debye-Ang)
        XX     -16.3062     XY       0.0000     YY     -14.9732
        XZ       0.6945     YZ       0.0000     ZZ     -17.6394
    Octapole Moments (Debye-Ang^2)
       XXX     -13.9943    XXY       0.0000    XYY      -4.3957
       YYY       0.0000    XXZ      -1.6725    XYZ       0.0000
       YYZ      -1.8653    XZZ      -4.8300    YZZ       0.0000
       ZZZ      -6.3177
    Hexadecapole Moments (Debye-Ang^3)
      XXXX     -37.3450   XXXY       0.0000   XXYY      -8.0574
      XYYY       0.0000   YYYY     -11.7912   XXXZ      11.4693
      XXYZ       0.0000   XYYZ       3.8025   YYYZ       0.0000
      XXZZ     -19.8714   XYZZ       0.0000   YYZZ     -15.3574
      XZZZ      11.7087   YZZZ       0.0000   ZZZZ     -81.8512
 -----------------------------------------------------------------
 Calculating analytic gradient of the SCF energy
 Gradient of AOints
            1           2           3
    1   9.7705844   1.4430344 -11.2136188
    2   0.0000000  -0.0000000  -0.0000000
    3   4.1695857 -16.9503913  12.7808057
 Gradient of XC Energy
            1           2           3
    1  -0.3737107  -0.0054666   0.3791773
    2  -0.0000000   0.0000000   0.0000000
    3  -0.1595898   0.5316967  -0.3721069
 Gradient of SCF Energy
            1           2           3
    1  -0.0005775  -0.0000899   0.0006674
    2  -0.0000000   0.0000000   0.0000000
    3   0.0005361   0.0002420  -0.0007781
 Max gradient component =       7.781E-04
 RMS gradient           =       4.395E-04
 Gradient time:  CPU 14.74 s  wall 14.79 s
Dipole drv :
gprntSymmMtrx error report: 
 Final Hessian.
            1           2           3           4           5           6
    1   0.5209840  -0.0000007  -0.2170637  -0.1015962   0.0000063  -0.0470628
    2  -0.0000007  -0.0004260   0.0000022   0.0000005  -0.0000219  -0.0000012
    3  -0.2170637   0.0000022   0.9406466  -0.0414298  -0.0000061  -0.6305663
    4  -0.1015962   0.0000005  -0.0414298   0.0720774  -0.0000029  -0.0301834
    5   0.0000063  -0.0000219  -0.0000061  -0.0000029   0.0000007   0.0000033
    6  -0.0470628  -0.0000012  -0.6305663  -0.0301834   0.0000033   0.7440242
    7  -0.4193923   0.0000002   0.2584916   0.0295208   0.0000000   0.0772443
    8   0.0000015   0.0004226   0.0000004  -0.0000007   0.0000340  -0.0000011
    9   0.2641279  -0.0000033  -0.3100865   0.0716130   0.0000038  -0.1134526
            7           8           9
    1  -0.4193923   0.0000015   0.2641279
    2   0.0000002   0.0004226  -0.0000033
    3   0.2584916   0.0000004  -0.3100865
    4   0.0295208  -0.0000007   0.0716130
    5   0.0000000   0.0000340   0.0000038
    6   0.0772443  -0.0000011  -0.1134526
    7   0.3898741  -0.0000008  -0.3357371
    8  -0.0000008  -0.0004441   0.0000019
    9  -0.3357371   0.0000019   0.4235400
 Writing REM_CC_EA            3
 ----------------------------------------------------
       Standard Nuclear Orientation (Angstroms)
    I     Atom         X            Y            Z
 ----------------------------------------------------
    1      N       0.003990     0.000000     0.001660
    2      O       0.000420     0.000000     1.196630
    3      O       0.863450     0.000000    -0.828430
 ----------------------------------------------------
 Nuclear Repulsion Energy =    64.9848850742 hartrees
 There are       12 alpha and       11 beta electrons
 old dipole drv.
            1           2           3           4           5           6
    1   0.4643292  -0.0000339  -0.6561677  -0.1346418   0.0000172   0.4930560
    2   0.0000006   0.1401091  -0.0000184  -0.0000009  -0.0700828   0.0000086
    3  -0.6565284   0.0000025   1.7239205  -0.0241969   0.0000076  -0.9594941
            7           8           9
    1  -0.3297151   0.0000246   0.1631435
    2  -0.0000010  -0.0699809   0.0000085
    3   0.6807360  -0.0000027  -0.7645457
 New transposed dipole drv.
            1           2           3
    1   0.4643292   0.0000006  -0.6565284
    2  -0.0000339   0.1401091   0.0000025
    3  -0.6561677  -0.0000184   1.7239205
    4  -0.1346418  -0.0000009  -0.0241969
    5   0.0000172  -0.0700828   0.0000076
    6   0.4930560   0.0000086  -0.9594941
    7  -0.3297151  -0.0000010   0.6807360
    8   0.0000246  -0.0699809  -0.0000027
    9   0.1631435   0.0000085  -0.7645457
FINAL TENSOR RESULT:
Order 2, Length 9
Order 1, Length 9
   0.5209840  -0.0000007  -0.2170637  -0.1015962   0.0000063  -0.0470628  -0.4193923   0.0000015   0.2641279
Order 1, Length 9
  -0.0000007  -0.0004260   0.0000022   0.0000005  -0.0000219  -0.0000012   0.0000002   0.0004226  -0.0000033
Order 1, Length 9
  -0.2170637   0.0000022   0.9406466  -0.0414298  -0.0000061  -0.6305663   0.2584916   0.0000004  -0.3100865
Order 1, Length 9
  -0.1015962   0.0000005  -0.0414298   0.0720774  -0.0000029  -0.0301834   0.0295208  -0.0000007   0.0716130
Order 1, Length 9
   0.0000063  -0.0000219  -0.0000061  -0.0000029   0.0000007   0.0000033   0.0000000   0.0000340   0.0000038
Order 1, Length 9
  -0.0470628  -0.0000012  -0.6305663  -0.0301834   0.0000033   0.7440242   0.0772443  -0.0000011  -0.1134526
Order 1, Length 9
  -0.4193923   0.0000002   0.2584916   0.0295208   0.0000000   0.0772443   0.3898741  -0.0000008  -0.3357371
Order 1, Length 9
   0.0000015   0.0004226   0.0000004  -0.0000007   0.0000340  -0.0000011  -0.0000008  -0.0004441   0.0000019
Order 1, Length 9
   0.2641279  -0.0000033  -0.3100865   0.0716130   0.0000038  -0.1134526  -0.3357371   0.0000019   0.4235400


 # Finishing finite difference calculation for IDERIV #
 ######################################################
 ######################################################
 Requested basis set is G3large
 There are 30 shells and 126 basis functions
 **********************************************************************
 **                                                                  **
 **                       VIBRATIONAL ANALYSIS                       **
 **                       --------------------                       **
 **                                                                  **
 **        VIBRATIONAL FREQUENCIES (CM**-1) AND NORMAL MODES         **
 **     FORCE CONSTANTS (mDYN/ANGSTROM) AND REDUCED MASSES (AMU)     **
 **                  INFRARED INTENSITIES (KM/MOL)                   **
 **                                                                  **
 **********************************************************************
 

 Mode:                 1                      2                      3
 Frequency:       756.99                1386.86                1718.74
 Force Cnst:      5.1154                17.3738                25.4509
 Red. Mass:      15.1516                15.3314                14.6228
 IR Active:          YES                    YES                    YES
 IR Intens:        5.227                  0.047                420.812
 Raman Active:       YES                    YES                    YES
               X      Y      Z        X      Y      Z        X      Y      Z
 N          0.599  0.000  0.255   -0.532  0.000 -0.223   -0.323  0.000  0.764
 O         -0.440  0.000  0.307    0.029  0.000  0.575    0.001  0.000 -0.397
 O         -0.084  0.000 -0.530    0.437  0.000 -0.380    0.282  0.000 -0.273
 TransDip   0.067  0.000  0.029   -0.007  0.000  0.000   -0.258  0.000  0.604

 STANDARD THERMODYNAMIC QUANTITIES AT   298.18 K  AND     1.00 ATM

   This Molecule has  0 Imaginary Frequencies
   Zero point vibrational energy:        5.522 kcal/mol

   Atom    1 Element N  Has Mass   14.00307
   Atom    2 Element O  Has Mass   15.99491
   Atom    3 Element O  Has Mass   15.99491
   Molecular Mass:    45.992890 amu
   Principal axes and moments of inertia in atomic units:
                             1           2           3
    Eigenvalues --        7.52735   138.39011   145.91746
          X              -0.39205     0.91994     0.00000
          Y               0.00000     0.00000     1.00000
          Z               0.91994     0.39205     0.00000
   Rotational Symmetry Number is   1
   The Molecule is an Asymmetric Top
   Translational Enthalpy:        0.889 kcal/mol
   Rotational Enthalpy:           0.889 kcal/mol
   Vibrational Enthalpy:          5.586 kcal/mol
   gas constant (RT):             0.593 kcal/mol
   Translational Entropy:        37.403  cal/mol.K
   Rotational Entropy:           19.658  cal/mol.K
   Vibrational Entropy:           0.269  cal/mol.K

   Total Enthalpy:                7.956 kcal/mol
   Total Entropy:                57.331  cal/mol.K
 Total job time:  900.89s(wall), 890.35s(cpu) 
 Sun Jul  7 11:33:43 2013

        *************************************************************
        *                                                           *
        *  Thank you very much for using Q-Chem.  Have a nice day.  *
        *                                                           *
        *************************************************************


0 sent ACK to 0 
now end server 0 ... 
