Process 0 of 1 is on cl087.stfx.acenet.ca - thread support 1
initial socket setup ...start
initial socket setup ...done 
now start server 0 ... 

cmd = /usr/bin/ssh clhead /usr/local/qchem/bin/get_hostid 39410289 > /scratch/tmp/5954091.1.short.q/qchem32076/lic.dat
                  Welcome to Q-Chem
     A Quantum Leap Into The Future Of Chemistry

 Y. Shao, L. Fusti-Molnar, Y. Jung, J. Kussmann, C. Ochsenfeld,
 S. T. Brown, A. T. B. Gilbert, L. V. Slipchenko,S. V. Levchenko,
 D. P. O'Neill, R. A. DiStasio Jr., R. C. Lochan, T. Wang,
 G. J. O. Beran, N. A. Besley, J. M. Herbert, C. Y. Lin,
 T. Van Voorhis, S. H. Chien, A. Sodt, R. P. Steele, 
 V. A. Rassolov, P. E. Maslen, P. P. Korambath, R. D. Adamson,
 B. Austin, J. Baker, E. F. C. Byrd, H. Dachsel, R. J. Doerksen,
 A. Dreuw, B. D. Dunietz, A. D. Dutoi, T. R. Furlani,
 S. R. Gwaltney, A. Heyden, S. Hirata, C.-P. Hsu, G. Kedziora,
 R. Z. Khaliullin, P. Klunzinger, A. M. Lee, M. S. Lee, W. Liang,
 I. Lotan, N. Nair, B. Peters, E. I. Proynov, P. A. Pieniazek, 
 Y. M. Rhee, J. Ritchie, E. Rosta, C. D. Sherrill, 
 A. C. Simmonett, J. E. Subotnik, H. L. Woodcock III,
 W. Zhang, A. T. Bell, A. K. Chakraborty, D. M. Chipman,
 F. J. Keil, A. Warshel, W. J. Hehre, H. F. Schaefer III,
 J. Kong, A. I. Krylov, P. M. W. Gill, M. Head-Gordon,
 Q-Chem, Version 3.1, Q-Chem, Inc., Pittsburgh, PA (2007).

 Additional authors for Version 3.1: 
 Z. Gan, Y. Zhao, N. E. Schultz, D. Truhlar, E. Epifanovsky and M. Oana.

 Additional authors for Version 3.2: 
 R. Baer, B. R. Brooks, D. Casanova, J.-D. Chai, C.-L. Cheng, 
 C. Cramer, D. Crittenden, A. Ghysels, G. Hawkins, E. G. Hohenstein, 
 C. Kelley, W. Kurlancheek, D. Liotard, E. Livshits, P. Manohar, 
 A. Marenich, D. Neuhauser, R. Olson, M. A. Rohrdanz, K. S. Thanthiriwatte, 
 A. J. W. Thom, V. Vanovschi, C. F. Williams, Q. Wu and Z.-Q. You. 


 Intel X86 Linux Version

 Q-chem begins on Wed Apr 24 14:56:50 2013  

 Parallel job on  1  processors
Processing $rem in /usr/local/qchem/config/preferences.

theFileMan(): MAXOPENFILES=974 MAX_SUB_FILE_NUM=16
Maximum size of a physical file is 2.0 GB, maximum size of a tmp-file is 32.0 GB


--------------------------------------------------------------
User input:
--------------------------------------------------------------

$molecule
-1,2
P
X,1,1.
H,1,R,2,BETA
H,1,R,2,BETA,3,120.,0
H,1,R,2,BETA,3,-120.,0

 R=1.42430407
 BETA=122.85357649

$end

$comment
negative
$end

$xc_functional
C PBE   1.00
X wPBE  1.00
$end

$rem
SYMMETRY_DECOMPOSITION	0
exchange 		general
LRC_DFT                 true
BASIS                   g3large
omega			800
mem_static              760
max_scf_cycles          200
scf_final_print         1
sym_ignore              true
$end

--------------------------------------------------------------
 Writing REM_CC_EA            4
 ----------------------------------------------------
       Standard Nuclear Orientation (Angstroms)
    I     Atom         X            Y            Z
 ----------------------------------------------------
    1      P       0.000000     0.000000     0.000000
    2      H       1.196500     0.000000    -0.772676
    3      H      -0.598250    -1.036200    -0.772676
    4      H      -0.598250     1.036200    -0.772676
 ----------------------------------------------------
 Nuclear Repulsion Energy =    17.4850598936 hartrees
 There are       10 alpha and        9 beta electrons
 Requested basis set is G3large
 There are 37 shells and 96 basis functions

Total QAlloc Memory Limit   2000 MB
Mega-Array Size       743 MB
MEM_STATIC part       760 MB

                       Distance Matrix (Angstroms)
             P (  1)   H (  2)   H (  3)
   H (  2)  1.424304
   H (  3)  1.424304  2.072400
   H (  4)  1.424304  2.072400  2.072400
 
 A cutoff of  1.0D-08 yielded    703 shell pairs
 There are   4798 function pairs (  6229 Cartesian)
Evaluating contribution to one-electron hamiltonian from nuclear
 Smallest overlap matrix eigenvalue = 9.84E-04
 Multipole matrices computed through 2nd order

  Scale SEOQF with 1.000000e-01/1.000000e-01/1.000000e-01

 Standard Electronic Orientation quadrupole field applied
 Guess from superposition of atomic densities
 Warning:  Energy on first SCF cycle will be non-variational
 Long-range K will be added via erf
 Coulomb attenuation parameter = 0.8 bohr**(-1)
 An unrestricted Kohn-Sham SCF calculation will be
 performed using Pulay DIIS extrapolation
 Exchange:  wPBE + LR-HF      Correlation:  PBE
 Using SG-1 standard quadrature grid
 SCF converges when DIIS error is below 1.0E-05
 Requested basis set is G3large
 There are 37 shells and 96 basis functions
 A cutoff of  1.0D-08 yielded    703 shell pairs
 There are   4798 function pairs (  6229 Cartesian)
 Warning!  Inaccurate integrated density:
   Number of electrons =    19
   Numerical integral  =    17.999977668261
   Relative error      =    -5.2632754302 %
 ---------------------------------------
  Cycle       Energy         DIIS Error
 ---------------------------------------
    1    -342.9323804584      3.17E-02
    2    -343.0313946841      1.99E-03
    3    -343.0463197942      8.77E-04
    4    -343.0488786050      3.51E-04
    5    -343.0495707418      8.46E-05
    6    -343.0496597836      2.61E-05
    7    -343.0496748260      8.94E-06 Convergence criterion met
 ---------------------------------------
 One-Electron    Energy =  -511.2044500783
 Total Coulomb   Energy =   175.0032563990
 Alpha Exchange  Energy =    -3.2137961444
 Beta  Exchange  Energy =    -3.1422561309
 DFT   Exchange  Energy =   -17.3254085240
 DFT Correlation Energy =    -0.6520802410
 Nuclear Repu.   Energy =    17.4850598936
 Nuclear Attr.   Energy =  -853.6300355596
 Kinetic         Energy =   342.4255854813
 <S^2> = 0.7504
 SCF time:  CPU 15.25 s  wall 16.16 s
 Final Alpha MO Eigenvalues
            1           2           3           4           5           6
    1 -76.5851642  -6.6036839  -4.7811504  -4.7811454  -4.7760642  -0.7166626
            7           8           9          10          11          12
    1  -0.3890401  -0.3890365  -0.2673456   0.0292396   0.1679027   0.1679082
           13          14          15
    1   0.1833001   0.1935875   0.1935895
 Final Beta MO Eigenvalues
            1           2           3           4           5           6
    1 -76.5848794  -6.6032707  -4.7808264  -4.7808217  -4.7756049  -0.7122114
            7           8           9          10          11          12
    1  -0.3883600  -0.3883568  -0.2670777   0.1453886   0.1848877   0.1849000
           13          14
    1   0.1940262   0.1960693
 Analysis of SCF Wavefunction
 
 --------------------------------------------------------------
                    Orbital Energies (a.u.)
 --------------------------------------------------------------
 
 Alpha MOs
 -- Occupied --
-76.585  -6.604  -4.781  -4.781  -4.776  -0.717  -0.389  -0.389
 -0.267   0.029
 -- Virtual --
  0.168   0.168   0.183   0.194   0.194   0.287   0.305   0.305
  0.371   0.413   0.413   0.439   0.508   0.508   0.557   0.601
  0.601   0.753   0.778   0.778   0.918   0.926   0.935   0.935
  0.974   1.100   1.100   1.122   1.122   1.134   1.197   1.213
  1.213   1.332   1.367   1.367   1.544   1.597   1.597   1.665
  1.796   1.796   1.811   1.939   1.939   3.074   3.074   3.202
  3.222   3.222   3.242   3.263   3.298   3.298   3.481   4.288
  4.288   4.308   4.337   4.351   4.351   4.451   4.452   4.467
  4.496   4.496   4.672   5.369   5.370   7.429  13.385  13.387
 13.387  21.704  21.735  21.817  22.068  22.103  28.580  28.580
 28.589  28.590  28.608  28.613  28.613 163.899
 
 Beta MOs
 -- Occupied --
-76.585  -6.603  -4.781  -4.781  -4.776  -0.712  -0.388  -0.388
 -0.267
 -- Virtual --
  0.145   0.185   0.185   0.194   0.196   0.196   0.293   0.306
  0.306   0.375   0.414   0.414   0.438   0.510   0.510   0.559
  0.598   0.598   0.751   0.778   0.778   0.918   0.927   0.935
  0.935   0.975   1.098   1.098   1.122   1.122   1.135   1.197
  1.213   1.213   1.332   1.367   1.367   1.545   1.597   1.597
  1.664   1.797   1.797   1.812   1.938   1.938   3.074   3.074
  3.203   3.223   3.223   3.243   3.264   3.298   3.298   3.480
  4.288   4.288   4.307   4.336   4.350   4.351   4.451   4.452
  4.467   4.496   4.496   4.672   5.370   5.370   7.430  13.385
 13.388  13.388  21.705  21.735  21.818  22.069  22.103  28.580
 28.580  28.589  28.591  28.609  28.613  28.613 163.899
 --------------------------------------------------------------
 
          Ground-State Mulliken Net Atomic Charges

     Atom                 Charge (a.u.)    Spin (a.u.)
  --------------------------------------------------------
      1 P                     4.375541      -4.370036
      2 H                    -1.791877       1.790121
      3 H                    -1.791817       1.789943
      4 H                    -1.791848       1.789972
  --------------------------------------------------------
  Sum of atomic charges =    -1.000000
  Sum of spin   charges =     1.000000

 -----------------------------------------------------------------
                    Cartesian Multipole Moments
 -----------------------------------------------------------------
    Charge (ESU x 10^10)
                -4.8032
    Dipole Moment (Debye)
         X      -0.0010      Y      -0.0001      Z       3.1342
       Tot       3.1342
    Quadrupole Moments (Debye-Ang)
        XX     -40.3325     XY       0.0001     YY     -40.3309
        XZ       0.0007     YZ       0.0001     ZZ     -38.7338
    Octapole Moments (Debye-Ang^2)
       XXX     -10.1086    XXY      -0.0004    XYY      10.0947
       YYY      -0.0013    XXZ      23.0176    XYZ      -0.0001
       YYZ      23.0173    XZZ      -0.0033    YZZ      -0.0005
       ZZZ      40.3075
    Hexadecapole Moments (Debye-Ang^3)
      XXXX    -334.2333   XXXY       0.0007   XXYY    -111.4058
      XYYY       0.0009   YYYY    -334.2048   XXXZ       7.4278
      XXYZ       0.0004   XYYZ      -7.4163   YYYZ       0.0013
      XXZZ    -106.5585   XYZZ       0.0003   YYZZ    -106.5542
      XZZZ       0.0078   YZZZ       0.0011   ZZZZ    -272.2908
 -----------------------------------------------------------------
 Total job time:  16.28s(wall), 15.35s(cpu) 
 Wed Apr 24 14:57:06 2013

        *************************************************************
        *                                                           *
        *  Thank you very much for using Q-Chem.  Have a nice day.  *
        *                                                           *
        *************************************************************


0 sent ACK to 0 
now end server 0 ... 
 
**********************************************************************
Job 2 of 3 
**********************************************************************
 
Process 0 of 1 is on cl087.stfx.acenet.ca - thread support 1
initial socket setup ...start
initial socket setup ...done 
now start server 0 ... 

cmd = /usr/bin/ssh clhead /usr/local/qchem/bin/get_hostid 1475326476 > /scratch/tmp/5954091.1.short.q/qchem32076/lic.dat
                  Welcome to Q-Chem
     A Quantum Leap Into The Future Of Chemistry

 Y. Shao, L. Fusti-Molnar, Y. Jung, J. Kussmann, C. Ochsenfeld,
 S. T. Brown, A. T. B. Gilbert, L. V. Slipchenko,S. V. Levchenko,
 D. P. O'Neill, R. A. DiStasio Jr., R. C. Lochan, T. Wang,
 G. J. O. Beran, N. A. Besley, J. M. Herbert, C. Y. Lin,
 T. Van Voorhis, S. H. Chien, A. Sodt, R. P. Steele, 
 V. A. Rassolov, P. E. Maslen, P. P. Korambath, R. D. Adamson,
 B. Austin, J. Baker, E. F. C. Byrd, H. Dachsel, R. J. Doerksen,
 A. Dreuw, B. D. Dunietz, A. D. Dutoi, T. R. Furlani,
 S. R. Gwaltney, A. Heyden, S. Hirata, C.-P. Hsu, G. Kedziora,
 R. Z. Khaliullin, P. Klunzinger, A. M. Lee, M. S. Lee, W. Liang,
 I. Lotan, N. Nair, B. Peters, E. I. Proynov, P. A. Pieniazek, 
 Y. M. Rhee, J. Ritchie, E. Rosta, C. D. Sherrill, 
 A. C. Simmonett, J. E. Subotnik, H. L. Woodcock III,
 W. Zhang, A. T. Bell, A. K. Chakraborty, D. M. Chipman,
 F. J. Keil, A. Warshel, W. J. Hehre, H. F. Schaefer III,
 J. Kong, A. I. Krylov, P. M. W. Gill, M. Head-Gordon,
 Q-Chem, Version 3.1, Q-Chem, Inc., Pittsburgh, PA (2007).

 Additional authors for Version 3.1: 
 Z. Gan, Y. Zhao, N. E. Schultz, D. Truhlar, E. Epifanovsky and M. Oana.

 Additional authors for Version 3.2: 
 R. Baer, B. R. Brooks, D. Casanova, J.-D. Chai, C.-L. Cheng, 
 C. Cramer, D. Crittenden, A. Ghysels, G. Hawkins, E. G. Hohenstein, 
 C. Kelley, W. Kurlancheek, D. Liotard, E. Livshits, P. Manohar, 
 A. Marenich, D. Neuhauser, R. Olson, M. A. Rohrdanz, K. S. Thanthiriwatte, 
 A. J. W. Thom, V. Vanovschi, C. F. Williams, Q. Wu and Z.-Q. You. 


 Intel X86 Linux Version

 Q-chem begins on Wed Apr 24 14:57:09 2013  

 Parallel job on  1  processors
Processing $rem in /usr/local/qchem/config/preferences.

theFileMan(): MAXOPENFILES=974 MAX_SUB_FILE_NUM=16
Maximum size of a physical file is 2.0 GB, maximum size of a tmp-file is 32.0 GB


--------------------------------------------------------------
User input:
--------------------------------------------------------------

$molecule
0,1
P
X,1,1.
H,1,R,2,BETA
H,1,R,2,BETA,3,120.,0
H,1,R,2,BETA,3,-120.,0

 R=1.42430407
 BETA=122.85357649

$end

$comment
neutral
$end

$xc_functional
C PBE   1.00
X wPBE  1.00
$end


$rem
SYMMETRY_DECOMPOSITION	0
LRC_DFT                 true
exchange 		general
BASIS                   g3large
omega			800
mem_static              760
max_scf_cycles          200
scf_final_print         1
sym_ignore              true
$end

--------------------------------------------------------------
 Writing REM_CC_EA            4
 ----------------------------------------------------
       Standard Nuclear Orientation (Angstroms)
    I     Atom         X            Y            Z
 ----------------------------------------------------
    1      P       0.000000     0.000000     0.000000
    2      H       1.196500     0.000000    -0.772676
    3      H      -0.598250    -1.036200    -0.772676
    4      H      -0.598250     1.036200    -0.772676
 ----------------------------------------------------
 Nuclear Repulsion Energy =    17.4850598936 hartrees
 There are        9 alpha and        9 beta electrons
 Requested basis set is G3large
 There are 37 shells and 96 basis functions

Total QAlloc Memory Limit   2000 MB
Mega-Array Size       743 MB
MEM_STATIC part       760 MB

                       Distance Matrix (Angstroms)
             P (  1)   H (  2)   H (  3)
   H (  2)  1.424304
   H (  3)  1.424304  2.072400
   H (  4)  1.424304  2.072400  2.072400
 
 A cutoff of  1.0D-08 yielded    703 shell pairs
 There are   4798 function pairs (  6229 Cartesian)
Evaluating contribution to one-electron hamiltonian from nuclear
 Smallest overlap matrix eigenvalue = 9.84E-04
 Multipole matrices computed through 2nd order

  Scale SEOQF with 1.000000e-01/1.000000e-01/1.000000e-01

 Standard Electronic Orientation quadrupole field applied
 Guess from superposition of atomic densities
 Warning:  Energy on first SCF cycle will be non-variational
 Long-range K will be added via erf
 Coulomb attenuation parameter = 0.8 bohr**(-1)
 A restricted Kohn-Sham SCF calculation will be
 performed using Pulay DIIS extrapolation
 Exchange:  wPBE + LR-HF      Correlation:  PBE
 Using SG-1 standard quadrature grid
 SCF converges when DIIS error is below 1.0E-05
 Requested basis set is G3large
 There are 37 shells and 96 basis functions
 A cutoff of  1.0D-08 yielded    703 shell pairs
 There are   4798 function pairs (  6229 Cartesian)
 ---------------------------------------
  Cycle       Energy         DIIS Error
 ---------------------------------------
    1    -342.9323804584      3.17E-02
    2    -343.0705032360      2.15E-03
    3    -343.0819144485      7.39E-04
    4    -343.0831385746      2.56E-04
    5    -343.0833467265      6.13E-05
    6    -343.0833612011      1.62E-05
    7    -343.0833618449      3.99E-06 Convergence criterion met
 ---------------------------------------
 One-Electron    Energy =  -508.4943622230
 Total Coulomb   Energy =   172.1851841830
 Alpha Exchange  Energy =    -3.1454427326
 Beta  Exchange  Energy =    -3.1454427326
 DFT   Exchange  Energy =   -17.3237603993
 DFT Correlation Energy =    -0.6445978340
 Nuclear Repu.   Energy =    17.4850598936
 Nuclear Attr.   Energy =  -850.8495126143
 Kinetic         Energy =   342.3551503913
 SCF time:  CPU 12.66 s  wall 13.32 s
 Final Alpha MO Eigenvalues
            1           2           3           4           5           6
    1 -76.7394656  -6.7571445  -4.9347016  -4.9346969  -4.9295164  -0.8659511
            7           8           9          10          11          12
    1  -0.5415134  -0.5415103  -0.4160776   0.0398232   0.0818070   0.0818073
           13          14
    1   0.0851094   0.0851105
 Analysis of SCF Wavefunction
 
 --------------------------------------------------------------
                    Orbital Energies (a.u.)
 --------------------------------------------------------------
 
 Alpha MOs
 -- Occupied --
-76.739  -6.757  -4.935  -4.935  -4.930  -0.866  -0.542  -0.542
 -0.416
 -- Virtual --
  0.040   0.082   0.082   0.085   0.085   0.093   0.172   0.172
  0.172   0.236   0.267   0.267   0.301   0.372   0.372   0.424
  0.463   0.463   0.608   0.633   0.633   0.767   0.783   0.787
  0.787   0.826   0.954   0.954   0.974   0.974   0.987   1.050
  1.063   1.063   1.181   1.218   1.218   1.393   1.447   1.447
  1.516   1.646   1.646   1.664   1.790   1.790   2.923   2.923
  3.051   3.071   3.071   3.091   3.112   3.147   3.147   3.330
  4.135   4.135   4.155   4.183   4.198   4.198   4.298   4.299
  4.315   4.343   4.344   4.520   5.217   5.217   7.276  13.232
 13.234  13.234  21.551  21.582  21.664  21.915  21.949  28.426
 28.426  28.436  28.437  28.455  28.459  28.459 163.745
 --------------------------------------------------------------
 
          Ground-State Mulliken Net Atomic Charges

     Atom                 Charge (a.u.)
  ----------------------------------------
      1 P                     0.005557
      2 H                    -0.001821
      3 H                    -0.001868
      4 H                    -0.001867
  ----------------------------------------
  Sum of atomic charges =     0.000000

 -----------------------------------------------------------------
                    Cartesian Multipole Moments
 -----------------------------------------------------------------
    Charge (ESU x 10^10)
                 0.0000
    Dipole Moment (Debye)
         X       0.0001      Y       0.0000      Z      -0.7502
       Tot       0.7502
    Quadrupole Moments (Debye-Ang)
        XX     -14.4893     XY       0.0000     YY     -14.4894
        XZ      -0.0001     YZ       0.0000     ZZ     -16.6033
    Octapole Moments (Debye-Ang^2)
       XXX       0.1074    XXY       0.0000    XYY      -0.1071
       YYY       0.0000    XXZ       1.4097    XYZ       0.0000
       YYZ       1.4098    XZZ       0.0001    YZZ       0.0000
       ZZZ       4.8443
    Hexadecapole Moments (Debye-Ang^3)
      XXXX     -29.8519   XXXY       0.0000   XXYY      -9.9507
      XYYY       0.0000   YYYY     -29.8519   XXXZ      -0.7946
      XXYZ       0.0000   XYYZ       0.7943   YYYZ       0.0000
      XXZZ     -10.3733   XYZZ       0.0000   YYZZ     -10.3734
      XZZZ      -0.0002   YZZZ       0.0000   ZZZZ     -35.5974
 -----------------------------------------------------------------
 Total job time:  13.44s(wall), 12.76s(cpu) 
 Wed Apr 24 14:57:23 2013

        *************************************************************
        *                                                           *
        *  Thank you very much for using Q-Chem.  Have a nice day.  *
        *                                                           *
        *************************************************************


0 sent ACK to 0 
now end server 0 ... 
 
**********************************************************************
Job 3 of 3 
**********************************************************************
 
Process 0 of 1 is on cl087.stfx.acenet.ca - thread support 1
initial socket setup ...start
initial socket setup ...done 
now start server 0 ... 

cmd = /usr/bin/ssh clhead /usr/local/qchem/bin/get_hostid 903152759 > /scratch/tmp/5954091.1.short.q/qchem32076/lic.dat
                  Welcome to Q-Chem
     A Quantum Leap Into The Future Of Chemistry

 Y. Shao, L. Fusti-Molnar, Y. Jung, J. Kussmann, C. Ochsenfeld,
 S. T. Brown, A. T. B. Gilbert, L. V. Slipchenko,S. V. Levchenko,
 D. P. O'Neill, R. A. DiStasio Jr., R. C. Lochan, T. Wang,
 G. J. O. Beran, N. A. Besley, J. M. Herbert, C. Y. Lin,
 T. Van Voorhis, S. H. Chien, A. Sodt, R. P. Steele, 
 V. A. Rassolov, P. E. Maslen, P. P. Korambath, R. D. Adamson,
 B. Austin, J. Baker, E. F. C. Byrd, H. Dachsel, R. J. Doerksen,
 A. Dreuw, B. D. Dunietz, A. D. Dutoi, T. R. Furlani,
 S. R. Gwaltney, A. Heyden, S. Hirata, C.-P. Hsu, G. Kedziora,
 R. Z. Khaliullin, P. Klunzinger, A. M. Lee, M. S. Lee, W. Liang,
 I. Lotan, N. Nair, B. Peters, E. I. Proynov, P. A. Pieniazek, 
 Y. M. Rhee, J. Ritchie, E. Rosta, C. D. Sherrill, 
 A. C. Simmonett, J. E. Subotnik, H. L. Woodcock III,
 W. Zhang, A. T. Bell, A. K. Chakraborty, D. M. Chipman,
 F. J. Keil, A. Warshel, W. J. Hehre, H. F. Schaefer III,
 J. Kong, A. I. Krylov, P. M. W. Gill, M. Head-Gordon,
 Q-Chem, Version 3.1, Q-Chem, Inc., Pittsburgh, PA (2007).

 Additional authors for Version 3.1: 
 Z. Gan, Y. Zhao, N. E. Schultz, D. Truhlar, E. Epifanovsky and M. Oana.

 Additional authors for Version 3.2: 
 R. Baer, B. R. Brooks, D. Casanova, J.-D. Chai, C.-L. Cheng, 
 C. Cramer, D. Crittenden, A. Ghysels, G. Hawkins, E. G. Hohenstein, 
 C. Kelley, W. Kurlancheek, D. Liotard, E. Livshits, P. Manohar, 
 A. Marenich, D. Neuhauser, R. Olson, M. A. Rohrdanz, K. S. Thanthiriwatte, 
 A. J. W. Thom, V. Vanovschi, C. F. Williams, Q. Wu and Z.-Q. You. 


 Intel X86 Linux Version

 Q-chem begins on Wed Apr 24 14:57:25 2013  

 Parallel job on  1  processors
Processing $rem in /usr/local/qchem/config/preferences.

theFileMan(): MAXOPENFILES=974 MAX_SUB_FILE_NUM=16
Maximum size of a physical file is 2.0 GB, maximum size of a tmp-file is 32.0 GB


--------------------------------------------------------------
User input:
--------------------------------------------------------------

$molecule
1,2
P
X,1,1.
H,1,R,2,BETA
H,1,R,2,BETA,3,120.,0
H,1,R,2,BETA,3,-120.,0

 R=1.42430407
 BETA=122.85357649

$end

$comment
positive
$end

$xc_functional
C PBE   1.00
X wPBE  1.00
$end

$rem
SYMMETRY_DECOMPOSITION	0
LRC_DFT                 true
exchange 		general
BASIS                   g3large
omega			800
mem_static              760
max_scf_cycles          200
scf_final_print         1
sym_ignore              true
$end

--------------------------------------------------------------
 Writing REM_CC_EA            4
 ----------------------------------------------------
       Standard Nuclear Orientation (Angstroms)
    I     Atom         X            Y            Z
 ----------------------------------------------------
    1      P       0.000000     0.000000     0.000000
    2      H       1.196500     0.000000    -0.772676
    3      H      -0.598250    -1.036200    -0.772676
    4      H      -0.598250     1.036200    -0.772676
 ----------------------------------------------------
 Nuclear Repulsion Energy =    17.4850598936 hartrees
 There are        9 alpha and        8 beta electrons
 Requested basis set is G3large
 There are 37 shells and 96 basis functions

Total QAlloc Memory Limit   2000 MB
Mega-Array Size       743 MB
MEM_STATIC part       760 MB

                       Distance Matrix (Angstroms)
             P (  1)   H (  2)   H (  3)
   H (  2)  1.424304
   H (  3)  1.424304  2.072400
   H (  4)  1.424304  2.072400  2.072400
 
 A cutoff of  1.0D-08 yielded    703 shell pairs
 There are   4798 function pairs (  6229 Cartesian)
Evaluating contribution to one-electron hamiltonian from nuclear
 Smallest overlap matrix eigenvalue = 9.84E-04
 Multipole matrices computed through 2nd order

  Scale SEOQF with 1.000000e-01/1.000000e-01/1.000000e-01

 Standard Electronic Orientation quadrupole field applied
 Guess from superposition of atomic densities
 Warning:  Energy on first SCF cycle will be non-variational
 Long-range K will be added via erf
 Coulomb attenuation parameter = 0.8 bohr**(-1)
 An unrestricted Kohn-Sham SCF calculation will be
 performed using Pulay DIIS extrapolation
 Exchange:  wPBE + LR-HF      Correlation:  PBE
 Using SG-1 standard quadrature grid
 SCF converges when DIIS error is below 1.0E-05
 Requested basis set is G3large
 There are 37 shells and 96 basis functions
 A cutoff of  1.0D-08 yielded    703 shell pairs
 There are   4798 function pairs (  6229 Cartesian)
 Warning!  Inaccurate integrated density:
   Number of electrons =    17
   Numerical integral  =    17.999977668261
   Relative error      =     5.8822215780 %
 ---------------------------------------
  Cycle       Energy         DIIS Error
 ---------------------------------------
    1    -342.9323804584      3.17E-02
    2    -342.6452759422      4.50E-03
    3    -342.6939010018      1.71E-03
    4    -342.6973167105      4.85E-04
    5    -342.6979378614      1.33E-04
    6    -342.6980487207      3.81E-05
    7    -342.6980601221      7.30E-06 Convergence criterion met
 ---------------------------------------
 One-Electron    Energy =  -502.4257382918
 Total Coulomb   Energy =   166.2205163889
 Alpha Exchange  Energy =    -3.1790186473
 Beta  Exchange  Energy =    -2.9083481099
 DFT   Exchange  Energy =   -17.2833720295
 DFT Correlation Energy =    -0.6071593261
 Nuclear Repu.   Energy =    17.4850598936
 Nuclear Attr.   Energy =  -844.4153640138
 Kinetic         Energy =   341.9896257220
 <S^2> = 0.7540
 SCF time:  CPU 14.99 s  wall 16.16 s
 Final Alpha MO Eigenvalues
            1           2           3           4           5           6
    1 -77.1038511  -7.1179373  -5.2998845  -5.2922054  -5.2922008  -1.1968131
            7           8           9          10          11          12
    1  -0.8412578  -0.8412549  -0.7950504  -0.1577391  -0.1577339  -0.1277585
           13          14
    1  -0.0712962  -0.0703156
 Final Beta MO Eigenvalues
            1           2           3           4           5           6
    1 -77.0994458  -7.1128807  -5.2890485  -5.2890427  -5.2872111  -1.1399812
            7           8           9          10          11          12
    1  -0.8279508  -0.8279480  -0.3572764  -0.1244667  -0.1244648  -0.1244586
           13
    1  -0.0693850
 Analysis of SCF Wavefunction
 
 --------------------------------------------------------------
                    Orbital Energies (a.u.)
 --------------------------------------------------------------
 
 Alpha MOs
 -- Occupied --
-77.104  -7.118  -5.300  -5.292  -5.292  -1.197  -0.841  -0.841
 -0.795
 -- Virtual --
 -0.158  -0.158  -0.128  -0.071  -0.070  -0.070  -0.021  -0.009
 -0.009  -0.001  -0.001   0.004   0.077   0.163   0.163   0.182
  0.239   0.239   0.363   0.377   0.377   0.503   0.505   0.505
  0.523   0.548   0.661   0.666   0.666   0.675   0.675   0.772
  0.798   0.798   0.920   0.947   0.947   1.118   1.178   1.178
  1.252   1.332   1.351   1.351   1.481   1.481   2.620   2.620
  2.713   2.713   2.726   2.751   2.770   2.823   2.823   3.041
  3.840   3.840   3.849   3.887   3.887   3.892   3.966   3.978
  3.980   4.021   4.021   4.219   4.886   4.886   6.925  12.863
 12.881  12.881  21.182  21.223  21.304  21.552  21.588  28.066
 28.069  28.072  28.077  28.096  28.099  28.099 163.381
 
 Beta MOs
 -- Occupied --
-77.099  -7.113  -5.289  -5.289  -5.287  -1.140  -0.828  -0.828
 -- Virtual --
 -0.357  -0.124  -0.124  -0.124  -0.069  -0.069  -0.060  -0.005
 -0.005   0.006   0.013   0.019   0.019   0.094   0.166   0.166
  0.212   0.250   0.250   0.372   0.387   0.387   0.505   0.522
  0.522   0.533   0.560   0.679   0.680   0.698   0.698   0.701
  0.787   0.804   0.804   0.926   0.956   0.956   1.127   1.182
  1.183   1.259   1.359   1.359   1.369   1.498   1.498   2.632
  2.632   2.734   2.747   2.747   2.778   2.788   2.842   2.842
  3.049   3.846   3.846   3.858   3.893   3.894   3.898   3.978
  3.985   3.987   4.029   4.029   4.227   4.894   4.895   6.934
 12.880  12.884  12.884  21.195  21.228  21.310  21.560  21.595
 28.069  28.072  28.077  28.080  28.099  28.102  28.102 163.386
 --------------------------------------------------------------
 
          Ground-State Mulliken Net Atomic Charges

     Atom                 Charge (a.u.)    Spin (a.u.)
  --------------------------------------------------------
      1 P                     0.633086       0.887905
      2 H                     0.122340       0.037368
      3 H                     0.122287       0.037362
      4 H                     0.122287       0.037365
  --------------------------------------------------------
  Sum of atomic charges =     1.000000
  Sum of spin   charges =     1.000000

 -----------------------------------------------------------------
                    Cartesian Multipole Moments
 -----------------------------------------------------------------
    Charge (ESU x 10^10)
                 4.8032
    Dipole Moment (Debye)
         X       0.0001      Y       0.0000      Z      -0.8033
       Tot       0.8033
    Quadrupole Moments (Debye-Ang)
        XX     -10.4265     XY       0.0000     YY     -10.4267
        XZ      -0.0001     YZ       0.0000     ZZ      -9.8564
    Octapole Moments (Debye-Ang^2)
       XXX       1.1157    XXY       0.0000    XYY      -1.1153
       YYY       0.0000    XXZ       0.1387    XYZ       0.0000
       YYZ       0.1388    XZZ       0.0001    YZZ       0.0000
       ZZZ       3.4619
    Hexadecapole Moments (Debye-Ang^3)
      XXXX     -19.5821   XXXY       0.0000   XXYY      -6.5275
      XYYY       0.0000   YYYY     -19.5823   XXXZ      -1.6936
      XXYZ       0.0000   XYYZ       1.6934   YYYZ       0.0000
      XXZZ      -4.9145   XYZZ       0.0000   YYZZ      -4.9145
      XZZZ      -0.0002   YZZZ       0.0000   ZZZZ     -18.0175
 -----------------------------------------------------------------
 Total job time:  16.28s(wall), 15.09s(cpu) 
 Wed Apr 24 14:57:42 2013

        *************************************************************
        *                                                           *
        *  Thank you very much for using Q-Chem.  Have a nice day.  *
        *                                                           *
        *************************************************************


0 sent ACK to 0 
now end server 0 ... 
