Process 0 of 1 is on cl237.stfx.acenet.ca - thread support 1
initial socket setup ...start
initial socket setup ...done 
now start server 0 ... 

cmd = /usr/bin/ssh clhead /usr/local/qchem/bin/get_hostid 1879199104 > /scratch/tmp/6064613.1.long.q/qchem26267/lic.dat
                  Welcome to Q-Chem
     A Quantum Leap Into The Future Of Chemistry

 Y. Shao, L. Fusti-Molnar, Y. Jung, J. Kussmann, C. Ochsenfeld,
 S. T. Brown, A. T. B. Gilbert, L. V. Slipchenko,S. V. Levchenko,
 D. P. O'Neill, R. A. DiStasio Jr., R. C. Lochan, T. Wang,
 G. J. O. Beran, N. A. Besley, J. M. Herbert, C. Y. Lin,
 T. Van Voorhis, S. H. Chien, A. Sodt, R. P. Steele, 
 V. A. Rassolov, P. E. Maslen, P. P. Korambath, R. D. Adamson,
 B. Austin, J. Baker, E. F. C. Byrd, H. Dachsel, R. J. Doerksen,
 A. Dreuw, B. D. Dunietz, A. D. Dutoi, T. R. Furlani,
 S. R. Gwaltney, A. Heyden, S. Hirata, C.-P. Hsu, G. Kedziora,
 R. Z. Khaliullin, P. Klunzinger, A. M. Lee, M. S. Lee, W. Liang,
 I. Lotan, N. Nair, B. Peters, E. I. Proynov, P. A. Pieniazek, 
 Y. M. Rhee, J. Ritchie, E. Rosta, C. D. Sherrill, 
 A. C. Simmonett, J. E. Subotnik, H. L. Woodcock III,
 W. Zhang, A. T. Bell, A. K. Chakraborty, D. M. Chipman,
 F. J. Keil, A. Warshel, W. J. Hehre, H. F. Schaefer III,
 J. Kong, A. I. Krylov, P. M. W. Gill, M. Head-Gordon,
 Q-Chem, Version 3.1, Q-Chem, Inc., Pittsburgh, PA (2007).

 Additional authors for Version 3.1: 
 Z. Gan, Y. Zhao, N. E. Schultz, D. Truhlar, E. Epifanovsky and M. Oana.

 Additional authors for Version 3.2: 
 R. Baer, B. R. Brooks, D. Casanova, J.-D. Chai, C.-L. Cheng, 
 C. Cramer, D. Crittenden, A. Ghysels, G. Hawkins, E. G. Hohenstein, 
 C. Kelley, W. Kurlancheek, D. Liotard, E. Livshits, P. Manohar, 
 A. Marenich, D. Neuhauser, R. Olson, M. A. Rohrdanz, K. S. Thanthiriwatte, 
 A. J. W. Thom, V. Vanovschi, C. F. Williams, Q. Wu and Z.-Q. You. 


 Intel X86 Linux Version

 Q-chem begins on Mon Jul  8 12:24:21 2013  

 Parallel job on  1  processors
Processing $rem in /usr/local/qchem/config/preferences.

theFileMan(): MAXOPENFILES=974 MAX_SUB_FILE_NUM=16
Maximum size of a physical file is 2.0 GB, maximum size of a tmp-file is 32.0 GB


--------------------------------------------------------------
User input:
--------------------------------------------------------------

$molecule
-1,2
F          0.00000        0.00000        0.01141
H          0.00000        0.00000        0.92248
$end

$comment
negative
$end

$xc_functional
C PBE   1.00
X wPBE  1.00
$end

$rem
SYMMETRY_DECOMPOSITION	0
exchange 		general
LRC_DFT                 true
BASIS                   g3large
omega			300
mem_static              760
max_scf_cycles          200
scf_final_print         1
sym_ignore              true
$end

--------------------------------------------------------------
 Writing REM_CC_EA            2
 ----------------------------------------------------
       Standard Nuclear Orientation (Angstroms)
    I     Atom         X            Y            Z
 ----------------------------------------------------
    1      F       0.000000     0.000000     0.011410
    2      H       0.000000     0.000000     0.922480
 ----------------------------------------------------
 Nuclear Repulsion Energy =     5.2274741756 hartrees
 There are        6 alpha and        5 beta electrons
 Requested basis set is G3large
 There are 16 shells and 52 basis functions

Total QAlloc Memory Limit   2000 MB
Mega-Array Size       743 MB
MEM_STATIC part       760 MB

                       Distance Matrix (Angstroms)
             F (  1)
   H (  2)  0.911070
 
 A cutoff of  1.0D-08 yielded    136 shell pairs
 There are   1462 function pairs (  1834 Cartesian)
Evaluating contribution to one-electron hamiltonian from nuclear
 Smallest overlap matrix eigenvalue = 4.76E-03
 Multipole matrices computed through 2nd order

  Scale SEOQF with 1.000000e+00/1.000000e+00/1.000000e+00

 Standard Electronic Orientation quadrupole field applied
 Nucleus-field energy     =    -0.0000000009 hartrees
 Guess from superposition of atomic densities
 Warning:  Energy on first SCF cycle will be non-variational
 Long-range K will be added via erf
 Coulomb attenuation parameter = 0.3 bohr**(-1)
 An unrestricted Kohn-Sham SCF calculation will be
 performed using Pulay DIIS extrapolation
 Exchange:  wPBE + LR-HF      Correlation:  PBE
 Using SG-1 standard quadrature grid
 SCF converges when DIIS error is below 1.0E-05
 Requested basis set is G3large
 There are 16 shells and 52 basis functions
 A cutoff of  1.0D-08 yielded    136 shell pairs
 There are   1462 function pairs (  1834 Cartesian)
 Warning!  Inaccurate integrated density:
   Number of electrons =    11
   Numerical integral  =     9.999999861930
   Relative error      =    -9.0909103461 %
 ---------------------------------------
  Cycle       Energy         DIIS Error
 ---------------------------------------
    1    -100.3277361785      4.55E-02
    2    -100.3240183932      1.36E-02
    3    -100.3306135933      1.63E-02
    4    -100.3774788218      1.15E-03
    5    -100.3786278588      3.04E-04
    6    -100.3789113764      1.17E-04
    7    -100.3789900347      4.50E-05
    8    -100.3789997791      1.18E-05
    9    -100.3790002355      1.36E-06 Convergence criterion met
 ---------------------------------------
 One-Electron    Energy =  -152.5543460205
 Total Coulomb   Energy =    57.8137832928
 Alpha Exchange  Energy =    -0.8904951383
 Beta  Exchange  Energy =    -0.8051394773
 DFT   Exchange  Energy =    -8.8266486071
 DFT Correlation Energy =    -0.3436284598
 Nuclear Repu.   Energy =     5.2274741747
 Nuclear Attr.   Energy =  -252.8812857550
 Kinetic         Energy =   100.3269397345
 <S^2> = 0.7501
 SCF time:  CPU 5.51 s  wall 5.85 s
 Final Alpha MO Eigenvalues
            1           2           3           4           5           6
    1 -24.1990054  -1.0639816  -0.4392027  -0.2996130  -0.2996127   0.0290712
            7           8           9          10          11
    1   0.3478089   0.4382805   0.4419788   0.4419803   0.5547660
 Final Beta MO Eigenvalues
            1           2           3           4           5           6
    1 -24.1980280  -1.0613170  -0.4354692  -0.2982146  -0.2982144   0.1941043
            7           8           9          10
    1   0.3705893   0.4458702   0.4497502   0.4497518
 Analysis of SCF Wavefunction
 
 --------------------------------------------------------------
                    Orbital Energies (a.u.)
 --------------------------------------------------------------
 
 Alpha MOs
 -- Occupied --
-24.199  -1.064  -0.439  -0.300  -0.300   0.029
 -- Virtual --
  0.348   0.438   0.442   0.442   0.555   0.753   1.007   1.007
  1.400   1.544   1.544   1.656   1.995   2.273   2.273   2.423
  2.530   2.530   3.460   4.017   4.017   4.696   6.367   6.367
  6.698   6.843   6.843   6.878   6.878   7.252   7.252   8.572
  9.254   9.255   9.442   9.442  10.112  50.221  50.269  50.347
 50.347  50.538  55.715  55.715  56.185  66.698
 
 Beta MOs
 -- Occupied --
-24.198  -1.061  -0.435  -0.298  -0.298
 -- Virtual --
  0.194   0.371   0.446   0.450   0.450   0.560   0.761   1.016
  1.016   1.407   1.546   1.546   1.664   1.997   2.273   2.273
  2.428   2.533   2.533   3.464   4.022   4.022   4.705   6.368
  6.368   6.701   6.844   6.844   6.879   6.879   7.254   7.254
  8.578   9.256   9.256   9.445   9.445  10.115  50.221  50.268
 50.348  50.348  50.539  55.716  55.716  56.187  66.699
 --------------------------------------------------------------
 
          Ground-State Mulliken Net Atomic Charges

     Atom                 Charge (a.u.)    Spin (a.u.)
  --------------------------------------------------------
      1 F                    -0.192854      -0.201408
      2 H                    -0.807146       1.201408
  --------------------------------------------------------
  Sum of atomic charges =    -1.000000
  Sum of spin   charges =     1.000000

 -----------------------------------------------------------------
                    Cartesian Multipole Moments
 -----------------------------------------------------------------
    Charge (ESU x 10^10)
                -4.8032
    Dipole Moment (Debye)
         X       0.0000      Y       0.0000      Z      -4.2778
       Tot       4.2778
    Quadrupole Moments (Debye-Ang)
        XX     -18.1671     XY       0.0000     YY     -18.1671
        XZ       0.0000     YZ       0.0000     ZZ     -22.3384
    Octapole Moments (Debye-Ang^2)
       XXX      -0.0001    XXY       0.0000    XYY       0.0000
       YYY       0.0000    XXZ     -13.8793    XYZ       0.0000
       YYZ     -13.8793    XZZ       0.0000    YZZ       0.0000
       ZZZ     -46.1272
    Hexadecapole Moments (Debye-Ang^3)
      XXXX     -87.0657   XXXY       0.0000   XXYY     -29.0219
      XYYY       0.0000   YYYY     -87.0657   XXXZ       0.0000
      XXYZ       0.0000   XYYZ       0.0000   YYYZ       0.0000
      XXZZ     -42.4076   XYZZ       0.0000   YYZZ     -42.4076
      XZZZ       0.0000   YZZZ       0.0000   ZZZZ    -171.4009
 -----------------------------------------------------------------
 Total job time:  5.92s(wall), 5.57s(cpu) 
 Mon Jul  8 12:24:27 2013

        *************************************************************
        *                                                           *
        *  Thank you very much for using Q-Chem.  Have a nice day.  *
        *                                                           *
        *************************************************************


0 sent ACK to 0 
now end server 0 ... 
 
**********************************************************************
Job 2 of 3 
**********************************************************************
 
Process 0 of 1 is on cl237.stfx.acenet.ca - thread support 1
initial socket setup ...start
initial socket setup ...done 
now start server 0 ... 

cmd = /usr/bin/ssh clhead /usr/local/qchem/bin/get_hostid 974154479 > /scratch/tmp/6064613.1.long.q/qchem26267/lic.dat
                  Welcome to Q-Chem
     A Quantum Leap Into The Future Of Chemistry

 Y. Shao, L. Fusti-Molnar, Y. Jung, J. Kussmann, C. Ochsenfeld,
 S. T. Brown, A. T. B. Gilbert, L. V. Slipchenko,S. V. Levchenko,
 D. P. O'Neill, R. A. DiStasio Jr., R. C. Lochan, T. Wang,
 G. J. O. Beran, N. A. Besley, J. M. Herbert, C. Y. Lin,
 T. Van Voorhis, S. H. Chien, A. Sodt, R. P. Steele, 
 V. A. Rassolov, P. E. Maslen, P. P. Korambath, R. D. Adamson,
 B. Austin, J. Baker, E. F. C. Byrd, H. Dachsel, R. J. Doerksen,
 A. Dreuw, B. D. Dunietz, A. D. Dutoi, T. R. Furlani,
 S. R. Gwaltney, A. Heyden, S. Hirata, C.-P. Hsu, G. Kedziora,
 R. Z. Khaliullin, P. Klunzinger, A. M. Lee, M. S. Lee, W. Liang,
 I. Lotan, N. Nair, B. Peters, E. I. Proynov, P. A. Pieniazek, 
 Y. M. Rhee, J. Ritchie, E. Rosta, C. D. Sherrill, 
 A. C. Simmonett, J. E. Subotnik, H. L. Woodcock III,
 W. Zhang, A. T. Bell, A. K. Chakraborty, D. M. Chipman,
 F. J. Keil, A. Warshel, W. J. Hehre, H. F. Schaefer III,
 J. Kong, A. I. Krylov, P. M. W. Gill, M. Head-Gordon,
 Q-Chem, Version 3.1, Q-Chem, Inc., Pittsburgh, PA (2007).

 Additional authors for Version 3.1: 
 Z. Gan, Y. Zhao, N. E. Schultz, D. Truhlar, E. Epifanovsky and M. Oana.

 Additional authors for Version 3.2: 
 R. Baer, B. R. Brooks, D. Casanova, J.-D. Chai, C.-L. Cheng, 
 C. Cramer, D. Crittenden, A. Ghysels, G. Hawkins, E. G. Hohenstein, 
 C. Kelley, W. Kurlancheek, D. Liotard, E. Livshits, P. Manohar, 
 A. Marenich, D. Neuhauser, R. Olson, M. A. Rohrdanz, K. S. Thanthiriwatte, 
 A. J. W. Thom, V. Vanovschi, C. F. Williams, Q. Wu and Z.-Q. You. 


 Intel X86 Linux Version

 Q-chem begins on Mon Jul  8 12:24:30 2013  

 Parallel job on  1  processors
Processing $rem in /usr/local/qchem/config/preferences.

theFileMan(): MAXOPENFILES=974 MAX_SUB_FILE_NUM=16
Maximum size of a physical file is 2.0 GB, maximum size of a tmp-file is 32.0 GB


--------------------------------------------------------------
User input:
--------------------------------------------------------------

$molecule
0,1
F          0.00000        0.00000        0.01141
H          0.00000        0.00000        0.92248
$end

$comment
neutral
$end

$xc_functional
C PBE   1.00
X wPBE  1.00
$end


$rem
SYMMETRY_DECOMPOSITION	0
LRC_DFT                 true
exchange 		general
BASIS                   g3large
omega			300
mem_static              760
max_scf_cycles          200
scf_final_print         1
sym_ignore              true
$end

--------------------------------------------------------------
 Writing REM_CC_EA            2
 ----------------------------------------------------
       Standard Nuclear Orientation (Angstroms)
    I     Atom         X            Y            Z
 ----------------------------------------------------
    1      F       0.000000     0.000000     0.011410
    2      H       0.000000     0.000000     0.922480
 ----------------------------------------------------
 Nuclear Repulsion Energy =     5.2274741756 hartrees
 There are        5 alpha and        5 beta electrons
 Requested basis set is G3large
 There are 16 shells and 52 basis functions

Total QAlloc Memory Limit   2000 MB
Mega-Array Size       743 MB
MEM_STATIC part       760 MB

                       Distance Matrix (Angstroms)
             F (  1)
   H (  2)  0.911070
 
 A cutoff of  1.0D-08 yielded    136 shell pairs
 There are   1462 function pairs (  1834 Cartesian)
Evaluating contribution to one-electron hamiltonian from nuclear
 Smallest overlap matrix eigenvalue = 4.76E-03
 Multipole matrices computed through 2nd order

  Scale SEOQF with 1.000000e+00/1.000000e+00/1.000000e+00

 Standard Electronic Orientation quadrupole field applied
 Nucleus-field energy     =    -0.0000000009 hartrees
 Guess from superposition of atomic densities
 Warning:  Energy on first SCF cycle will be non-variational
 Long-range K will be added via erf
 Coulomb attenuation parameter = 0.3 bohr**(-1)
 A restricted Kohn-Sham SCF calculation will be
 performed using Pulay DIIS extrapolation
 Exchange:  wPBE + LR-HF      Correlation:  PBE
 Using SG-1 standard quadrature grid
 SCF converges when DIIS error is below 1.0E-05
 Requested basis set is G3large
 There are 16 shells and 52 basis functions
 A cutoff of  1.0D-08 yielded    136 shell pairs
 There are   1462 function pairs (  1834 Cartesian)
 ---------------------------------------
  Cycle       Energy         DIIS Error
 ---------------------------------------
    1    -100.3277361785      4.55E-02
    2    -100.3766602713      1.23E-02
    3    -100.3802459190      1.32E-02
    4    -100.4098603970      8.05E-04
    5    -100.4099504366      1.69E-04
    6    -100.4099570570      2.34E-05
    7    -100.4099572638      1.65E-06 Convergence criterion met
 ---------------------------------------
 One-Electron    Energy =  -150.4813574691
 Total Coulomb   Energy =    55.5961184158
 Alpha Exchange  Energy =    -0.8056501554
 Beta  Exchange  Energy =    -0.8056501554
 DFT   Exchange  Energy =    -8.8056583769
 DFT Correlation Energy =    -0.3352336974
 Nuclear Repu.   Energy =     5.2274741747
 Nuclear Attr.   Energy =  -250.7104988385
 Kinetic         Energy =   100.2291413694
 SCF time:  CPU 3.86 s  wall 4.00 s
 Final Alpha MO Eigenvalues
            1           2           3           4           5           6
    1 -24.4130082  -1.2769994  -0.6480535  -0.5079820  -0.5079812   0.0349654
            7           8           9          10
    1   0.1791896   0.2783946   0.2783951   0.2825955
 Analysis of SCF Wavefunction
 
 --------------------------------------------------------------
                    Orbital Energies (a.u.)
 --------------------------------------------------------------
 
 Alpha MOs
 -- Occupied --
-24.413  -1.277  -0.648  -0.508  -0.508
 -- Virtual --
  0.035   0.179   0.278   0.278   0.283   0.379   0.552   0.791
  0.791   1.209   1.350   1.350   1.450   1.794   2.065   2.065
  2.206   2.321   2.321   3.249   3.790   3.790   4.477   6.158
  6.158   6.488   6.633   6.633   6.670   6.670   7.040   7.040
  8.357   9.045   9.045   9.232   9.232   9.903  50.008  50.055
 50.133  50.133  50.324  55.502  55.502  55.971  66.484
 --------------------------------------------------------------
 
          Ground-State Mulliken Net Atomic Charges

     Atom                 Charge (a.u.)
  ----------------------------------------
      1 F                    -0.340670
      2 H                     0.340670
  ----------------------------------------
  Sum of atomic charges =     0.000000

 -----------------------------------------------------------------
                    Cartesian Multipole Moments
 -----------------------------------------------------------------
    Charge (ESU x 10^10)
                 0.0000
    Dipole Moment (Debye)
         X       0.0000      Y       0.0000      Z       1.8488
       Tot       1.8488
    Quadrupole Moments (Debye-Ang)
        XX      -5.8913     XY       0.0000     YY      -5.8913
        XZ       0.0000     YZ       0.0000     ZZ      -3.4361
    Octapole Moments (Debye-Ang^2)
       XXX       0.0000    XXY       0.0000    XYY       0.0000
       YYY       0.0000    XXZ      -0.4311    XYZ       0.0000
       YYZ      -0.4311    XZZ       0.0000    YZZ       0.0000
       ZZZ       0.6903
    Hexadecapole Moments (Debye-Ang^3)
      XXXX      -4.2195   XXXY       0.0000   XXYY      -1.4065
      XYYY       0.0000   YYYY      -4.2195   XXXZ       0.0000
      XXYZ       0.0000   XYYZ       0.0000   YYYZ       0.0000
      XXZZ      -1.5999   XYZZ       0.0000   YYZZ      -1.5999
      XZZZ       0.0000   YZZZ       0.0000   ZZZZ      -3.2622
 -----------------------------------------------------------------
 Total job time:  4.07s(wall), 3.92s(cpu) 
 Mon Jul  8 12:24:34 2013

        *************************************************************
        *                                                           *
        *  Thank you very much for using Q-Chem.  Have a nice day.  *
        *                                                           *
        *************************************************************


0 sent ACK to 0 
now end server 0 ... 
 
**********************************************************************
Job 3 of 3 
**********************************************************************
 
Process 0 of 1 is on cl237.stfx.acenet.ca - thread support 1
initial socket setup ...start
initial socket setup ...done 
now start server 0 ... 

cmd = /usr/bin/ssh clhead /usr/local/qchem/bin/get_hostid 2065720460 > /scratch/tmp/6064613.1.long.q/qchem26267/lic.dat
                  Welcome to Q-Chem
     A Quantum Leap Into The Future Of Chemistry

 Y. Shao, L. Fusti-Molnar, Y. Jung, J. Kussmann, C. Ochsenfeld,
 S. T. Brown, A. T. B. Gilbert, L. V. Slipchenko,S. V. Levchenko,
 D. P. O'Neill, R. A. DiStasio Jr., R. C. Lochan, T. Wang,
 G. J. O. Beran, N. A. Besley, J. M. Herbert, C. Y. Lin,
 T. Van Voorhis, S. H. Chien, A. Sodt, R. P. Steele, 
 V. A. Rassolov, P. E. Maslen, P. P. Korambath, R. D. Adamson,
 B. Austin, J. Baker, E. F. C. Byrd, H. Dachsel, R. J. Doerksen,
 A. Dreuw, B. D. Dunietz, A. D. Dutoi, T. R. Furlani,
 S. R. Gwaltney, A. Heyden, S. Hirata, C.-P. Hsu, G. Kedziora,
 R. Z. Khaliullin, P. Klunzinger, A. M. Lee, M. S. Lee, W. Liang,
 I. Lotan, N. Nair, B. Peters, E. I. Proynov, P. A. Pieniazek, 
 Y. M. Rhee, J. Ritchie, E. Rosta, C. D. Sherrill, 
 A. C. Simmonett, J. E. Subotnik, H. L. Woodcock III,
 W. Zhang, A. T. Bell, A. K. Chakraborty, D. M. Chipman,
 F. J. Keil, A. Warshel, W. J. Hehre, H. F. Schaefer III,
 J. Kong, A. I. Krylov, P. M. W. Gill, M. Head-Gordon,
 Q-Chem, Version 3.1, Q-Chem, Inc., Pittsburgh, PA (2007).

 Additional authors for Version 3.1: 
 Z. Gan, Y. Zhao, N. E. Schultz, D. Truhlar, E. Epifanovsky and M. Oana.

 Additional authors for Version 3.2: 
 R. Baer, B. R. Brooks, D. Casanova, J.-D. Chai, C.-L. Cheng, 
 C. Cramer, D. Crittenden, A. Ghysels, G. Hawkins, E. G. Hohenstein, 
 C. Kelley, W. Kurlancheek, D. Liotard, E. Livshits, P. Manohar, 
 A. Marenich, D. Neuhauser, R. Olson, M. A. Rohrdanz, K. S. Thanthiriwatte, 
 A. J. W. Thom, V. Vanovschi, C. F. Williams, Q. Wu and Z.-Q. You. 


 Intel X86 Linux Version

 Q-chem begins on Mon Jul  8 12:24:37 2013  

 Parallel job on  1  processors
Processing $rem in /usr/local/qchem/config/preferences.

theFileMan(): MAXOPENFILES=974 MAX_SUB_FILE_NUM=16
Maximum size of a physical file is 2.0 GB, maximum size of a tmp-file is 32.0 GB


--------------------------------------------------------------
User input:
--------------------------------------------------------------

$molecule
1,2
F          0.00000        0.00000        0.01141
H          0.00000        0.00000        0.92248
$end

$comment
positive
$end

$xc_functional
C PBE   1.00
X wPBE  1.00
$end

$rem
SYMMETRY_DECOMPOSITION	0
LRC_DFT                 true
exchange 		general
BASIS                   g3large
omega			300
mem_static              760
max_scf_cycles          200
scf_final_print         1
sym_ignore              true
$end

--------------------------------------------------------------
 Writing REM_CC_EA            2
 ----------------------------------------------------
       Standard Nuclear Orientation (Angstroms)
    I     Atom         X            Y            Z
 ----------------------------------------------------
    1      F       0.000000     0.000000     0.011410
    2      H       0.000000     0.000000     0.922480
 ----------------------------------------------------
 Nuclear Repulsion Energy =     5.2274741756 hartrees
 There are        5 alpha and        4 beta electrons
 Requested basis set is G3large
 There are 16 shells and 52 basis functions

Total QAlloc Memory Limit   2000 MB
Mega-Array Size       743 MB
MEM_STATIC part       760 MB

                       Distance Matrix (Angstroms)
             F (  1)
   H (  2)  0.911070
 
 A cutoff of  1.0D-08 yielded    136 shell pairs
 There are   1462 function pairs (  1834 Cartesian)
Evaluating contribution to one-electron hamiltonian from nuclear
 Smallest overlap matrix eigenvalue = 4.76E-03
 Multipole matrices computed through 2nd order

  Scale SEOQF with 1.000000e+00/1.000000e+00/1.000000e+00

 Standard Electronic Orientation quadrupole field applied
 Nucleus-field energy     =    -0.0000000009 hartrees
 Guess from superposition of atomic densities
 Warning:  Energy on first SCF cycle will be non-variational
 Long-range K will be added via erf
 Coulomb attenuation parameter = 0.3 bohr**(-1)
 An unrestricted Kohn-Sham SCF calculation will be
 performed using Pulay DIIS extrapolation
 Exchange:  wPBE + LR-HF      Correlation:  PBE
 Using SG-1 standard quadrature grid
 SCF converges when DIIS error is below 1.0E-05
 Requested basis set is G3large
 There are 16 shells and 52 basis functions
 A cutoff of  1.0D-08 yielded    136 shell pairs
 There are   1462 function pairs (  1834 Cartesian)
 Warning!  Inaccurate integrated density:
   Number of electrons =     9
   Numerical integral  =     9.999999861930
   Relative error      =    11.1111095770 %
 ---------------------------------------
  Cycle       Energy         DIIS Error
 ---------------------------------------
    1    -100.3277361785      4.55E-02
    2     -99.7487073173      1.42E-02
    3     -99.7882334359      1.05E-02
    4     -99.8061203738      8.50E-04
    5     -99.8063015620      2.22E-04
    6     -99.8063326114      5.55E-05
    7     -99.8063449912      3.52E-05
    8     -99.8063537286      9.10E-06 Convergence criterion met
 ---------------------------------------
 One-Electron    Energy =  -144.6036820795
 Total Coulomb   Energy =    49.9169335999
 Alpha Exchange  Energy =    -0.8141514405
 Beta  Exchange  Energy =    -0.6503900630
 DFT   Exchange  Energy =    -8.5888529354
 DFT Correlation Energy =    -0.2936849849
 Nuclear Repu.   Energy =     5.2274741747
 Nuclear Attr.   Energy =  -244.4091865559
 Kinetic         Energy =    99.8055044764
 <S^2> = 0.7515
 SCF time:  CPU 4.54 s  wall 4.77 s
 Final Alpha MO Eigenvalues
            1           2           3           4           5           6
    1 -25.0841722  -1.8866835  -1.2062425  -1.1738605  -1.0778284  -0.2447616
            7           8           9          10
    1  -0.0875729  -0.0292403  -0.0149911  -0.0005782
 Final Beta MO Eigenvalues
            1           2           3           4           5           6
    1 -25.0538394  -1.8104651  -1.1763330  -1.0472243  -0.6989973  -0.2375408
            7           8           9
    1  -0.0846844  -0.0120471  -0.0116173
 Analysis of SCF Wavefunction
 
 --------------------------------------------------------------
                    Orbital Energies (a.u.)
 --------------------------------------------------------------
 
 Alpha MOs
 -- Occupied --
-25.084  -1.887  -1.206  -1.174  -1.078
 -- Virtual --
 -0.245  -0.088  -0.029  -0.015  -0.001   0.093   0.215   0.405
  0.419   0.835   0.869   0.913   1.038   1.308   1.505   1.507
  1.780   1.783   1.827   2.755   3.325   3.340   4.003   5.482
  5.570   5.883   6.029   6.039   6.041   6.041   6.430   6.491
  7.794   8.362   8.363   8.552   8.634   9.297  49.305  49.349
 49.430  49.491  49.666  54.793  54.849  55.317  65.816
 
 Beta MOs
 -- Occupied --
-25.054  -1.810  -1.176  -1.047
 -- Virtual --
 -0.699  -0.238  -0.085  -0.012  -0.012   0.005   0.098   0.219
  0.419   0.419   0.844   0.926   0.941   1.050   1.353   1.573
  1.585   1.787   1.836   1.843   2.778   3.335   3.335   4.009
  5.600   5.640   5.941   6.090   6.100   6.139   6.144   6.501
  6.512   7.821   8.489   8.519   8.654   8.684   9.353  49.392
 49.444  49.499  49.519  49.699  54.868  54.887  55.337  65.849
 --------------------------------------------------------------
 
          Ground-State Mulliken Net Atomic Charges

     Atom                 Charge (a.u.)    Spin (a.u.)
  --------------------------------------------------------
      1 F                     0.504620       1.010541
      2 H                     0.495380      -0.010541
  --------------------------------------------------------
  Sum of atomic charges =     1.000000
  Sum of spin   charges =     1.000000

 -----------------------------------------------------------------
                    Cartesian Multipole Moments
 -----------------------------------------------------------------
    Charge (ESU x 10^10)
                 4.8032
    Dipole Moment (Debye)
         X       0.0000      Y       0.0000      Z       2.5370
       Tot       2.5370
    Quadrupole Moments (Debye-Ang)
        XX      -4.0341     XY       0.3828     YY      -4.0342
        XZ       0.0000     YZ       0.0000     ZZ      -1.5482
    Octapole Moments (Debye-Ang^2)
       XXX       0.0000    XXY       0.0000    XYY       0.0000
       YYY       0.0000    XXZ      -0.2580    XYZ       0.0184
       YYZ      -0.2580    XZZ       0.0000    YZZ       0.0000
       ZZZ       1.7713
    Hexadecapole Moments (Debye-Ang^3)
      XXXX      -1.9800   XXXY       0.1684   XXYY      -0.6601
      XYYY       0.1684   YYYY      -1.9801   XXXZ       0.0000
      XXYZ       0.0000   XYYZ       0.0000   YYYZ       0.0000
      XXZZ      -0.8422   XYZZ       0.0616   YYZZ      -0.8422
      XZZZ       0.0000   YZZZ       0.0000   ZZZZ      -0.4676
 -----------------------------------------------------------------
 Total job time:  4.84s(wall), 4.60s(cpu) 
 Mon Jul  8 12:24:42 2013

        *************************************************************
        *                                                           *
        *  Thank you very much for using Q-Chem.  Have a nice day.  *
        *                                                           *
        *************************************************************


0 sent ACK to 0 
now end server 0 ... 
