Process 0 of 1 is on cl243.stfx.acenet.ca - thread support 1
initial socket setup ...start
initial socket setup ...done 
now start server 0 ... 

cmd = /usr/bin/ssh clhead /usr/local/qchem/bin/get_hostid 489283413 > /scratch/tmp/6022103.1.long.q/qchem24123/lic.dat
                  Welcome to Q-Chem
     A Quantum Leap Into The Future Of Chemistry

 Y. Shao, L. Fusti-Molnar, Y. Jung, J. Kussmann, C. Ochsenfeld,
 S. T. Brown, A. T. B. Gilbert, L. V. Slipchenko,S. V. Levchenko,
 D. P. O'Neill, R. A. DiStasio Jr., R. C. Lochan, T. Wang,
 G. J. O. Beran, N. A. Besley, J. M. Herbert, C. Y. Lin,
 T. Van Voorhis, S. H. Chien, A. Sodt, R. P. Steele, 
 V. A. Rassolov, P. E. Maslen, P. P. Korambath, R. D. Adamson,
 B. Austin, J. Baker, E. F. C. Byrd, H. Dachsel, R. J. Doerksen,
 A. Dreuw, B. D. Dunietz, A. D. Dutoi, T. R. Furlani,
 S. R. Gwaltney, A. Heyden, S. Hirata, C.-P. Hsu, G. Kedziora,
 R. Z. Khaliullin, P. Klunzinger, A. M. Lee, M. S. Lee, W. Liang,
 I. Lotan, N. Nair, B. Peters, E. I. Proynov, P. A. Pieniazek, 
 Y. M. Rhee, J. Ritchie, E. Rosta, C. D. Sherrill, 
 A. C. Simmonett, J. E. Subotnik, H. L. Woodcock III,
 W. Zhang, A. T. Bell, A. K. Chakraborty, D. M. Chipman,
 F. J. Keil, A. Warshel, W. J. Hehre, H. F. Schaefer III,
 J. Kong, A. I. Krylov, P. M. W. Gill, M. Head-Gordon,
 Q-Chem, Version 3.1, Q-Chem, Inc., Pittsburgh, PA (2007).

 Additional authors for Version 3.1: 
 Z. Gan, Y. Zhao, N. E. Schultz, D. Truhlar, E. Epifanovsky and M. Oana.

 Additional authors for Version 3.2: 
 R. Baer, B. R. Brooks, D. Casanova, J.-D. Chai, C.-L. Cheng, 
 C. Cramer, D. Crittenden, A. Ghysels, G. Hawkins, E. G. Hohenstein, 
 C. Kelley, W. Kurlancheek, D. Liotard, E. Livshits, P. Manohar, 
 A. Marenich, D. Neuhauser, R. Olson, M. A. Rohrdanz, K. S. Thanthiriwatte, 
 A. J. W. Thom, V. Vanovschi, C. F. Williams, Q. Wu and Z.-Q. You. 


 Intel X86 Linux Version

 Q-chem begins on Wed May 29 17:03:21 2013  

 Parallel job on  1  processors
Processing $rem in /usr/local/qchem/config/preferences.

theFileMan(): MAXOPENFILES=974 MAX_SUB_FILE_NUM=16
Maximum size of a physical file is 2.0 GB, maximum size of a tmp-file is 32.0 GB


--------------------------------------------------------------
User input:
--------------------------------------------------------------

$molecule
-1,2
F          0.00000        0.00000        0.03198
Cl         0.00000        0.00000        1.63152
$end

$comment
negative
$end

$xc_functional
C PBE   1.00
X wPBE  1.00
$end

$rem
SYMMETRY_DECOMPOSITION	0
exchange 		general
LRC_DFT                 true
BASIS                   g3large
omega			450
mem_static              760
max_scf_cycles          200
scf_final_print         1
sym_ignore              true
$end

--------------------------------------------------------------
 Writing REM_CC_EA            2
 ----------------------------------------------------
       Standard Nuclear Orientation (Angstroms)
    I     Atom         X            Y            Z
 ----------------------------------------------------
    1      F       0.000000     0.000000     0.031980
    2      Cl      0.000000     0.000000     1.631520
 ----------------------------------------------------
 Nuclear Repulsion Energy =    50.6171232057 hartrees
 There are       14 alpha and       13 beta electrons
 Requested basis set is G3large
 There are 29 shells and 108 basis functions

Total QAlloc Memory Limit   2000 MB
Mega-Array Size       743 MB
MEM_STATIC part       760 MB

                       Distance Matrix (Angstroms)
             F (  1)
   Cl(  2)  1.599540
 
 A cutoff of  1.0D-08 yielded    409 shell pairs
 There are   5857 function pairs (  8163 Cartesian)
Evaluating contribution to one-electron hamiltonian from nuclear
 Smallest overlap matrix eigenvalue = 4.25E-03
 Multipole matrices computed through 2nd order

  Scale SEOQF with 1.000000e-01/1.000000e-01/1.000000e-01

 Standard Electronic Orientation quadrupole field applied
 Nucleus-field energy     =    -0.0000000048 hartrees
 Guess from superposition of atomic densities
 Warning:  Energy on first SCF cycle will be non-variational
 Long-range K will be added via erf
 Coulomb attenuation parameter = 0.45 bohr**(-1)
 An unrestricted Kohn-Sham SCF calculation will be
 performed using Pulay DIIS extrapolation
 Exchange:  wPBE + LR-HF      Correlation:  PBE
 Using SG-1 standard quadrature grid
 SCF converges when DIIS error is below 1.0E-05
 Requested basis set is G3large
 There are 29 shells and 108 basis functions
 A cutoff of  1.0D-08 yielded    409 shell pairs
 There are   5857 function pairs (  8163 Cartesian)
 Warning!  Inaccurate integrated density:
   Number of electrons =    27
   Numerical integral  =    25.999885572143
   Relative error      =    -3.7041275106 %
 ---------------------------------------
  Cycle       Energy         DIIS Error
 ---------------------------------------
    1    -559.9415471819      2.94E-02
    2    -559.7549737027      6.76E-03
    3    -559.7837600722      6.67E-03
    4    -559.8180150761      9.13E-04
    5    -559.8190612469      3.38E-04
    6    -559.8193836603      1.12E-04
    7    -559.8194826367      4.25E-05
    8    -559.8195160495      2.03E-05
    9    -559.8195239425      7.33E-06 Convergence criterion met
 ---------------------------------------
 One-Electron    Energy =  -883.2073620350
 Total Coulomb   Energy =   311.5595058893
 Alpha Exchange  Energy =    -3.1976342753
 Beta  Exchange  Energy =    -2.9962463101
 DFT   Exchange  Energy =   -31.5928599409
 DFT Correlation Energy =    -1.0020504713
 Nuclear Repu.   Energy =    50.6171232008
 Nuclear Attr.   Energy = -1442.8187388292
 Kinetic         Energy =   559.6113767941
 <S^2> = 0.7540
 SCF time:  CPU 23.87 s  wall 25.54 s
 Final Alpha MO Eigenvalues
            1           2           3           4           5           6
    1-100.6508671 -24.2077551  -9.1700320  -6.9911965  -6.9755750  -6.9755741
            7           8           9          10          11          12
    1  -1.0957100  -0.6962555  -0.4034598  -0.3418280  -0.3418263  -0.1620090
           13          14          15          16          17          18
    1  -0.1620081  -0.0165104   0.2643816   0.2899775   0.2899779   0.3122846
           19
    1   0.4831525
 Final Beta MO Eigenvalues
            1           2           3           4           5           6
    1-100.6476111 -24.1983104  -9.1667599  -6.9826723  -6.9734031  -6.9734024
            7           8           9          10          11          12
    1  -1.0739191  -0.6686395  -0.3461650  -0.3304655  -0.3304650  -0.1501995
           13          14          15          16          17          18
    1  -0.1501971   0.2623960   0.2705468   0.2918613   0.2918619   0.3801433
 Analysis of SCF Wavefunction
 
 --------------------------------------------------------------
                    Orbital Energies (a.u.)
 --------------------------------------------------------------
 
 Alpha MOs
 -- Occupied --
******* -24.208  -9.170  -6.991  -6.976  -6.976  -1.096  -0.696
 -0.403  -0.342  -0.342  -0.162  -0.162  -0.017
 -- Virtual --
  0.264   0.290   0.290   0.312   0.483   0.526   0.526   0.617
  0.617   0.624   0.685   0.685   0.776   0.807   0.818   0.818
  1.393   1.443   1.443   1.453   1.453   1.462   1.463   1.486
  1.497   1.497   1.614   1.614   1.659   1.711   1.711   1.952
  2.244   2.483   2.483   2.484   2.484   2.682   2.898   2.898
  3.339   4.728   4.728   4.740   4.740   4.751   4.751   4.832
  5.396   5.398   5.411   5.411   5.687   6.523   6.523   6.757
  7.006   7.006   7.009   7.010   7.100   7.100   7.329   9.441
  9.441   9.667   9.667   9.850  10.341  20.850  20.850  21.062
 27.380  27.460  27.485  27.485  27.642  37.108  37.108  37.109
 37.109  37.114  37.114  37.129  50.402  50.448  50.537  50.537
 50.658  55.898  55.898  55.998  66.914 215.858
 
 Beta MOs
 -- Occupied --
******* -24.198  -9.167  -6.983  -6.973  -6.973  -1.074  -0.669
 -0.346  -0.330  -0.330  -0.150  -0.150
 -- Virtual --
  0.262   0.271   0.292   0.292   0.380   0.493   0.534   0.534
  0.622   0.622   0.631   0.709   0.709   0.804   0.822   0.822
  0.833   1.424   1.461   1.461   1.464   1.464   1.471   1.472
  1.502   1.502   1.511   1.631   1.631   1.674   1.719   1.719
  1.969   2.256   2.487   2.487   2.491   2.491   2.708   2.912
  2.912   3.361   4.749   4.749   4.750   4.750   4.779   4.779
  4.862   5.400   5.401   5.420   5.420   5.700   6.532   6.532
  6.786   7.010   7.010   7.023   7.023   7.118   7.118   7.353
  9.452   9.452   9.699   9.699   9.870  10.369  20.853  20.853
 21.076  27.382  27.462  27.492  27.492  27.651  37.111  37.111
 37.111  37.111  37.116  37.116  37.133  50.405  50.451  50.558
 50.558  50.686  55.905  55.905  56.022  66.924 215.862
 --------------------------------------------------------------
 
          Ground-State Mulliken Net Atomic Charges

     Atom                 Charge (a.u.)    Spin (a.u.)
  --------------------------------------------------------
      1 F                    -0.262388       0.109989
      2 Cl                   -0.737612       0.890011
  --------------------------------------------------------
  Sum of atomic charges =    -1.000000
  Sum of spin   charges =     1.000000

 -----------------------------------------------------------------
                    Cartesian Multipole Moments
 -----------------------------------------------------------------
    Charge (ESU x 10^10)
                -4.8032
    Dipole Moment (Debye)
         X       0.0001      Y      -0.0001      Z      -5.9746
       Tot       5.9746
    Quadrupole Moments (Debye-Ang)
        XX     -21.5100     XY      -0.0001     YY     -21.5100
        XZ       0.0012     YZ      -0.0031     ZZ     -34.7026
    Octapole Moments (Debye-Ang^2)
       XXX      -0.0007    XXY       0.0007    XYY      -0.0002
       YYY       0.0020    XXZ     -26.8458    XYZ      -0.0001
       YYZ     -26.8457    XZZ       0.0056    YZZ      -0.0140
       ZZZ    -108.1327
    Hexadecapole Moments (Debye-Ang^3)
      XXXX     -30.0756   XXXY      -0.0002   XXYY     -10.0246
      XYYY      -0.0002   YYYY     -30.0755   XXXZ       0.0032
      XXYZ      -0.0026   XYYZ       0.0011   YYYZ      -0.0077
      XXZZ     -56.7380   XYZZ      -0.0002   YYZZ     -56.7379
      XZZZ       0.0200   YZZZ      -0.0505   ZZZZ    -367.7269
 -----------------------------------------------------------------
 Total job time:  25.68s(wall), 23.99s(cpu) 
 Wed May 29 17:03:47 2013

        *************************************************************
        *                                                           *
        *  Thank you very much for using Q-Chem.  Have a nice day.  *
        *                                                           *
        *************************************************************


0 sent ACK to 0 
now end server 0 ... 
 
**********************************************************************
Job 2 of 3 
**********************************************************************
 
Process 0 of 1 is on cl243.stfx.acenet.ca - thread support 1
initial socket setup ...start
initial socket setup ...done 
now start server 0 ... 

cmd = /usr/bin/ssh clhead /usr/local/qchem/bin/get_hostid 248721290 > /scratch/tmp/6022103.1.long.q/qchem24123/lic.dat
                  Welcome to Q-Chem
     A Quantum Leap Into The Future Of Chemistry

 Y. Shao, L. Fusti-Molnar, Y. Jung, J. Kussmann, C. Ochsenfeld,
 S. T. Brown, A. T. B. Gilbert, L. V. Slipchenko,S. V. Levchenko,
 D. P. O'Neill, R. A. DiStasio Jr., R. C. Lochan, T. Wang,
 G. J. O. Beran, N. A. Besley, J. M. Herbert, C. Y. Lin,
 T. Van Voorhis, S. H. Chien, A. Sodt, R. P. Steele, 
 V. A. Rassolov, P. E. Maslen, P. P. Korambath, R. D. Adamson,
 B. Austin, J. Baker, E. F. C. Byrd, H. Dachsel, R. J. Doerksen,
 A. Dreuw, B. D. Dunietz, A. D. Dutoi, T. R. Furlani,
 S. R. Gwaltney, A. Heyden, S. Hirata, C.-P. Hsu, G. Kedziora,
 R. Z. Khaliullin, P. Klunzinger, A. M. Lee, M. S. Lee, W. Liang,
 I. Lotan, N. Nair, B. Peters, E. I. Proynov, P. A. Pieniazek, 
 Y. M. Rhee, J. Ritchie, E. Rosta, C. D. Sherrill, 
 A. C. Simmonett, J. E. Subotnik, H. L. Woodcock III,
 W. Zhang, A. T. Bell, A. K. Chakraborty, D. M. Chipman,
 F. J. Keil, A. Warshel, W. J. Hehre, H. F. Schaefer III,
 J. Kong, A. I. Krylov, P. M. W. Gill, M. Head-Gordon,
 Q-Chem, Version 3.1, Q-Chem, Inc., Pittsburgh, PA (2007).

 Additional authors for Version 3.1: 
 Z. Gan, Y. Zhao, N. E. Schultz, D. Truhlar, E. Epifanovsky and M. Oana.

 Additional authors for Version 3.2: 
 R. Baer, B. R. Brooks, D. Casanova, J.-D. Chai, C.-L. Cheng, 
 C. Cramer, D. Crittenden, A. Ghysels, G. Hawkins, E. G. Hohenstein, 
 C. Kelley, W. Kurlancheek, D. Liotard, E. Livshits, P. Manohar, 
 A. Marenich, D. Neuhauser, R. Olson, M. A. Rohrdanz, K. S. Thanthiriwatte, 
 A. J. W. Thom, V. Vanovschi, C. F. Williams, Q. Wu and Z.-Q. You. 


 Intel X86 Linux Version

 Q-chem begins on Wed May 29 17:03:49 2013  

 Parallel job on  1  processors
Processing $rem in /usr/local/qchem/config/preferences.

theFileMan(): MAXOPENFILES=974 MAX_SUB_FILE_NUM=16
Maximum size of a physical file is 2.0 GB, maximum size of a tmp-file is 32.0 GB


--------------------------------------------------------------
User input:
--------------------------------------------------------------

$molecule
0,1
F          0.00000        0.00000        0.03198
Cl         0.00000        0.00000        1.63152
$end

$comment
neutral
$end

$xc_functional
C PBE   1.00
X wPBE  1.00
$end


$rem
SYMMETRY_DECOMPOSITION	0
LRC_DFT                 true
exchange 		general
BASIS                   g3large
omega			450
mem_static              760
max_scf_cycles          200
scf_final_print         1
sym_ignore              true
$end

--------------------------------------------------------------
 Writing REM_CC_EA            2
 ----------------------------------------------------
       Standard Nuclear Orientation (Angstroms)
    I     Atom         X            Y            Z
 ----------------------------------------------------
    1      F       0.000000     0.000000     0.031980
    2      Cl      0.000000     0.000000     1.631520
 ----------------------------------------------------
 Nuclear Repulsion Energy =    50.6171232057 hartrees
 There are       13 alpha and       13 beta electrons
 Requested basis set is G3large
 There are 29 shells and 108 basis functions

Total QAlloc Memory Limit   2000 MB
Mega-Array Size       743 MB
MEM_STATIC part       760 MB

                       Distance Matrix (Angstroms)
             F (  1)
   Cl(  2)  1.599540
 
 A cutoff of  1.0D-08 yielded    409 shell pairs
 There are   5857 function pairs (  8163 Cartesian)
Evaluating contribution to one-electron hamiltonian from nuclear
 Smallest overlap matrix eigenvalue = 4.25E-03
 Multipole matrices computed through 2nd order

  Scale SEOQF with 1.000000e-01/1.000000e-01/1.000000e-01

 Standard Electronic Orientation quadrupole field applied
 Nucleus-field energy     =    -0.0000000048 hartrees
 Guess from superposition of atomic densities
 Warning:  Energy on first SCF cycle will be non-variational
 Long-range K will be added via erf
 Coulomb attenuation parameter = 0.45 bohr**(-1)
 A restricted Kohn-Sham SCF calculation will be
 performed using Pulay DIIS extrapolation
 Exchange:  wPBE + LR-HF      Correlation:  PBE
 Using SG-1 standard quadrature grid
 SCF converges when DIIS error is below 1.0E-05
 Requested basis set is G3large
 There are 29 shells and 108 basis functions
 A cutoff of  1.0D-08 yielded    409 shell pairs
 There are   5857 function pairs (  8163 Cartesian)
 ---------------------------------------
  Cycle       Energy         DIIS Error
 ---------------------------------------
    1    -559.9415471819      2.94E-02
    2    -559.7816244665      5.10E-03
    3    -559.8018300698      2.86E-03
    4    -559.8072251787      7.82E-04
    5    -559.8077987473      3.24E-04
    6    -559.8080033450      9.86E-05
    7    -559.8080594592      4.06E-05
    8    -559.8080771479      1.25E-05
 Info = 9046

 Q-Chem warning in module diagon.C, line 98:

 Call to dsyevd failed in Diagonalize

    9    -559.8080788305      3.48E-06 Convergence criterion met
 ---------------------------------------
 One-Electron    Energy =  -874.7933284127
 Total Coulomb   Energy =   302.8373827082
 Alpha Exchange  Energy =    -3.0153019127
 Beta  Exchange  Energy =    -3.0153019127
 DFT   Exchange  Energy =   -31.4655608788
 DFT Correlation Energy =    -0.9730916226
 Nuclear Repu.   Energy =    50.6171232008
 Nuclear Attr.   Energy = -1433.8373043964
 Kinetic         Energy =   559.0439759838
 SCF time:  CPU 20.80 s  wall 21.18 s
 Final Alpha MO Eigenvalues
            1           2           3           4           5           6
    1-100.9923527 -24.5520906  -9.5100885  -7.3345179  -7.3133051  -7.3133050
            7           8           9          10          11          12
    1  -1.4098384  -0.9980565  -0.6801078  -0.6457272  -0.6457258  -0.4642796
           13          14          15          16          17          18
    1  -0.4642790  -0.0078403   0.0868276   0.1208938   0.1208940   0.1390754
 Analysis of SCF Wavefunction
 
 --------------------------------------------------------------
                    Orbital Energies (a.u.)
 --------------------------------------------------------------
 
 Alpha MOs
 -- Occupied --
******* -24.552  -9.510  -7.335  -7.313  -7.313  -1.410  -0.998
 -0.680  -0.646  -0.646  -0.464  -0.464
 -- Virtual --
 -0.008   0.087   0.121   0.121   0.139   0.291   0.322   0.322
  0.354   0.354   0.410   0.428   0.428   0.534   0.567   0.578
  0.578   1.106   1.152   1.152   1.165   1.166   1.174   1.174
  1.212   1.225   1.225   1.324   1.324   1.409   1.448   1.448
  1.670   1.964   2.187   2.187   2.192   2.192   2.373   2.603
  2.603   3.039   4.410   4.411   4.426   4.426   4.431   4.431
  4.513   5.072   5.073   5.079   5.079   5.362   6.211   6.211
  6.446   6.701   6.701   6.702   6.702   6.787   6.787   7.008
  9.126   9.126   9.354   9.354   9.529  10.023  20.515  20.515
 20.725  27.044  27.125  27.145  27.145  27.302  36.766  36.766
 36.768  36.769  36.777  36.777  36.785  50.063  50.109  50.200
 50.200  50.324  55.558  55.558  55.659  66.571 215.517
 --------------------------------------------------------------
 
          Ground-State Mulliken Net Atomic Charges

     Atom                 Charge (a.u.)
  ----------------------------------------
      1 F                    -0.124461
      2 Cl                    0.124461
  ----------------------------------------
  Sum of atomic charges =     0.000000

 -----------------------------------------------------------------
                    Cartesian Multipole Moments
 -----------------------------------------------------------------
    Charge (ESU x 10^10)
                 0.0000
    Dipole Moment (Debye)
         X       0.0000      Y       0.0000      Z       0.8741
       Tot       0.8741
    Quadrupole Moments (Debye-Ang)
        XX     -17.3612     XY       0.0000     YY     -17.3612
        XZ      -0.0001     YZ       0.0000     ZZ     -14.3020
    Octapole Moments (Debye-Ang^2)
       XXX       0.0000    XXY       0.0000    XYY       0.0000
       YYY       0.0000    XXZ     -20.8592    XYZ       0.0000
       YYZ     -20.8592    XZZ      -0.0001    YZZ      -0.0001
       ZZZ     -51.0095
    Hexadecapole Moments (Debye-Ang^3)
      XXXX     -16.9112   XXXY       0.0000   XXYY      -5.6367
      XYYY       0.0000   YYYY     -16.9112   XXXZ      -0.0001
      XXYZ       0.0000   XYYZ       0.0000   YYYZ       0.0000
      XXZZ     -39.4484   XYZZ       0.0000   YYZZ     -39.4484
      XZZZ      -0.0002   YZZZ      -0.0002   ZZZZ    -178.2981
 -----------------------------------------------------------------
 Total job time:  21.30s(wall), 20.92s(cpu) 
 Wed May 29 17:04:11 2013

        *************************************************************
        *                                                           *
        *  Thank you very much for using Q-Chem.  Have a nice day.  *
        *                                                           *
        *************************************************************


0 sent ACK to 0 
now end server 0 ... 
 
**********************************************************************
Job 3 of 3 
**********************************************************************
 
Process 0 of 1 is on cl243.stfx.acenet.ca - thread support 1
initial socket setup ...start
initial socket setup ...done 
now start server 0 ... 

cmd = /usr/bin/ssh clhead /usr/local/qchem/bin/get_hostid 1540209641 > /scratch/tmp/6022103.1.long.q/qchem24123/lic.dat
                  Welcome to Q-Chem
     A Quantum Leap Into The Future Of Chemistry

 Y. Shao, L. Fusti-Molnar, Y. Jung, J. Kussmann, C. Ochsenfeld,
 S. T. Brown, A. T. B. Gilbert, L. V. Slipchenko,S. V. Levchenko,
 D. P. O'Neill, R. A. DiStasio Jr., R. C. Lochan, T. Wang,
 G. J. O. Beran, N. A. Besley, J. M. Herbert, C. Y. Lin,
 T. Van Voorhis, S. H. Chien, A. Sodt, R. P. Steele, 
 V. A. Rassolov, P. E. Maslen, P. P. Korambath, R. D. Adamson,
 B. Austin, J. Baker, E. F. C. Byrd, H. Dachsel, R. J. Doerksen,
 A. Dreuw, B. D. Dunietz, A. D. Dutoi, T. R. Furlani,
 S. R. Gwaltney, A. Heyden, S. Hirata, C.-P. Hsu, G. Kedziora,
 R. Z. Khaliullin, P. Klunzinger, A. M. Lee, M. S. Lee, W. Liang,
 I. Lotan, N. Nair, B. Peters, E. I. Proynov, P. A. Pieniazek, 
 Y. M. Rhee, J. Ritchie, E. Rosta, C. D. Sherrill, 
 A. C. Simmonett, J. E. Subotnik, H. L. Woodcock III,
 W. Zhang, A. T. Bell, A. K. Chakraborty, D. M. Chipman,
 F. J. Keil, A. Warshel, W. J. Hehre, H. F. Schaefer III,
 J. Kong, A. I. Krylov, P. M. W. Gill, M. Head-Gordon,
 Q-Chem, Version 3.1, Q-Chem, Inc., Pittsburgh, PA (2007).

 Additional authors for Version 3.1: 
 Z. Gan, Y. Zhao, N. E. Schultz, D. Truhlar, E. Epifanovsky and M. Oana.

 Additional authors for Version 3.2: 
 R. Baer, B. R. Brooks, D. Casanova, J.-D. Chai, C.-L. Cheng, 
 C. Cramer, D. Crittenden, A. Ghysels, G. Hawkins, E. G. Hohenstein, 
 C. Kelley, W. Kurlancheek, D. Liotard, E. Livshits, P. Manohar, 
 A. Marenich, D. Neuhauser, R. Olson, M. A. Rohrdanz, K. S. Thanthiriwatte, 
 A. J. W. Thom, V. Vanovschi, C. F. Williams, Q. Wu and Z.-Q. You. 


 Intel X86 Linux Version

 Q-chem begins on Wed May 29 17:04:13 2013  

 Parallel job on  1  processors
Processing $rem in /usr/local/qchem/config/preferences.

theFileMan(): MAXOPENFILES=974 MAX_SUB_FILE_NUM=16
Maximum size of a physical file is 2.0 GB, maximum size of a tmp-file is 32.0 GB


--------------------------------------------------------------
User input:
--------------------------------------------------------------

$molecule
1,2
F          0.00000        0.00000        0.03198
Cl         0.00000        0.00000        1.63152
$end

$comment
positive
$end

$xc_functional
C PBE   1.00
X wPBE  1.00
$end

$rem
SYMMETRY_DECOMPOSITION	0
LRC_DFT                 true
exchange 		general
BASIS                   g3large
omega			450
mem_static              760
max_scf_cycles          200
scf_final_print         1
sym_ignore              true
$end

--------------------------------------------------------------
 Writing REM_CC_EA            2
 ----------------------------------------------------
       Standard Nuclear Orientation (Angstroms)
    I     Atom         X            Y            Z
 ----------------------------------------------------
    1      F       0.000000     0.000000     0.031980
    2      Cl      0.000000     0.000000     1.631520
 ----------------------------------------------------
 Nuclear Repulsion Energy =    50.6171232057 hartrees
 There are       13 alpha and       12 beta electrons
 Requested basis set is G3large
 There are 29 shells and 108 basis functions

Total QAlloc Memory Limit   2000 MB
Mega-Array Size       743 MB
MEM_STATIC part       760 MB

                       Distance Matrix (Angstroms)
             F (  1)
   Cl(  2)  1.599540
 
 A cutoff of  1.0D-08 yielded    409 shell pairs
 There are   5857 function pairs (  8163 Cartesian)
Evaluating contribution to one-electron hamiltonian from nuclear
 Smallest overlap matrix eigenvalue = 4.25E-03
 Multipole matrices computed through 2nd order

  Scale SEOQF with 1.000000e-01/1.000000e-01/1.000000e-01

 Standard Electronic Orientation quadrupole field applied
 Nucleus-field energy     =    -0.0000000048 hartrees
 Guess from superposition of atomic densities
 Warning:  Energy on first SCF cycle will be non-variational
 Long-range K will be added via erf
 Coulomb attenuation parameter = 0.45 bohr**(-1)
 An unrestricted Kohn-Sham SCF calculation will be
 performed using Pulay DIIS extrapolation
 Exchange:  wPBE + LR-HF      Correlation:  PBE
 Using SG-1 standard quadrature grid
 SCF converges when DIIS error is below 1.0E-05
 Requested basis set is G3large
 There are 29 shells and 108 basis functions
 A cutoff of  1.0D-08 yielded    409 shell pairs
 There are   5857 function pairs (  8163 Cartesian)
 Warning!  Inaccurate integrated density:
   Number of electrons =    25
   Numerical integral  =    25.999885572143
   Relative error      =     3.9995422886 %
 ---------------------------------------
  Cycle       Energy         DIIS Error
 ---------------------------------------
    1    -559.9415471819      2.94E-02
    2    -559.2433526738      7.91E-03
    3    -559.3136204682      5.30E-03
    4    -559.3323338794      2.19E-03
    5    -559.3362553802      4.68E-04
    6    -559.3366729483      9.24E-05
    7    -559.3367677776      5.64E-05
    8    -559.3368079523      2.25E-05
    9    -559.3368167640      8.54E-06 Convergence criterion met
 ---------------------------------------
 One-Electron    Energy =  -864.6543900201
 Total Coulomb   Energy =   292.7601691806
 Alpha Exchange  Energy =    -3.0326040825
 Beta  Exchange  Energy =    -2.7977874450
 DFT   Exchange  Energy =   -31.2970121426
 DFT Correlation Energy =    -0.9323154550
 Nuclear Repu.   Energy =    50.6171232008
 Nuclear Attr.   Energy = -1423.0876418485
 Kinetic         Energy =   558.4332518284
 <S^2> = 0.7551
 SCF time:  CPU 23.50 s  wall 23.99 s
 Final Alpha MO Eigenvalues
            1           2           3           4           5           6
    1-101.4368784 -24.9298486  -9.9452356  -7.7650987  -7.7650888  -7.7428370
            7           8           9          10          11          12
    1  -1.7703318  -1.3957942  -1.0394121  -1.0231983  -0.9926544  -0.8778839
           13          14          15          16          17          18
    1  -0.8319959  -0.3605961  -0.1181235  -0.0693631  -0.0624627  -0.0547197
 Final Beta MO Eigenvalues
            1           2           3           4           5           6
    1-101.4311494 -24.9237647  -9.9399980  -7.7621688  -7.7498183  -7.7389497
            7           8           9          10          11          12
    1  -1.7567278  -1.3445102  -1.0262136  -0.9856510  -0.9527133  -0.8195529
           13          14          15          16          17
    1  -0.4769087  -0.3444135  -0.1154139  -0.0638113  -0.0618317
 Analysis of SCF Wavefunction
 
 --------------------------------------------------------------
                    Orbital Energies (a.u.)
 --------------------------------------------------------------
 
 Alpha MOs
 -- Occupied --
******* -24.930  -9.945  -7.765  -7.765  -7.743  -1.770  -1.396
 -1.039  -1.023  -0.993  -0.878  -0.832
 -- Virtual --
 -0.361  -0.118  -0.069  -0.062  -0.055   0.021   0.022   0.040
  0.062   0.072   0.148   0.158   0.179   0.240   0.292   0.297
  0.312   0.740   0.781   0.790   0.791   0.816   0.842   0.843
  0.887   0.887   0.897   0.969   0.994   1.130   1.153   1.165
  1.340   1.652   1.795   1.833   1.862   1.862   2.011   2.259
  2.276   2.692   3.984   3.988   3.989   3.993   4.013   4.047
  4.119   4.645   4.646   4.654   4.680   4.975   5.847   5.866
  6.090   6.352   6.352   6.353   6.353   6.430   6.445   6.648
  8.759   8.759   8.982   9.001   9.127   9.645  20.064  20.089
 20.298  26.602  26.682  26.703  26.720  26.870  36.328  36.331
 36.333  36.334  36.338  36.347  36.358  49.681  49.728  49.817
 49.830  49.949  55.174  55.186  55.285  66.196 215.075
 
 Beta MOs
 -- Occupied --
******* -24.924  -9.940  -7.762  -7.750  -7.739  -1.757  -1.345
 -1.026  -0.986  -0.953  -0.820
 -- Virtual --
 -0.477  -0.344  -0.115  -0.064  -0.062  -0.054   0.056   0.059
  0.064   0.073   0.076   0.159   0.161   0.181   0.250   0.303
  0.315   0.316   0.767   0.814   0.817   0.819   0.820   0.857
  0.859   0.904   0.914   0.914   0.994   0.996   1.137   1.166
  1.167   1.354   1.659   1.842   1.844   1.875   1.875   2.019
  2.275   2.278   2.699   4.028   4.031   4.045   4.045   4.049
  4.053   4.136   4.661   4.664   4.670   4.682   4.981   5.872
  5.875   6.097   6.363   6.363   6.369   6.369   6.444   6.447
  6.656   8.784   8.784   9.005   9.008   9.138   9.653  20.088
 20.095  20.301  26.615  26.695  26.715  26.722  26.876  36.333
 36.336  36.337  36.338  36.343  36.349  36.359  49.699  49.746
 49.831  49.834  49.955  55.190  55.192  55.288  66.202 215.082
 --------------------------------------------------------------
 
          Ground-State Mulliken Net Atomic Charges

     Atom                 Charge (a.u.)    Spin (a.u.)
  --------------------------------------------------------
      1 F                     0.157605       0.177075
      2 Cl                    0.842395       0.822925
  --------------------------------------------------------
  Sum of atomic charges =     1.000000
  Sum of spin   charges =     1.000000

 -----------------------------------------------------------------
                    Cartesian Multipole Moments
 -----------------------------------------------------------------
    Charge (ESU x 10^10)
                 4.8032
    Dipole Moment (Debye)
         X       0.0001      Y       0.0000      Z       7.1942
       Tot       7.1942
    Quadrupole Moments (Debye-Ang)
        XX     -14.2139     XY      -0.7298     YY     -14.1861
        XZ       0.0003     YZ      -0.0002     ZZ      -0.7564
    Octapole Moments (Debye-Ang^2)
       XXX       0.0000    XXY       0.0000    XYY       0.0000
       YYY       0.0000    XXZ     -16.0854    XYZ      -1.1844
       YYZ     -16.0403    XZZ       0.0011    YZZ      -0.0004
       ZZZ     -22.7799
    Hexadecapole Moments (Debye-Ang^3)
      XXXX     -11.1277   XXXY      -0.5436   XXYY      -3.7016
      XYYY      -0.5436   YYYY     -11.0862   XXXZ       0.0002
      XXYZ       0.0000   XYYZ       0.0001   YYYZ      -0.0002
      XXZZ     -29.4712   XYZZ      -2.2552   YYZZ     -29.3853
      XZZZ       0.0031   YZZZ      -0.0008   ZZZZ    -112.3755
 -----------------------------------------------------------------
 Total job time:  24.11s(wall), 23.61s(cpu) 
 Wed May 29 17:04:37 2013

        *************************************************************
        *                                                           *
        *  Thank you very much for using Q-Chem.  Have a nice day.  *
        *                                                           *
        *************************************************************


0 sent ACK to 0 
now end server 0 ... 
