Process 0 of 1 is on cl135 - thread support 1
initial socket setup ...start
initial socket setup ...done 
now start server 0 ... 

cmd = /usr/bin/ssh clhead /usr/local/qchem/bin/get_hostid 1687721091 > /tmp/1602380.1.medium.q/qchem28611/lic.dat

cmd = /usr/bin/ssh clhead /usr/local/qchem/bin/get_hostid 1687721091 > /tmp/1602380.1.medium.q/qchem28611/lic.dat

cmd = /usr/bin/ssh clhead /usr/local/qchem/bin/get_hostid 1687721091 > /tmp/1602380.1.medium.q/qchem28611/lic.dat

cmd = /usr/bin/ssh clhead /usr/local/qchem/bin/get_hostid 1687721091 > /tmp/1602380.1.medium.q/qchem28611/lic.dat

cmd = /usr/bin/ssh clhead /usr/local/qchem/bin/get_hostid 1687721091 > /tmp/1602380.1.medium.q/qchem28611/lic.dat
                  Welcome to Q-Chem
     A Quantum Leap Into The Future Of Chemistry

 Y. Shao, L. Fusti-Molnar, Y. Jung, J. Kussmann, C. Ochsenfeld,
 S. T. Brown, A. T. B. Gilbert, L. V. Slipchenko,S. V. Levchenko,
 D. P. O'Neill, R. A. DiStasio Jr., R. C. Lochan, T. Wang,
 G. J. O. Beran, N. A. Besley, J. M. Herbert, C. Y. Lin,
 T. Van Voorhis, S. H. Chien, A. Sodt, R. P. Steele, 
 V. A. Rassolov, P. E. Maslen, P. P. Korambath, R. D. Adamson,
 B. Austin, J. Baker, E. F. C. Byrd, H. Dachsel, R. J. Doerksen,
 A. Dreuw, B. D. Dunietz, A. D. Dutoi, T. R. Furlani,
 S. R. Gwaltney, A. Heyden, S. Hirata, C.-P. Hsu, G. Kedziora,
 R. Z. Khaliullin, P. Klunzinger, A. M. Lee, M. S. Lee, W. Liang,
 I. Lotan, N. Nair, B. Peters, E. I. Proynov, P. A. Pieniazek, 
 Y. M. Rhee, J. Ritchie, E. Rosta, C. D. Sherrill, 
 A. C. Simmonett, J. E. Subotnik, H. L. Woodcock III,
 W. Zhang, A. T. Bell, A. K. Chakraborty, D. M. Chipman,
 F. J. Keil, A. Warshel, W. J. Hehre, H. F. Schaefer III,
 J. Kong, A. I. Krylov, P. M. W. Gill, M. Head-Gordon,
 Q-Chem, Version 3.1, Q-Chem, Inc., Pittsburgh, PA (2007).

 Additional authors for Version 3.1: 
 Z. Gan, Y. Zhao, N. E. Schultz, D. Truhlar, E. Epifanovsky and M. Oana.

 Additional authors for Version 3.2: 
 R. Baer, B. R. Brooks, D. Casanova, J.-D. Chai, C.-L. Cheng, 
 C. Cramer, D. Crittenden, A. Ghysels, G. Hawkins, E. G. Hohenstein, 
 C. Kelley, W. Kurlancheek, D. Liotard, E. Livshits, P. Manohar, 
 A. Marenich, D. Neuhauser, R. Olson, M. A. Rohrdanz, K. S. Thanthiriwatte, 
 A. J. W. Thom, V. Vanovschi, C. F. Williams, Q. Wu and Z.-Q. You. 


 Intel X86 Linux Version

 Q-chem begins on Sun Mar 23 19:22:18 2014  

 Parallel job on  1  processors
Processing $rem in /usr/local/qchem/config/preferences.

theFileMan(): MAXOPENFILES=974 MAX_SUB_FILE_NUM=16
Maximum size of a physical file is 2.0 GB, maximum size of a tmp-file is 32.0 GB


--------------------------------------------------------------
User input:
--------------------------------------------------------------

$molecule
-1,2
C         -0.00013        0.00000        0.01487
Si        -0.00043        0.00000        1.87462
H          1.01782        0.00000       -0.37208
H         -0.50853       -0.88134       -0.37324
H         -0.50853        0.88134       -0.37324
H         -1.38712        0.00000        2.39962
H          0.69345       -1.20137        2.39767
H          0.69345        1.20137        2.39767
$end

$comment
negative
$end

$xc_functional
C PBE   1.00
X wPBE  1.00
$end

$rem
SYMMETRY_DECOMPOSITION	0
exchange 		general
LRC_DFT                 true
BASIS                   g3large
omega			410
mem_static              760
max_scf_cycles          200
scf_final_print         1
sym_ignore              true
$end

--------------------------------------------------------------
 Writing REM_CC_EA            8
 ----------------------------------------------------
       Standard Nuclear Orientation (Angstroms)
    I     Atom         X            Y            Z
 ----------------------------------------------------
    1      C      -0.000130     0.000000     0.014870
    2      Si     -0.000430     0.000000     1.874620
    3      H       1.017820     0.000000    -0.372080
    4      H      -0.508530    -0.881340    -0.373240
    5      H      -0.508530     0.881340    -0.373240
    6      H      -1.387120     0.000000     2.399620
    7      H       0.693450    -1.201370     2.397670
    8      H       0.693450     1.201370     2.397670
 ----------------------------------------------------
 Nuclear Repulsion Energy =    63.1402175305 hartrees
 There are       14 alpha and       13 beta electrons
 Requested basis set is G3large
 There are 65 shells and 168 basis functions

Total QAlloc Memory Limit   2000 MB
Mega-Array Size       743 MB
MEM_STATIC part       760 MB

                       Distance Matrix (Angstroms)
             C (  1)   Si(  2)   H (  3)   H (  4)   H (  5)   H (  6)
   Si(  2)  1.859750
   H (  3)  1.089014  2.466677
   H (  4)  1.088972  2.467347  1.762528
   H (  5)  1.088972  2.467347  1.762528  1.762680
   H (  6)  2.758763  1.482745  3.669613  3.039315  3.039315
   H (  7)  2.757187  1.482680  3.036449  3.037288  3.668839  2.402512
   H (  8)  2.757187  1.482680  3.036449  3.668839  3.037288  2.402512
             H (  7)
   H (  8)  2.402740
 
 A cutoff of  1.0D-08 yielded   2044 shell pairs
 There are  13820 function pairs ( 17231 Cartesian)
Evaluating contribution to one-electron hamiltonian from nuclear
 Smallest overlap matrix eigenvalue = 1.35E-04
 Multipole matrices computed through 2nd order

  Scale SEOQF with 1.000000e-01/1.000000e-01/1.000000e-01

 Standard Electronic Orientation quadrupole field applied
 Nucleus-field energy     =    -0.0000000067 hartrees
 Guess from superposition of atomic densities
 Warning:  Energy on first SCF cycle will be non-variational
 Long-range K will be added via erf
 Coulomb attenuation parameter = 0.41 bohr**(-1)
 An unrestricted Kohn-Sham SCF calculation will be
 performed using Pulay DIIS extrapolation
 Exchange:  wPBE + LR-HF      Correlation:  PBE
 Using SG-1 standard quadrature grid
 SCF converges when DIIS error is below 1.0E-05
 Requested basis set is G3large
 There are 65 shells and 168 basis functions
 A cutoff of  1.0D-08 yielded   2044 shell pairs
 There are  13820 function pairs ( 17231 Cartesian)
 Warning!  Inaccurate integrated density:
   Number of electrons =    27
   Numerical integral  =    25.999985127030
   Relative error      =    -3.7037587888 %
 ---------------------------------------
  Cycle       Energy         DIIS Error
 ---------------------------------------
    1    -331.2667164023      2.77E-02
    2    -330.9906009905      3.30E-03
    3    -331.0375576509      2.41E-03
    4    -331.0614509141      3.50E-04
    5    -331.0663938870      1.67E-04
    6    -331.0685256326      9.14E-05
    7    -331.0694743500      3.79E-05
    8    -331.0697274470      1.62E-05
    9    -331.0697832238      7.15E-06 Convergence criterion met
 ---------------------------------------
 One-Electron    Energy =  -584.9195591528
 Total Coulomb   Energy =   219.2490258995
 Alpha Exchange  Energy =    -2.7264492213
 Beta  Exchange  Energy =    -2.6594819616
 DFT   Exchange  Energy =   -22.2664692823
 DFT Correlation Energy =    -0.8870670290
 Nuclear Repu.   Energy =    63.1402175238
 Nuclear Attr.   Energy =  -915.3057370397
 Kinetic         Energy =   330.3861778869
 <S^2> = 0.7502
 SCF time:  CPU 93.80 s  wall 95.97 s
 Final Alpha MO Eigenvalues
            1           2           3           4           5           6
    1 -65.4811044  -9.9469766  -5.1431896  -3.5445278  -3.5445132  -3.5431552
            7           8           9          10          11          12
    1  -0.7154368  -0.5363018  -0.3984122  -0.3983289  -0.3234788  -0.3234345
           13          14          15          16          17          18
    1  -0.3095170   0.0280620   0.1482288   0.1508844   0.1509701   0.1761996
           19
    1   0.1884583
 Final Beta MO Eigenvalues
            1           2           3           4           5           6
    1 -65.4810183  -9.9463827  -5.1430911  -3.5444675  -3.5444529  -3.5429087
            7           8           9          10          11          12
    1  -0.7137765  -0.5345609  -0.3975804  -0.3974962  -0.3234140  -0.3233668
           13          14          15          16          17          18
    1  -0.3082172   0.1389219   0.1549278   0.1655087   0.1657465   0.1828075
 Analysis of SCF Wavefunction
 
 --------------------------------------------------------------
                    Orbital Energies (a.u.)
 --------------------------------------------------------------
 
 Alpha MOs
 -- Occupied --
-65.481  -9.947  -5.143  -3.545  -3.545  -3.543  -0.715  -0.536
 -0.398  -0.398  -0.323  -0.323  -0.310   0.028
 -- Virtual --
  0.148   0.151   0.151   0.176   0.188   0.189   0.200   0.200
  0.257   0.269   0.269   0.270   0.302   0.303   0.303   0.316
  0.351   0.367   0.368   0.431   0.431   0.480   0.481   0.483
  0.488   0.530   0.530   0.616   0.634   0.634   0.646   0.671
  0.716   0.716   0.730   0.769   0.770   0.777   0.819   0.819
  0.884   0.911   0.923   0.923   0.968   0.968   1.038   1.047
  1.047   1.082   1.097   1.139   1.215   1.215   1.272   1.272
  1.315   1.355   1.355   1.421   1.421   1.475   1.517   1.544
  1.544   1.550   1.560   1.560   1.646   1.646   1.715   1.716
  1.725   1.773   1.773   1.816   1.864   2.357   2.399   2.408
  2.408   2.469   2.470   2.581   2.756   2.756   2.859   3.070
  3.070   3.194   3.219   3.348   3.357   3.357   3.473   3.473
  3.573   3.573   3.617   3.788   3.789   3.904   3.906   3.928
  4.033   4.034   4.144   4.175   4.176   4.303   4.305   4.305
  4.351   4.372   4.372   4.483   4.484   4.489   4.613   4.626
  4.627   4.688   4.738   4.883   4.884   5.299   5.915   5.915
  6.467  11.605  11.605  11.943  17.730  17.813  17.910  17.992
 18.048  22.343  22.358  22.365  22.366  22.373  22.373  22.399
 24.294  27.994  28.251  28.252  41.124  41.140  41.359  41.401
 41.446 141.266
 
 Beta MOs
 -- Occupied --
-65.481  -9.946  -5.143  -3.544  -3.544  -3.543  -0.714  -0.535
 -0.398  -0.397  -0.323  -0.323  -0.308
 -- Virtual --
  0.139   0.155   0.166   0.166   0.183   0.190   0.190   0.202
  0.202   0.256   0.265   0.265   0.274   0.299   0.303   0.304
  0.318   0.352   0.368   0.368   0.431   0.431   0.478   0.481
  0.481   0.487   0.529   0.529   0.615   0.631   0.631   0.644
  0.672   0.716   0.716   0.730   0.770   0.770   0.775   0.817
  0.817   0.881   0.911   0.923   0.923   0.967   0.967   1.038
  1.047   1.047   1.082   1.098   1.139   1.215   1.215   1.273
  1.273   1.315   1.355   1.355   1.421   1.421   1.475   1.518
  1.544   1.544   1.550   1.560   1.560   1.647   1.647   1.715
  1.715   1.724   1.773   1.773   1.817   1.864   2.357   2.400
  2.409   2.409   2.470   2.470   2.582   2.756   2.756   2.859
  3.070   3.070   3.194   3.219   3.348   3.358   3.358   3.473
  3.474   3.573   3.573   3.618   3.789   3.789   3.904   3.906
  3.930   4.033   4.034   4.144   4.176   4.176   4.303   4.304
  4.304   4.351   4.372   4.372   4.484   4.484   4.489   4.613
  4.626   4.626   4.688   4.738   4.883   4.884   5.299   5.915
  5.916   6.467  11.605  11.605  11.943  17.730  17.813  17.911
 17.993  18.048  22.343  22.358  22.366  22.366  22.373  22.374
 22.399  24.295  27.994  28.252  28.252  41.124  41.140  41.359
 41.401  41.447 141.266
 --------------------------------------------------------------
 
          Ground-State Mulliken Net Atomic Charges

     Atom                 Charge (a.u.)    Spin (a.u.)
  --------------------------------------------------------
      1 C                     2.706211      -2.942575
      2 Si                    0.725425      -0.501795
      3 H                    -1.202404       1.302798
      4 H                    -1.216649       1.317588
      5 H                    -1.185873       1.285724
      6 H                    -0.275499       0.179462
      7 H                    -0.276005       0.180270
      8 H                    -0.275206       0.178528
  --------------------------------------------------------
  Sum of atomic charges =    -1.000000
  Sum of spin   charges =     1.000000

 -----------------------------------------------------------------
                    Cartesian Multipole Moments
 -----------------------------------------------------------------
    Charge (ESU x 10^10)
                -4.8032
    Dipole Moment (Debye)
         X      -0.0023      Y       0.1234      Z       2.0181
       Tot       2.0218
    Quadrupole Moments (Debye-Ang)
        XX     -49.5490     XY      -0.0838     YY     -49.5434
        XZ      -0.0035     YZ      -0.0530     ZZ     -48.1355
    Octapole Moments (Debye-Ang^2)
       XXX      -1.3926    XXY       0.4861    XYY       1.3628
       YYY       1.4584    XXZ     -19.9914    XYZ       0.0414
       YYZ     -19.9868    XZZ       0.0081    YZZ       0.4523
       ZZZ     -71.6372
    Hexadecapole Moments (Debye-Ang^3)
      XXXX    -374.6812   XXXY      -0.6583   XXYY    -124.8719
      XYYY      -0.7378   YYYY    -374.5875   XXXZ       7.4195
      XXYZ      -0.0773   XYYZ      -7.4000   YYYZ      -0.2319
      XXZZ    -180.9346   XYZZ      -0.2151   YYZZ    -180.9160
      XZZZ       0.0330   YZZZ      -0.2213   ZZZZ    -672.0042
 -----------------------------------------------------------------
 Total job time:  96.22s(wall), 93.98s(cpu) 
 Sun Mar 23 19:23:54 2014

        *************************************************************
        *                                                           *
        *  Thank you very much for using Q-Chem.  Have a nice day.  *
        *                                                           *
        *************************************************************


0 sent ACK to 0 
now end server 0 ... 
 
**********************************************************************
Job 2 of 3 
**********************************************************************
 
Process 0 of 1 is on cl135 - thread support 1
initial socket setup ...start
initial socket setup ...done 
now start server 0 ... 

cmd = /usr/bin/ssh clhead /usr/local/qchem/bin/get_hostid 1339645420 > /tmp/1602380.1.medium.q/qchem28611/lic.dat

cmd = /usr/bin/ssh clhead /usr/local/qchem/bin/get_hostid 1339645420 > /tmp/1602380.1.medium.q/qchem28611/lic.dat

cmd = /usr/bin/ssh clhead /usr/local/qchem/bin/get_hostid 1339645420 > /tmp/1602380.1.medium.q/qchem28611/lic.dat

cmd = /usr/bin/ssh clhead /usr/local/qchem/bin/get_hostid 1339645420 > /tmp/1602380.1.medium.q/qchem28611/lic.dat

cmd = /usr/bin/ssh clhead /usr/local/qchem/bin/get_hostid 1339645420 > /tmp/1602380.1.medium.q/qchem28611/lic.dat
                  Welcome to Q-Chem
     A Quantum Leap Into The Future Of Chemistry

 Y. Shao, L. Fusti-Molnar, Y. Jung, J. Kussmann, C. Ochsenfeld,
 S. T. Brown, A. T. B. Gilbert, L. V. Slipchenko,S. V. Levchenko,
 D. P. O'Neill, R. A. DiStasio Jr., R. C. Lochan, T. Wang,
 G. J. O. Beran, N. A. Besley, J. M. Herbert, C. Y. Lin,
 T. Van Voorhis, S. H. Chien, A. Sodt, R. P. Steele, 
 V. A. Rassolov, P. E. Maslen, P. P. Korambath, R. D. Adamson,
 B. Austin, J. Baker, E. F. C. Byrd, H. Dachsel, R. J. Doerksen,
 A. Dreuw, B. D. Dunietz, A. D. Dutoi, T. R. Furlani,
 S. R. Gwaltney, A. Heyden, S. Hirata, C.-P. Hsu, G. Kedziora,
 R. Z. Khaliullin, P. Klunzinger, A. M. Lee, M. S. Lee, W. Liang,
 I. Lotan, N. Nair, B. Peters, E. I. Proynov, P. A. Pieniazek, 
 Y. M. Rhee, J. Ritchie, E. Rosta, C. D. Sherrill, 
 A. C. Simmonett, J. E. Subotnik, H. L. Woodcock III,
 W. Zhang, A. T. Bell, A. K. Chakraborty, D. M. Chipman,
 F. J. Keil, A. Warshel, W. J. Hehre, H. F. Schaefer III,
 J. Kong, A. I. Krylov, P. M. W. Gill, M. Head-Gordon,
 Q-Chem, Version 3.1, Q-Chem, Inc., Pittsburgh, PA (2007).

 Additional authors for Version 3.1: 
 Z. Gan, Y. Zhao, N. E. Schultz, D. Truhlar, E. Epifanovsky and M. Oana.

 Additional authors for Version 3.2: 
 R. Baer, B. R. Brooks, D. Casanova, J.-D. Chai, C.-L. Cheng, 
 C. Cramer, D. Crittenden, A. Ghysels, G. Hawkins, E. G. Hohenstein, 
 C. Kelley, W. Kurlancheek, D. Liotard, E. Livshits, P. Manohar, 
 A. Marenich, D. Neuhauser, R. Olson, M. A. Rohrdanz, K. S. Thanthiriwatte, 
 A. J. W. Thom, V. Vanovschi, C. F. Williams, Q. Wu and Z.-Q. You. 


 Intel X86 Linux Version

 Q-chem begins on Sun Mar 23 19:23:58 2014  

 Parallel job on  1  processors
Processing $rem in /usr/local/qchem/config/preferences.

theFileMan(): MAXOPENFILES=974 MAX_SUB_FILE_NUM=16
Maximum size of a physical file is 2.0 GB, maximum size of a tmp-file is 32.0 GB


--------------------------------------------------------------
User input:
--------------------------------------------------------------

$molecule
0,1
C         -0.00013        0.00000        0.01487
Si        -0.00043        0.00000        1.87462
H          1.01782        0.00000       -0.37208
H         -0.50853       -0.88134       -0.37324
H         -0.50853        0.88134       -0.37324
H         -1.38712        0.00000        2.39962
H          0.69345       -1.20137        2.39767
H          0.69345        1.20137        2.39767
$end

$comment
neutral
$end

$xc_functional
C PBE   1.00
X wPBE  1.00
$end


$rem
SYMMETRY_DECOMPOSITION	0
LRC_DFT                 true
exchange 		general
BASIS                   g3large
omega			410
mem_static              760
max_scf_cycles          200
scf_final_print         1
sym_ignore              true
$end

--------------------------------------------------------------
 Writing REM_CC_EA            8
 ----------------------------------------------------
       Standard Nuclear Orientation (Angstroms)
    I     Atom         X            Y            Z
 ----------------------------------------------------
    1      C      -0.000130     0.000000     0.014870
    2      Si     -0.000430     0.000000     1.874620
    3      H       1.017820     0.000000    -0.372080
    4      H      -0.508530    -0.881340    -0.373240
    5      H      -0.508530     0.881340    -0.373240
    6      H      -1.387120     0.000000     2.399620
    7      H       0.693450    -1.201370     2.397670
    8      H       0.693450     1.201370     2.397670
 ----------------------------------------------------
 Nuclear Repulsion Energy =    63.1402175305 hartrees
 There are       13 alpha and       13 beta electrons
 Requested basis set is G3large
 There are 65 shells and 168 basis functions

Total QAlloc Memory Limit   2000 MB
Mega-Array Size       743 MB
MEM_STATIC part       760 MB

                       Distance Matrix (Angstroms)
             C (  1)   Si(  2)   H (  3)   H (  4)   H (  5)   H (  6)
   Si(  2)  1.859750
   H (  3)  1.089014  2.466677
   H (  4)  1.088972  2.467347  1.762528
   H (  5)  1.088972  2.467347  1.762528  1.762680
   H (  6)  2.758763  1.482745  3.669613  3.039315  3.039315
   H (  7)  2.757187  1.482680  3.036449  3.037288  3.668839  2.402512
   H (  8)  2.757187  1.482680  3.036449  3.668839  3.037288  2.402512
             H (  7)
   H (  8)  2.402740
 
 A cutoff of  1.0D-08 yielded   2044 shell pairs
 There are  13820 function pairs ( 17231 Cartesian)
Evaluating contribution to one-electron hamiltonian from nuclear
 Smallest overlap matrix eigenvalue = 1.35E-04
 Multipole matrices computed through 2nd order

  Scale SEOQF with 1.000000e-01/1.000000e-01/1.000000e-01

 Standard Electronic Orientation quadrupole field applied
 Nucleus-field energy     =    -0.0000000067 hartrees
 Guess from superposition of atomic densities
 Warning:  Energy on first SCF cycle will be non-variational
 Long-range K will be added via erf
 Coulomb attenuation parameter = 0.41 bohr**(-1)
 A restricted Kohn-Sham SCF calculation will be
 performed using Pulay DIIS extrapolation
 Exchange:  wPBE + LR-HF      Correlation:  PBE
 Using SG-1 standard quadrature grid
 SCF converges when DIIS error is below 1.0E-05
 Requested basis set is G3large
 There are 65 shells and 168 basis functions
 A cutoff of  1.0D-08 yielded   2044 shell pairs
 There are  13820 function pairs ( 17231 Cartesian)
 ---------------------------------------
  Cycle       Energy         DIIS Error
 ---------------------------------------
    1    -331.2667164023      2.77E-02
    2    -331.0690292359      2.74E-03
    3    -331.0938332064      1.53E-03
    4    -331.1017365622      2.72E-04
    5    -331.1021193366      5.34E-05
    6    -331.1021389662      1.39E-05
    7    -331.1021398466      2.89E-06 Convergence criterion met
 ---------------------------------------
 One-Electron    Energy =  -581.4798008685
 Total Coulomb   Energy =   215.7016534328
 Alpha Exchange  Energy =    -2.6612269271
 Beta  Exchange  Energy =    -2.6612269271
 DFT   Exchange  Energy =   -22.2626251042
 DFT Correlation Energy =    -0.8791309764
 Nuclear Repu.   Energy =    63.1402175238
 Nuclear Attr.   Energy =  -911.8064607508
 Kinetic         Energy =   330.3266598823
 SCF time:  CPU 58.02 s  wall 59.76 s
 Final Alpha MO Eigenvalues
            1           2           3           4           5           6
    1 -65.6091898 -10.0926563  -5.2713656  -3.6724367  -3.6724257  -3.6718043
            7           8           9          10          11          12
    1  -0.8581312  -0.6641095  -0.5412761  -0.5412406  -0.4504468  -0.4504411
           13          14          15          16          17          18
    1  -0.4460063   0.0386605   0.0615026   0.0678735   0.0678866   0.0863123
 Analysis of SCF Wavefunction
 
 --------------------------------------------------------------
                    Orbital Energies (a.u.)
 --------------------------------------------------------------
 
 Alpha MOs
 -- Occupied --
-65.609 -10.093  -5.271  -3.672  -3.672  -3.672  -0.858  -0.664
 -0.541  -0.541  -0.450  -0.450  -0.446
 -- Virtual --
  0.039   0.062   0.068   0.068   0.086   0.095   0.095   0.103
  0.104   0.157   0.157   0.157   0.161   0.187   0.187   0.191
  0.205   0.237   0.239   0.239   0.304   0.304   0.359   0.364
  0.364   0.368   0.413   0.413   0.498   0.504   0.504   0.519
  0.546   0.588   0.588   0.608   0.640   0.640   0.649   0.683
  0.684   0.749   0.783   0.796   0.796   0.843   0.843   0.912
  0.924   0.924   0.949   0.955   1.010   1.080   1.080   1.144
  1.144   1.185   1.211   1.211   1.298   1.298   1.337   1.383
  1.408   1.408   1.426   1.431   1.431   1.506   1.507   1.577
  1.577   1.590   1.648   1.648   1.684   1.726   2.230   2.271
  2.276   2.276   2.341   2.341   2.455   2.613   2.613   2.716
  2.945   2.945   3.048   3.076   3.217   3.217   3.223   3.328
  3.329   3.430   3.430   3.480   3.646   3.646   3.770   3.772
  3.785   3.906   3.907   3.999   4.036   4.036   4.179   4.181
  4.181   4.227   4.243   4.243   4.341   4.341   4.362   4.468
  4.482   4.482   4.542   4.609   4.755   4.755   5.153   5.769
  5.769   6.338  11.477  11.477  11.814  17.602  17.685  17.782
 17.864  17.920  22.215  22.230  22.237  22.238  22.244  22.245
 22.271  24.149  27.849  28.106  28.106  40.979  40.994  41.214
 41.255  41.301 141.138
 --------------------------------------------------------------
 
          Ground-State Mulliken Net Atomic Charges

     Atom                 Charge (a.u.)
  ----------------------------------------
      1 C                    -0.286962
      2 Si                    0.211665
      3 H                     0.098514
      4 H                     0.098478
      5 H                     0.098423
      6 H                    -0.073283
      7 H                    -0.073394
      8 H                    -0.073441
  ----------------------------------------
  Sum of atomic charges =     0.000000

 -----------------------------------------------------------------
                    Cartesian Multipole Moments
 -----------------------------------------------------------------
    Charge (ESU x 10^10)
                 0.0000
    Dipole Moment (Debye)
         X      -0.0011      Y       0.0000      Z      -0.8143
       Tot       0.8143
    Quadrupole Moments (Debye-Ang)
        XX     -22.8431     XY       0.0000     YY     -22.8438
        XZ      -0.0021     YZ      -0.0001     ZZ     -25.0736
    Octapole Moments (Debye-Ang^2)
       XXX       1.6428    XXY      -0.0001    XYY      -1.6241
       YYY      -0.0003    XXZ     -31.5206    XYZ      -0.0003
       YYZ     -31.5241    XZZ       0.0006    YZZ      -0.0003
       ZZZ     -92.6776
    Hexadecapole Moments (Debye-Ang^3)
      XXXX     -55.8743   XXXY      -0.0001   XXYY     -18.6259
      XYYY      -0.0002   YYYY     -55.8822   XXXZ       1.1997
      XXYZ      -0.0003   XYYZ      -1.1582   YYYZ      -0.0006
      XXZZ     -80.5375   XYZZ      -0.0010   YYZZ     -80.5429
      XZZZ       0.0317   YZZZ      -0.0011   ZZZZ    -406.6884
 -----------------------------------------------------------------
 Total job time:  59.97s(wall), 58.19s(cpu) 
 Sun Mar 23 19:24:58 2014

        *************************************************************
        *                                                           *
        *  Thank you very much for using Q-Chem.  Have a nice day.  *
        *                                                           *
        *************************************************************


0 sent ACK to 0 
now end server 0 ... 
 
**********************************************************************
Job 3 of 3 
**********************************************************************
 
Process 0 of 1 is on cl135 - thread support 1
initial socket setup ...start
initial socket setup ...done 
now start server 0 ... 

cmd = /usr/bin/ssh clhead /usr/local/qchem/bin/get_hostid 908015239 > /tmp/1602380.1.medium.q/qchem28611/lic.dat

cmd = /usr/bin/ssh clhead /usr/local/qchem/bin/get_hostid 908015239 > /tmp/1602380.1.medium.q/qchem28611/lic.dat

cmd = /usr/bin/ssh clhead /usr/local/qchem/bin/get_hostid 908015239 > /tmp/1602380.1.medium.q/qchem28611/lic.dat

cmd = /usr/bin/ssh clhead /usr/local/qchem/bin/get_hostid 908015239 > /tmp/1602380.1.medium.q/qchem28611/lic.dat

cmd = /usr/bin/ssh clhead /usr/local/qchem/bin/get_hostid 908015239 > /tmp/1602380.1.medium.q/qchem28611/lic.dat
                  Welcome to Q-Chem
     A Quantum Leap Into The Future Of Chemistry

 Y. Shao, L. Fusti-Molnar, Y. Jung, J. Kussmann, C. Ochsenfeld,
 S. T. Brown, A. T. B. Gilbert, L. V. Slipchenko,S. V. Levchenko,
 D. P. O'Neill, R. A. DiStasio Jr., R. C. Lochan, T. Wang,
 G. J. O. Beran, N. A. Besley, J. M. Herbert, C. Y. Lin,
 T. Van Voorhis, S. H. Chien, A. Sodt, R. P. Steele, 
 V. A. Rassolov, P. E. Maslen, P. P. Korambath, R. D. Adamson,
 B. Austin, J. Baker, E. F. C. Byrd, H. Dachsel, R. J. Doerksen,
 A. Dreuw, B. D. Dunietz, A. D. Dutoi, T. R. Furlani,
 S. R. Gwaltney, A. Heyden, S. Hirata, C.-P. Hsu, G. Kedziora,
 R. Z. Khaliullin, P. Klunzinger, A. M. Lee, M. S. Lee, W. Liang,
 I. Lotan, N. Nair, B. Peters, E. I. Proynov, P. A. Pieniazek, 
 Y. M. Rhee, J. Ritchie, E. Rosta, C. D. Sherrill, 
 A. C. Simmonett, J. E. Subotnik, H. L. Woodcock III,
 W. Zhang, A. T. Bell, A. K. Chakraborty, D. M. Chipman,
 F. J. Keil, A. Warshel, W. J. Hehre, H. F. Schaefer III,
 J. Kong, A. I. Krylov, P. M. W. Gill, M. Head-Gordon,
 Q-Chem, Version 3.1, Q-Chem, Inc., Pittsburgh, PA (2007).

 Additional authors for Version 3.1: 
 Z. Gan, Y. Zhao, N. E. Schultz, D. Truhlar, E. Epifanovsky and M. Oana.

 Additional authors for Version 3.2: 
 R. Baer, B. R. Brooks, D. Casanova, J.-D. Chai, C.-L. Cheng, 
 C. Cramer, D. Crittenden, A. Ghysels, G. Hawkins, E. G. Hohenstein, 
 C. Kelley, W. Kurlancheek, D. Liotard, E. Livshits, P. Manohar, 
 A. Marenich, D. Neuhauser, R. Olson, M. A. Rohrdanz, K. S. Thanthiriwatte, 
 A. J. W. Thom, V. Vanovschi, C. F. Williams, Q. Wu and Z.-Q. You. 


 Intel X86 Linux Version

 Q-chem begins on Sun Mar 23 19:25:03 2014  

 Parallel job on  1  processors
Processing $rem in /usr/local/qchem/config/preferences.

theFileMan(): MAXOPENFILES=974 MAX_SUB_FILE_NUM=16
Maximum size of a physical file is 2.0 GB, maximum size of a tmp-file is 32.0 GB


--------------------------------------------------------------
User input:
--------------------------------------------------------------

$molecule
1,2
C         -0.00013        0.00000        0.01487
Si        -0.00043        0.00000        1.87462
H          1.01782        0.00000       -0.37208
H         -0.50853       -0.88134       -0.37324
H         -0.50853        0.88134       -0.37324
H         -1.38712        0.00000        2.39962
H          0.69345       -1.20137        2.39767
H          0.69345        1.20137        2.39767
$end

$comment
positive
$end

$xc_functional
C PBE   1.00
X wPBE  1.00
$end

$rem
SYMMETRY_DECOMPOSITION	0
LRC_DFT                 true
exchange 		general
BASIS                   g3large
omega			410
mem_static              760
max_scf_cycles          200
scf_final_print         1
sym_ignore              true
$end

--------------------------------------------------------------
 Writing REM_CC_EA            8
 ----------------------------------------------------
       Standard Nuclear Orientation (Angstroms)
    I     Atom         X            Y            Z
 ----------------------------------------------------
    1      C      -0.000130     0.000000     0.014870
    2      Si     -0.000430     0.000000     1.874620
    3      H       1.017820     0.000000    -0.372080
    4      H      -0.508530    -0.881340    -0.373240
    5      H      -0.508530     0.881340    -0.373240
    6      H      -1.387120     0.000000     2.399620
    7      H       0.693450    -1.201370     2.397670
    8      H       0.693450     1.201370     2.397670
 ----------------------------------------------------
 Nuclear Repulsion Energy =    63.1402175305 hartrees
 There are       13 alpha and       12 beta electrons
 Requested basis set is G3large
 There are 65 shells and 168 basis functions

Total QAlloc Memory Limit   2000 MB
Mega-Array Size       743 MB
MEM_STATIC part       760 MB

                       Distance Matrix (Angstroms)
             C (  1)   Si(  2)   H (  3)   H (  4)   H (  5)   H (  6)
   Si(  2)  1.859750
   H (  3)  1.089014  2.466677
   H (  4)  1.088972  2.467347  1.762528
   H (  5)  1.088972  2.467347  1.762528  1.762680
   H (  6)  2.758763  1.482745  3.669613  3.039315  3.039315
   H (  7)  2.757187  1.482680  3.036449  3.037288  3.668839  2.402512
   H (  8)  2.757187  1.482680  3.036449  3.668839  3.037288  2.402512
             H (  7)
   H (  8)  2.402740
 
 A cutoff of  1.0D-08 yielded   2044 shell pairs
 There are  13820 function pairs ( 17231 Cartesian)
Evaluating contribution to one-electron hamiltonian from nuclear
 Smallest overlap matrix eigenvalue = 1.35E-04
 Multipole matrices computed through 2nd order

  Scale SEOQF with 1.000000e-01/1.000000e-01/1.000000e-01

 Standard Electronic Orientation quadrupole field applied
 Nucleus-field energy     =    -0.0000000067 hartrees
 Guess from superposition of atomic densities
 Warning:  Energy on first SCF cycle will be non-variational
 Long-range K will be added via erf
 Coulomb attenuation parameter = 0.41 bohr**(-1)
 An unrestricted Kohn-Sham SCF calculation will be
 performed using Pulay DIIS extrapolation
 Exchange:  wPBE + LR-HF      Correlation:  PBE
 Using SG-1 standard quadrature grid
 SCF converges when DIIS error is below 1.0E-05
 Requested basis set is G3large
 There are 65 shells and 168 basis functions
 A cutoff of  1.0D-08 yielded   2044 shell pairs
 There are  13820 function pairs ( 17231 Cartesian)
 Warning!  Inaccurate integrated density:
   Number of electrons =    25
   Numerical integral  =    25.999985127030
   Relative error      =     3.9999405081 %
 ---------------------------------------
  Cycle       Energy         DIIS Error
 ---------------------------------------
    1    -331.2667164023      2.77E-02
    2    -330.5915806039      3.19E-03
    3    -330.6401886870      1.87E-03
    4    -330.6529757413      3.88E-04
    5    -330.6539075299      7.41E-05
    6    -330.6540258036      2.83E-05
    7    -330.6540571262      1.37E-05
    8    -330.6540751461      9.76E-06 Convergence criterion met
 ---------------------------------------
 One-Electron    Energy =  -574.6534430191
 Total Coulomb   Energy =   208.9873863354
 Alpha Exchange  Energy =    -2.6761547285
 Beta  Exchange  Energy =    -2.4586044356
 DFT   Exchange  Energy =   -22.1484577760
 DFT Correlation Energy =    -0.8450190461
 Nuclear Repu.   Energy =    63.1402175238
 Nuclear Attr.   Energy =  -904.7075110278
 Kinetic         Energy =   330.0540680087
 <S^2> = 0.7677
 SCF time:  CPU 80.34 s  wall 82.47 s
 Final Alpha MO Eigenvalues
            1           2           3           4           5           6
    1 -65.9000363 -10.3095668  -5.5618141  -3.9697700  -3.9601964  -3.9586779
            7           8           9          10          11          12
    1  -1.0814005  -0.9635531  -0.8156325  -0.7599839  -0.7392878  -0.7079860
           13          14          15          16          17          18
    1  -0.6784847  -0.1250080  -0.1071494  -0.1053102  -0.0996119  -0.0706764
 Final Beta MO Eigenvalues
            1           2           3           4           5           6
    1 -65.8992966 -10.3090834  -5.5609500  -3.9662712  -3.9601840  -3.9584298
            7           8           9          10          11          12
    1  -1.0734512  -0.9011456  -0.7524176  -0.7373107  -0.6839758  -0.6744079
           13          14          15          16          17
    1  -0.4418697  -0.1194368  -0.0990641  -0.0942210  -0.0822686
 Analysis of SCF Wavefunction
 
 --------------------------------------------------------------
                    Orbital Energies (a.u.)
 --------------------------------------------------------------
 
 Alpha MOs
 -- Occupied --
-65.900 -10.310  -5.562  -3.970  -3.960  -3.959  -1.081  -0.964
 -0.816  -0.760  -0.739  -0.708  -0.678
 -- Virtual --
 -0.125  -0.107  -0.105  -0.100  -0.071  -0.064  -0.060  -0.035
 -0.028  -0.026  -0.018  -0.011   0.012   0.018   0.019   0.026
  0.049   0.057   0.061   0.063   0.108   0.111   0.155   0.173
  0.177   0.194   0.224   0.228   0.276   0.306   0.310   0.314
  0.321   0.362   0.374   0.394   0.414   0.425   0.449   0.491
  0.493   0.551   0.561   0.571   0.579   0.600   0.606   0.656
  0.678   0.689   0.727   0.746   0.776   0.859   0.866   0.895
  0.920   0.947   1.009   1.014   1.034   1.060   1.114   1.160
  1.172   1.177   1.179   1.200   1.210   1.285   1.296   1.340
  1.361   1.373   1.394   1.417   1.449   1.526   1.936   1.995
  2.004   2.022   2.062   2.069   2.175   2.396   2.403   2.499
  2.592   2.674   2.839   2.860   2.929   2.983   2.994   3.113
  3.120   3.206   3.210   3.236   3.422   3.423   3.510   3.514
  3.570   3.587   3.635   3.760   3.781   3.786   3.821   3.833
  3.891   3.916   3.979   3.992   4.065   4.118   4.122   4.247
  4.259   4.268   4.320   4.331   4.446   4.492   4.943   5.556
  5.563   6.054  11.179  11.192  11.530  17.310  17.394  17.494
 17.574  17.629  21.922  21.939  21.945  21.951  21.955  21.956
 21.982  23.932  27.631  27.889  27.890  40.761  40.777  40.997
 41.038  41.084 140.848
 
 Beta MOs
 -- Occupied --
-65.899 -10.309  -5.561  -3.966  -3.960  -3.958  -1.073  -0.901
 -0.752  -0.737  -0.684  -0.674
 -- Virtual --
 -0.442  -0.119  -0.099  -0.094  -0.082  -0.067  -0.063  -0.057
 -0.026  -0.025  -0.021  -0.016  -0.009   0.014   0.021   0.025
  0.040   0.050   0.062   0.063   0.064   0.112   0.115   0.171
  0.175   0.179   0.196   0.228   0.231   0.294   0.316   0.319
  0.322   0.324   0.375   0.378   0.398   0.428   0.430   0.453
  0.495   0.495   0.555   0.570   0.574   0.583   0.610   0.613
  0.682   0.691   0.694   0.730   0.755   0.787   0.868   0.870
  0.916   0.926   0.964   1.013   1.016   1.057   1.070   1.128
  1.170   1.181   1.184   1.195   1.208   1.212   1.293   1.298
  1.359   1.367   1.375   1.408   1.422   1.450   1.528   1.955
  2.003   2.018   2.022   2.075   2.078   2.189   2.402   2.405
  2.508   2.673   2.700   2.843   2.862   2.968   2.990   2.994
  3.119   3.122   3.210   3.212   3.240   3.424   3.425   3.516
  3.518   3.572   3.629   3.647   3.789   3.811   3.812   3.896
  3.909   3.928   3.964   3.996   4.002   4.100   4.127   4.128
  4.261   4.268   4.272   4.336   4.346   4.484   4.504   4.947
  5.562   5.566   6.060  11.186  11.193  11.530  17.312  17.395
 17.495  17.576  17.631  21.924  21.940  21.946  21.951  21.956
 21.956  21.982  23.933  27.631  27.890  27.891  40.762  40.778
 40.997  41.039  41.085 140.849
 --------------------------------------------------------------
 
          Ground-State Mulliken Net Atomic Charges

     Atom                 Charge (a.u.)    Spin (a.u.)
  --------------------------------------------------------
      1 C                    -0.198511       0.025643
      2 Si                    0.392467       0.115875
      3 H                     0.150957       0.016738
      4 H                     0.160459       0.039591
      5 H                     0.144527       0.002464
      6 H                     0.107879       0.255895
      7 H                     0.052673       0.024000
      8 H                     0.189549       0.519794
  --------------------------------------------------------
  Sum of atomic charges =     1.000000
  Sum of spin   charges =     1.000000

 -----------------------------------------------------------------
                    Cartesian Multipole Moments
 -----------------------------------------------------------------
    Charge (ESU x 10^10)
                 4.8032
    Dipole Moment (Debye)
         X       0.0691      Y       1.1764      Z       7.7637
       Tot       7.8526
    Quadrupole Moments (Debye-Ang)
        XX     -16.2012     XY       1.7540     YY     -16.0480
        XZ       0.2537     YZ       3.3271     ZZ      -0.9628
    Octapole Moments (Debye-Ang^2)
       XXX      -0.6552    XXY       0.8430    XYY       0.8552
       YYY       2.5348    XXZ     -18.6613    XYZ       3.8317
       YYZ     -18.3179    XZZ       0.6369    YZZ       8.0476
       ZZZ     -31.4566
    Hexadecapole Moments (Debye-Ang^3)
      XXXX     -35.4967   XXXY       2.3449   XXYY     -11.7293
      XYYY       2.8058   YYYY     -35.0650   XXXZ      -4.8844
      XXYZ       2.2318   XYYZ       5.4983   YYYZ       6.7081
      XXZZ     -45.7699   XYZZ       9.5484   YYZZ     -44.8682
      XZZZ       1.7772   YZZZ      21.1194   ZZZZ    -230.3234
 -----------------------------------------------------------------
 Total job time:  82.70s(wall), 80.51s(cpu) 
 Sun Mar 23 19:26:25 2014

        *************************************************************
        *                                                           *
        *  Thank you very much for using Q-Chem.  Have a nice day.  *
        *                                                           *
        *************************************************************


0 sent ACK to 0 
now end server 0 ... 
