Process 0 of 1 is on cl226.stfx.acenet.ca - thread support 1
initial socket setup ...start
initial socket setup ...done 
now start server 0 ... 

cmd = /usr/bin/ssh clhead /usr/local/qchem/bin/get_hostid 1779183399 > /scratch/tmp/4503910.1.medium.q/qchem7644/lic.dat
                  Welcome to Q-Chem
     A Quantum Leap Into The Future Of Chemistry

 Y. Shao, L. Fusti-Molnar, Y. Jung, J. Kussmann, C. Ochsenfeld,
 S. T. Brown, A. T. B. Gilbert, L. V. Slipchenko,S. V. Levchenko,
 D. P. O'Neill, R. A. DiStasio Jr., R. C. Lochan, T. Wang,
 G. J. O. Beran, N. A. Besley, J. M. Herbert, C. Y. Lin,
 T. Van Voorhis, S. H. Chien, A. Sodt, R. P. Steele, 
 V. A. Rassolov, P. E. Maslen, P. P. Korambath, R. D. Adamson,
 B. Austin, J. Baker, E. F. C. Byrd, H. Dachsel, R. J. Doerksen,
 A. Dreuw, B. D. Dunietz, A. D. Dutoi, T. R. Furlani,
 S. R. Gwaltney, A. Heyden, S. Hirata, C.-P. Hsu, G. Kedziora,
 R. Z. Khaliullin, P. Klunzinger, A. M. Lee, M. S. Lee, W. Liang,
 I. Lotan, N. Nair, B. Peters, E. I. Proynov, P. A. Pieniazek, 
 Y. M. Rhee, J. Ritchie, E. Rosta, C. D. Sherrill, 
 A. C. Simmonett, J. E. Subotnik, H. L. Woodcock III,
 W. Zhang, A. T. Bell, A. K. Chakraborty, D. M. Chipman,
 F. J. Keil, A. Warshel, W. J. Hehre, H. F. Schaefer III,
 J. Kong, A. I. Krylov, P. M. W. Gill, M. Head-Gordon,
 Q-Chem, Version 3.1, Q-Chem, Inc., Pittsburgh, PA (2007).

 Additional authors for Version 3.1: 
 Z. Gan, Y. Zhao, N. E. Schultz, D. Truhlar, E. Epifanovsky and M. Oana.

 Additional authors for Version 3.2: 
 R. Baer, B. R. Brooks, D. Casanova, J.-D. Chai, C.-L. Cheng, 
 C. Cramer, D. Crittenden, A. Ghysels, G. Hawkins, E. G. Hohenstein, 
 C. Kelley, W. Kurlancheek, D. Liotard, E. Livshits, P. Manohar, 
 A. Marenich, D. Neuhauser, R. Olson, M. A. Rohrdanz, K. S. Thanthiriwatte, 
 A. J. W. Thom, V. Vanovschi, C. F. Williams, Q. Wu and Z.-Q. You. 


 Intel X86 Linux Version

 Q-chem begins on Sun Apr 17 20:01:31 2011  

 Parallel job on  1  processors
Processing $rem in /usr/local/qchem/config/preferences.

theFileMan(): MAXOPENFILES=974 MAX_SUB_FILE_NUM=16
Maximum size of a physical file is 2.0 GB, maximum size of a tmp-file is 32.0 GB


--------------------------------------------------------------
User input:
--------------------------------------------------------------

$molecule
0,1
S
O,1,SO
O,1,SO,2,OSO

SO=1.46359695
OSO=119.10217046

$end

$comment
neutral
$end

$xc_functional
   X HF 1.0
   X BNL 1.0
   C LYP 1.0
$end

$rem
SYMMETRY_DECOMPOSITION	0
exchange 		general
BASIS                   g3large
omega			480 
JOBTYPE                 opt
separate_jk		true
mem_static              760
max_scf_cycles          200
scf_final_print         1
sym_ignore              true
$end


--------------------------------------------------------------
 Writing REM_CC_EA            3
 ----------------------------------------------------
       Standard Nuclear Orientation (Angstroms)
    I     Atom         X            Y            Z
 ----------------------------------------------------
    1      S       0.000000     0.000000     0.000000
    2      O       0.000000     0.000000     1.463597
    3      O       1.278823     0.000000    -0.711847
 ----------------------------------------------------
 Nuclear Repulsion Energy =   105.9800937865 hartrees
 There are       16 alpha and       16 beta electrons
 Requested basis set is G3large
 There are 39 shells and 150 basis functions

Total QAlloc Memory Limit   2000 MB
Mega-Array Size       743 MB
MEM_STATIC part       760 MB
 A cutoff of  1.0D-11 yielded    732 shell pairs
 There are  11026 function pairs ( 15100 Cartesian)
Evaluating contribution to one-electron hamiltonian from nuclear
 Smallest overlap matrix eigenvalue = 5.33E-04
 Multipole matrices computed through 2nd order

  Scale SEOQF with 1.000000e-01/1.000000e-01/1.000000e-01

 Standard Electronic Orientation quadrupole field applied
 Nucleus-field energy     =    -0.0000000018 hartrees
 Guess from superposition of atomic densities
 Warning:  Energy on first SCF cycle will be non-variational
 A restricted hybrid HF-DFT SCF calculation will be
 performed using Pulay DIIS extrapolation
 Exchange:     1.0000 Hartree-Fock + 1.0000 BNL
 Correlation:  1.0000 LYP
 Using SG-1 standard quadrature grid
 SCF converges when DIIS error is below 1.0E-08
 ---------------------------------------
  Cycle       Energy         DIIS Error
 ---------------------------------------
    1    -546.3776549909      4.35E-02
    2    -545.5493769009      8.45E-03
    3    -545.5216215755      1.02E-02
    4    -545.7068224981      8.74E-04
    5    -545.7085433647      2.29E-04
    6    -545.7089424758      1.59E-04
    7    -545.7090338420      9.47E-05
    8    -545.7090872778      3.01E-05
    9    -545.7091034406      1.03E-05
   10    -545.7091056802      2.65E-06
   11    -545.7091058120      7.51E-07
   12    -545.7091058200      1.85E-07
   13    -545.7091058204      6.24E-08
   14    -545.7091058205      2.34E-08
   15    -545.7091058207      1.07E-08
   16    -545.7091058207      3.09E-09 Convergence criterion met
 ---------------------------------------
 One-Electron    Energy =  -965.6483726436
 Total Coulomb   Energy =   353.6934395917
 Alpha Exchange  Energy =    -3.8682071933
 Beta  Exchange  Energy =    -3.8682071933
 DFT   Exchange  Energy =   -30.7436601829
 DFT Correlation Energy =    -1.2541919840
 Nuclear Repu.   Energy =   105.9800937847
 Nuclear Attr.   Energy = -1509.8911245653
 Kinetic         Energy =   544.2427519217
 SCF time:  CPU 96.27 s  wall 98.49 s
 Final Alpha MO Eigenvalues
            1           2           3           4           5           6
    1 -88.1458213 -18.8960759 -18.8960441  -8.0714362  -6.1198576  -6.1157399
            7           8           9          10          11          12
    1  -6.1114378  -1.3101946  -1.2076375  -0.7993660  -0.6490856  -0.6469373
           13          14          15          16          17          18
    1  -0.6430424  -0.5124939  -0.5059152  -0.4770017  -0.0507192   0.0532324
           19          20          21
    1   0.0680602   0.0734857   0.0802863
 Analysis of SCF Wavefunction
 
 --------------------------------------------------------------
                    Orbital Energies (a.u.)
 --------------------------------------------------------------
 
 Alpha MOs
 -- Occupied --
-88.146 -18.896 -18.896  -8.071  -6.120  -6.116  -6.111  -1.310
 -1.208  -0.799  -0.649  -0.647  -0.643  -0.512  -0.506  -0.477
 -- Virtual --
 -0.051   0.053   0.068   0.073   0.080   0.154   0.190   0.224
  0.227   0.244   0.261   0.267   0.309   0.316   0.330   0.360
  0.393   0.412   0.414   0.447   0.543   0.585   0.710   0.886
  0.911   0.952   0.963   0.974   0.996   1.001   1.035   1.080
  1.098   1.109   1.141   1.143   1.160   1.176   1.202   1.246
  1.330   1.443   1.625   1.629   1.672   1.756   1.785   1.853
  1.899   2.084   2.156   2.187   2.193   2.305   2.321   2.691
  2.709   3.433   3.439   3.455   3.457   3.457   3.568   3.648
  4.500   4.504   4.527   4.650   4.663   4.954   4.958   4.980
  5.011   5.116   5.133   5.137   5.142   5.150   5.185   5.221
  5.262   5.384   5.492   5.616   5.628   5.788   5.822   6.306
  6.528   6.825   6.870   6.913   6.953   7.230   7.236   7.288
  7.366   7.443   7.622   9.282  16.951  17.314  17.721  23.440
 23.501  23.581  23.759  23.857  30.827  30.830  30.855  30.861
 30.879  30.891  30.961  43.640  43.665  43.709  43.749  43.784
 43.834  43.840  43.853  43.875  43.916  45.674  45.679  45.701
 45.721  46.251  46.284  50.038  50.049 189.911
 --------------------------------------------------------------
 
          Ground-State Mulliken Net Atomic Charges

     Atom                 Charge (a.u.)
  ----------------------------------------
      1 S                     0.785964
      2 O                    -0.393074
      3 O                    -0.392890
  ----------------------------------------
  Sum of atomic charges =     0.000000

 -----------------------------------------------------------------
                    Cartesian Multipole Moments
 -----------------------------------------------------------------
    Charge (ESU x 10^10)
                 0.0000
    Dipole Moment (Debye)
         X      -1.7151      Y       0.0000      Z      -1.0086
       Tot       1.9897
    Quadrupole Moments (Debye-Ang)
        XX     -25.3859     XY       0.0000     YY     -21.1905
        XZ       1.4451     YZ       0.0000     ZZ     -26.9953
    Octapole Moments (Debye-Ang^2)
       XXX     -25.0058    XXY       0.0000    XYY      -6.9739
       YYY       0.0000    XXZ      -2.4387    XYZ       0.0000
       YYZ      -4.0996    XZZ      -8.2587    YZZ       0.0000
       ZZZ     -17.1167
    Hexadecapole Moments (Debye-Ang^3)
      XXXX     -83.2124   XXXY       0.0000   XXYY     -16.3847
      XYYY       0.0000   YYYY     -20.2515   XXXZ      17.0461
      XXYZ       0.0000   XYYZ       5.1178   YYYZ       0.0000
      XXZZ     -33.5431   XYZZ       0.0000   YYZZ     -22.0826
      XZZZ      16.1770   YZZZ       0.0000   ZZZZ    -120.2021
 -----------------------------------------------------------------
 Calculating analytic gradient of the SCF energy
 Gradient of AOints
            1           2           3
    1  19.0110460   0.8402799 -19.8513260
    2   0.0000007  -0.0000003  -0.0000004
    3  11.1795160 -23.1842671  12.0047512
 Gradient of XC Energy
            1           2           3
    1  -0.3538073   0.0100041   0.3438033
    2  -0.0000000   0.0000000   0.0000000
    3  -0.2081959   0.3880235  -0.1798276
 Gradient of SCF Energy
            1           2           3
    1  -0.0603667  -0.0024629   0.0628296
    2  -0.0000000   0.0000000   0.0000000
    3  -0.0355968   0.0734147  -0.0378179
 Max gradient component =       7.341E-02
 RMS gradient           =       4.175E-02
 Gradient time:  CPU 34.35 s  wall 34.63 s
 Geometry Optimization Parameters
   NAtoms,    NIC,     NZ,  NCons,   NDum,   NFix, NCnnct, MaxDiis
        3       9       3       0       0       0       0       0


** GEOMETRY OPTIMIZATION IN DELOCALIZED INTERNAL COORDINATES **
   Searching for a Minimum

   Optimization Cycle:   1

                       Coordinates (Angstroms)
     ATOM              X           Y           Z
    1  S           0.000000    0.000000    0.000000
    2  O           0.000000    0.000000    1.463597
    3  O           1.278823    0.000000   -0.711847
   Point Group: c1    Number of degrees of freedom:   3


   Energy is   -545.709105821


 Attempting to Generate Delocalized Internal Coordinates

  3 Hessian modes will be used to form the next step
  Hessian Eigenvalues:
     0.250000    0.901156    0.901156

 Minimum Search - Taking Simple RFO Step
 Searching for Lamda that Minimizes Along All modes
 Value Taken    Lamda =  -0.01196394
 Step Taken.  Stepsize is  0.116571

                             Maximum     Tolerance    Cnvgd?
         Gradient           0.092826      0.000300      NO
         Displacement       0.094383      0.001200      NO
         Energy change     *********      0.000001      NO


 New Cartesian Coordinates Obtained by Inverse Iteration

 Displacement from previous Coordinates is:  0.123656
 Writing REM_CC_EA            3
 ----------------------------------------------------
       Standard Nuclear Orientation (Angstroms)
    I     Atom         X            Y            Z
 ----------------------------------------------------
    1      S       0.003209     0.000000     0.001914
    2      O       0.021780     0.000000     1.422846
    3      O       1.253834     0.000000    -0.673010
 ----------------------------------------------------
 Nuclear Repulsion Energy =   109.2584793146 hartrees
 There are       16 alpha and       16 beta electrons
 Applying Cartesian multipole field
    Component          Value
    ---------          -----
     (2,0,0)        1.00000E-11
     (0,2,0)        2.00000E-11
     (0,0,2)       -3.00000E-11
 Nucleus-field energy     =    -0.0000000017 hartrees
 Requested basis set is G3large
 There are 39 shells and 150 basis functions
 A cutoff of  1.0D-11 yielded    736 shell pairs
 There are  11068 function pairs ( 15150 Cartesian)
Evaluating contribution to one-electron hamiltonian from nuclear
 Smallest overlap matrix eigenvalue = 4.47E-04
 Multipole matrices computed through 2nd order
 Guess MOs from SCF MO coefficient file
Reading MOs from coefficient file
Reading MOs from coefficient file
 A restricted hybrid HF-DFT SCF calculation will be
 performed using Pulay DIIS extrapolation
 Exchange:     1.0000 Hartree-Fock + 1.0000 BNL
 Correlation:  1.0000 LYP
 Using SG-1 standard quadrature grid
 SCF converges when DIIS error is below 1.0E-08
 Warning!  Inaccurate integrated density:
   Number of electrons =    32
   Numerical integral  =    32.041866106125
   Relative error      =     0.1308315816 %
 ---------------------------------------
  Cycle       Energy         DIIS Error
 ---------------------------------------
    1    -545.8068021687      3.44E-03
    2    -545.7161640589      4.81E-04
    3    -545.7165408054      2.89E-04
    4    -545.7166692019      1.06E-04
    5    -545.7166875937      1.80E-05
    6    -545.7166892894      5.49E-06
    7    -545.7166894232      1.36E-06
    8    -545.7166894320      5.94E-07
    9    -545.7166894321      4.20E-07
   10    -545.7166894318      4.75E-08
   11    -545.7166894315      7.79E-09 Convergence criterion met
 ---------------------------------------
 One-Electron    Energy =  -972.2005062275
 Total Coulomb   Energy =   357.0388471371
 Alpha Exchange  Energy =    -3.8758010012
 Beta  Exchange  Energy =    -3.8758010012
 DFT   Exchange  Energy =   -30.8041472591
 DFT Correlation Energy =    -1.2577603924
 Nuclear Repu.   Energy =   109.2584793129
 Nuclear Attr.   Energy = -1516.7429189653
 Kinetic         Energy =   544.5424127378
 SCF time:  CPU 67.13 s  wall 68.69 s
 Final Alpha MO Eigenvalues
            1           2           3           4           5           6
    1 -88.1329025 -18.8895723 -18.8895415  -8.0611269  -6.1093830  -6.1052606
            7           8           9          10          11          12
    1  -6.1006562  -1.3307180  -1.2203469  -0.7887918  -0.6593782  -0.6590701
           13          14          15          16          17          18
    1  -0.6447902  -0.5200795  -0.5088838  -0.4778534  -0.0366387   0.0544705
           19          20          21
    1   0.0710575   0.0749478   0.0807633
 Analysis of SCF Wavefunction
 
 --------------------------------------------------------------
                    Orbital Energies (a.u.)
 --------------------------------------------------------------
 
 Alpha MOs
 -- Occupied --
-88.133 -18.890 -18.890  -8.061  -6.109  -6.105  -6.101  -1.331
 -1.220  -0.789  -0.659  -0.659  -0.645  -0.520  -0.509  -0.478
 -- Virtual --
 -0.037   0.054   0.071   0.075   0.081   0.168   0.198   0.226
  0.229   0.244   0.263   0.271   0.311   0.317   0.337   0.359
  0.410   0.421   0.427   0.449   0.554   0.601   0.723   0.884
  0.914   0.951   0.976   0.981   0.999   1.003   1.035   1.084
  1.101   1.115   1.132   1.149   1.161   1.174   1.204   1.267
  1.380   1.454   1.635   1.644   1.674   1.768   1.802   1.882
  1.934   2.095   2.178   2.194   2.210   2.310   2.367   2.729
  2.743   3.429   3.451   3.454   3.470   3.490   3.581   3.674
  4.526   4.532   4.566   4.668   4.680   4.963   4.966   4.985
  5.018   5.117   5.136   5.137   5.142   5.149   5.199   5.226
  5.300   5.439   5.590   5.711   5.712   5.906   5.933   6.387
  6.678   6.828   6.888   6.927   6.976   7.258   7.263   7.336
  7.379   7.509   7.615   9.373  16.971  17.409  17.871  23.464
 23.522  23.607  23.778  23.886  30.839  30.842  30.874  30.883
 30.895  30.920  30.987  43.650  43.676  43.715  43.762  43.799
 43.844  43.855  43.858  43.885  43.924  45.690  45.690  45.713
 45.743  46.390  46.435  50.049  50.068 190.041
 --------------------------------------------------------------
 
          Ground-State Mulliken Net Atomic Charges

     Atom                 Charge (a.u.)
  ----------------------------------------
      1 S                     0.783547
      2 O                    -0.391682
      3 O                    -0.391864
  ----------------------------------------
  Sum of atomic charges =     0.000000

 -----------------------------------------------------------------
                    Cartesian Multipole Moments
 -----------------------------------------------------------------
    Charge (ESU x 10^10)
                 0.0000
    Dipole Moment (Debye)
         X      -1.6624      Y       0.0000      Z      -0.9770
       Tot       1.9282
    Quadrupole Moments (Debye-Ang)
        XX     -25.2030     XY       0.0000     YY     -21.0008
        XZ       1.3298     YZ       0.0000     ZZ     -26.6836
    Octapole Moments (Debye-Ang^2)
       XXX     -24.7054    XXY       0.0000    XYY      -6.8831
       YYY       0.0000    XXZ      -2.3913    XYZ       0.0000
       YYZ      -4.0459    XZZ      -8.1586    YZZ       0.0000
       ZZZ     -16.9270
    Hexadecapole Moments (Debye-Ang^3)
      XXXX     -80.4576   XXXY       0.0000   XXYY     -15.8906
      XYYY       0.0000   YYYY     -19.9092   XXXZ      15.2815
      XXYZ       0.0000   XYYZ       4.5428   YYYZ       0.0000
      XXZZ     -31.9694   XYZZ       0.0000   YYZZ     -20.9475
      XZZZ      14.4135   YZZZ       0.0000   ZZZZ    -113.5132
 -----------------------------------------------------------------
 Calculating analytic gradient of the SCF energy
 Gradient of AOints
            1           2           3
    1  20.2361030   0.4751322 -20.7112352
    2  -0.0000000   0.0000001  -0.0000000
    3  11.8969538 -23.9621362  12.0651824
 Gradient of XC Energy
            1           2           3
    1  -0.3844125   0.0196659   0.3647467
    2   0.0000000  -0.0000000  -0.0000000
    3  -0.2260173   0.4065012  -0.1804839
 Gradient of SCF Energy
            1           2           3
    1  -0.0216876   0.0036649   0.0180227
    2   0.0000000  -0.0000000  -0.0000000
    3  -0.0126233   0.0185438  -0.0059205
 Max gradient component =       2.169E-02
 RMS gradient           =       1.223E-02
 Gradient time:  CPU 32.02 s  wall 32.24 s
 Geometry Optimization Parameters
   NAtoms,    NIC,     NZ,  NCons,   NDum,   NFix, NCnnct, MaxDiis
        3       9       3       0       0       0       0       0

 Cartesian Hessian Update
 Hessian Updated using BFGS Update


** GEOMETRY OPTIMIZATION IN DELOCALIZED INTERNAL COORDINATES **
   Searching for a Minimum

   Optimization Cycle:   2

                       Coordinates (Angstroms)
     ATOM              X           Y           Z
    1  S           0.003209    0.000000    0.001914
    2  O           0.021780    0.000000    1.422846
    3  O           1.253834    0.000000   -0.673010
   Point Group: c1    Number of degrees of freedom:   3


   Energy is   -545.716689432

 Hessian Updated using BFGS Update

  3 Hessian modes will be used to form the next step
  Hessian Eigenvalues:
     0.259191    0.678196    0.901161

 Minimum Search - Taking Simple RFO Step
 Searching for Lamda that Minimizes Along All modes
 Value Taken    Lamda =  -0.00159803
 Step Taken.  Stepsize is  0.064002

                             Maximum     Tolerance    Cnvgd?
         Gradient           0.027807      0.000300      NO
         Displacement       0.059156      0.001200      NO
         Energy change     -0.007584      0.000001      NO


 New Cartesian Coordinates Obtained by Inverse Iteration

 Displacement from previous Coordinates is:  0.056198
 Writing REM_CC_EA            3
 ----------------------------------------------------
       Standard Nuclear Orientation (Angstroms)
    I     Atom         X            Y            Z
 ----------------------------------------------------
    1      S       0.024071     0.000000     0.014145
    2      O       0.010398     0.000000     1.418364
    3      O       1.244354     0.000000    -0.680760
 ----------------------------------------------------
 Nuclear Repulsion Energy =   110.3778106221 hartrees
 There are       16 alpha and       16 beta electrons
 Applying Cartesian multipole field
    Component          Value
    ---------          -----
     (2,0,0)        1.00000E-11
     (0,2,0)        2.00000E-11
     (0,0,2)       -3.00000E-11
 Nucleus-field energy     =    -0.0000000017 hartrees
 Requested basis set is G3large
 There are 39 shells and 150 basis functions
 A cutoff of  1.0D-11 yielded    736 shell pairs
 There are  11068 function pairs ( 15150 Cartesian)
Evaluating contribution to one-electron hamiltonian from nuclear
 Smallest overlap matrix eigenvalue = 4.10E-04
 Multipole matrices computed through 2nd order
 Guess MOs from SCF MO coefficient file
Reading MOs from coefficient file
Reading MOs from coefficient file
 A restricted hybrid HF-DFT SCF calculation will be
 performed using Pulay DIIS extrapolation
 Exchange:     1.0000 Hartree-Fock + 1.0000 BNL
 Correlation:  1.0000 LYP
 Using SG-1 standard quadrature grid
 SCF converges when DIIS error is below 1.0E-08
 ---------------------------------------
  Cycle       Energy         DIIS Error
 ---------------------------------------
    1    -545.7520998849      1.49E-03
    2    -545.7169459793      2.54E-04
    3    -545.7171037226      1.63E-04
    4    -545.7171426255      5.35E-05
    5    -545.7171489719      2.30E-05
    6    -545.7171508923      4.36E-06
    7    -545.7171509971      1.38E-06
    8    -545.7171510074      8.45E-07
    9    -545.7171510077      3.73E-07
   10    -545.7171510085      3.64E-08
   11    -545.7171510085      5.68E-09 Convergence criterion met
 ---------------------------------------
 One-Electron    Energy =  -974.4054034144
 Total Coulomb   Energy =   358.1545287796
 Alpha Exchange  Energy =    -3.8785098316
 Beta  Exchange  Energy =    -3.8785098316
 DFT   Exchange  Energy =   -30.8279852221
 DFT Correlation Energy =    -1.2590821087
 Nuclear Repu.   Energy =   110.3778106204
 Nuclear Attr.   Energy = -1519.0709313077
 Kinetic         Energy =   544.6655278932
 SCF time:  CPU 66.12 s  wall 68.16 s
 Final Alpha MO Eigenvalues
            1           2           3           4           5           6
    1 -88.1271844 -18.8895946 -18.8895649  -8.0562413  -6.1043755  -6.1002641
            7           8           9          10          11          12
    1  -6.0956998  -1.3387473  -1.2296720  -0.7838002  -0.6649713  -0.6635957
           13          14          15          16          17          18
    1  -0.6477388  -0.5264723  -0.5156238  -0.4744080  -0.0291002   0.0552987
           19          20          21
    1   0.0718739   0.0770464   0.0812090
 Analysis of SCF Wavefunction
 
 --------------------------------------------------------------
                    Orbital Energies (a.u.)
 --------------------------------------------------------------
 
 Alpha MOs
 -- Occupied --
-88.127 -18.890 -18.890  -8.056  -6.104  -6.100  -6.096  -1.339
 -1.230  -0.784  -0.665  -0.664  -0.648  -0.526  -0.516  -0.474
 -- Virtual --
 -0.029   0.055   0.072   0.077   0.081   0.168   0.209   0.228
  0.228   0.243   0.263   0.273   0.312   0.316   0.336   0.358
  0.406   0.427   0.431   0.450   0.568   0.615   0.727   0.888
  0.913   0.952   0.983   0.984   0.993   1.006   1.034   1.086
  1.098   1.114   1.133   1.143   1.163   1.176   1.210   1.295
  1.372   1.463   1.639   1.648   1.689   1.773   1.813   1.894
  1.934   2.100   2.194   2.203   2.222   2.330   2.364   2.746
  2.747   3.430   3.455   3.455   3.479   3.505   3.594   3.690
  4.533   4.538   4.584   4.682   4.684   4.965   4.970   4.989
  5.025   5.116   5.133   5.134   5.140   5.153   5.205   5.233
  5.309   5.432   5.631   5.737   5.753   5.971   6.008   6.428
  6.683   6.833   6.885   6.935   6.977   7.266   7.276   7.330
  7.402   7.530   7.613   9.436  16.983  17.422  17.954  23.462
 23.525  23.621  23.797  23.891  30.843  30.847  30.886  30.891
 30.902  30.935  30.999  43.650  43.678  43.717  43.763  43.797
 43.846  43.859  43.860  43.888  43.925  45.694  45.695  45.718
 45.753  46.454  46.487  50.052  50.078 190.110
 --------------------------------------------------------------
 
          Ground-State Mulliken Net Atomic Charges

     Atom                 Charge (a.u.)
  ----------------------------------------
      1 S                     0.777737
      2 O                    -0.388827
      3 O                    -0.388909
  ----------------------------------------
  Sum of atomic charges =     0.000000

 -----------------------------------------------------------------
                    Cartesian Multipole Moments
 -----------------------------------------------------------------
    Charge (ESU x 10^10)
                 0.0000
    Dipole Moment (Debye)
         X      -1.4896      Y       0.0000      Z      -0.8759
       Tot       1.7280
    Quadrupole Moments (Debye-Ang)
        XX     -25.1026     XY       0.0000     YY     -20.9597
        XZ       1.3165     YZ       0.0000     ZZ     -26.5687
    Octapole Moments (Debye-Ang^2)
       XXX     -24.8833    XXY       0.0000    XYY      -6.9152
       YYY       0.0000    XXZ      -2.3939    XYZ       0.0000
       YYZ      -4.0651    XZZ      -8.2169    YZZ       0.0000
       ZZZ     -17.0643
    Hexadecapole Moments (Debye-Ang^3)
      XXXX     -79.5710   XXXY       0.0000   XXYY     -15.7230
      XYYY       0.0000   YYYY     -19.8836   XXXZ      15.5701
      XXYZ       0.0000   XYYZ       4.6002   YYYZ       0.0000
      XXZZ     -31.6471   XYZZ       0.0000   YYZZ     -20.8447
      XZZZ      14.4770   YZZZ       0.0000   ZZZZ    -113.0235
 -----------------------------------------------------------------
 Calculating analytic gradient of the SCF energy
 Gradient of AOints
            1           2           3
    1  19.4519674   1.1341231 -20.5860905
    2  -0.0000000  -0.0000000   0.0000000
    3  11.4358444 -24.1853258  12.7494814
 Gradient of XC Energy
            1           2           3
    1  -0.3700449   0.0056468   0.3643981
    2   0.0000000   0.0000000  -0.0000000
    3  -0.2174890   0.4137744  -0.1962854
 Gradient of SCF Energy
            1           2           3
    1   0.0090947  -0.0028518  -0.0062429
    2   0.0000000  -0.0000000   0.0000000
    3   0.0054307  -0.0055993   0.0001686
 Max gradient component =       9.095E-03
 RMS gradient           =       4.603E-03
 Gradient time:  CPU 31.95 s  wall 32.27 s
 Geometry Optimization Parameters
   NAtoms,    NIC,     NZ,  NCons,   NDum,   NFix, NCnnct, MaxDiis
        3       9       3       0       0       0       0       0

 Cartesian Hessian Update
 Hessian Updated using BFGS Update


** GEOMETRY OPTIMIZATION IN DELOCALIZED INTERNAL COORDINATES **
   Searching for a Minimum

   Optimization Cycle:   3

                       Coordinates (Angstroms)
     ATOM              X           Y           Z
    1  S           0.024071    0.000000    0.014145
    2  O           0.010398    0.000000    1.418364
    3  O           1.244354    0.000000   -0.680760
   Point Group: c1    Number of degrees of freedom:   3


   Energy is   -545.717151009

 Hessian Updated using BFGS Update

  3 Hessian modes will be used to form the next step
  Hessian Eigenvalues:
     0.344679    0.738222    0.901170

 Minimum Search - Taking Simple RFO Step
 Searching for Lamda that Minimizes Along All modes
 Value Taken    Lamda =  -0.00024648
 Step Taken.  Stepsize is  0.023882

                             Maximum     Tolerance    Cnvgd?
         Gradient           0.010243      0.000300      NO
         Displacement       0.017621      0.001200      NO
         Energy change     -0.000462      0.000001      NO


 New Cartesian Coordinates Obtained by Inverse Iteration

 Displacement from previous Coordinates is:  0.026140
 Writing REM_CC_EA            3
 ----------------------------------------------------
       Standard Nuclear Orientation (Angstroms)
    I     Atom         X            Y            Z
 ----------------------------------------------------
    1      S       0.015417     0.000000     0.009046
    2      O       0.016994     0.000000     1.417060
    3      O       1.246412     0.000000    -0.674356
 ----------------------------------------------------
 Nuclear Repulsion Energy =   110.1746092594 hartrees
 There are       16 alpha and       16 beta electrons
 Applying Cartesian multipole field
    Component          Value
    ---------          -----
     (2,0,0)        1.00000E-11
     (0,2,0)        2.00000E-11
     (0,0,2)       -3.00000E-11
 Nucleus-field energy     =    -0.0000000017 hartrees
 Requested basis set is G3large
 There are 39 shells and 150 basis functions
 A cutoff of  1.0D-11 yielded    736 shell pairs
 There are  11068 function pairs ( 15150 Cartesian)
Evaluating contribution to one-electron hamiltonian from nuclear
 Smallest overlap matrix eigenvalue = 4.20E-04
 Multipole matrices computed through 2nd order
 Guess MOs from SCF MO coefficient file
Reading MOs from coefficient file
Reading MOs from coefficient file
 A restricted hybrid HF-DFT SCF calculation will be
 performed using Pulay DIIS extrapolation
 Exchange:     1.0000 Hartree-Fock + 1.0000 BNL
 Correlation:  1.0000 LYP
 Using SG-1 standard quadrature grid
 SCF converges when DIIS error is below 1.0E-08
 ---------------------------------------
  Cycle       Energy         DIIS Error
 ---------------------------------------
    1    -545.7086991258      5.23E-04
    2    -545.7172339777      9.92E-05
    3    -545.7172546029      8.40E-05
    4    -545.7172659570      2.09E-05
    5    -545.7172670929      7.39E-06
    6    -545.7172673543      1.50E-06
    7    -545.7172673677      4.40E-07
    8    -545.7172673717      1.19E-07
    9    -545.7172673717      8.55E-08
   10    -545.7172673719      2.51E-08
   11    -545.7172673719      2.53E-09 Convergence criterion met
 ---------------------------------------
 One-Electron    Energy =  -974.0125354471
 Total Coulomb   Energy =   357.9584637105
 Alpha Exchange  Energy =    -3.8779787928
 Beta  Exchange  Energy =    -3.8779787928
 DFT   Exchange  Energy =   -30.8230307748
 DFT Correlation Energy =    -1.2588165327
 Nuclear Repu.   Energy =   110.1746092578
 Nuclear Attr.   Energy = -1518.6523236386
 Kinetic         Energy =   544.6397881915
 SCF time:  CPU 64.45 s  wall 66.17 s
 Final Alpha MO Eigenvalues
            1           2           3           4           5           6
    1 -88.1284896 -18.8890301 -18.8889976  -8.0574419  -6.1056100  -6.1014967
            7           8           9          10          11          12
    1  -6.0968869  -1.3370293  -1.2267505  -0.7850768  -0.6636383  -0.6624880
           13          14          15          16          17          18
    1  -0.6466079  -0.5243815  -0.5129956  -0.4759934  -0.0311796   0.0550578
           19          20          21
    1   0.0717075   0.0762943   0.0810710
 Analysis of SCF Wavefunction
 
 --------------------------------------------------------------
                    Orbital Energies (a.u.)
 --------------------------------------------------------------
 
 Alpha MOs
 -- Occupied --
-88.128 -18.889 -18.889  -8.057  -6.106  -6.101  -6.097  -1.337
 -1.227  -0.785  -0.664  -0.662  -0.647  -0.524  -0.513  -0.476
 -- Virtual --
 -0.031   0.055   0.072   0.076   0.081   0.169   0.205   0.227
  0.229   0.243   0.263   0.273   0.311   0.317   0.337   0.358
  0.409   0.428   0.428   0.450   0.563   0.611   0.726   0.886
  0.914   0.952   0.982   0.983   0.995   1.005   1.035   1.085
  1.099   1.115   1.132   1.146   1.162   1.175   1.208   1.285
  1.380   1.460   1.638   1.648   1.682   1.772   1.809   1.891
  1.937   2.099   2.189   2.200   2.218   2.320   2.371   2.741
  2.747   3.429   3.454   3.455   3.477   3.502   3.589   3.686
  4.532   4.538   4.579   4.678   4.683   4.964   4.969   4.988
  5.022   5.117   5.135   5.135   5.141   5.151   5.203   5.230
  5.309   5.440   5.623   5.734   5.742   5.964   5.974   6.418
  6.693   6.831   6.888   6.932   6.978   7.264   7.273   7.336
  7.393   7.527   7.613   9.415  16.980  17.425  17.930  23.465
 23.525  23.617  23.791  23.891  30.842  30.846  30.882  30.889
 30.900  30.931  30.996  43.651  43.678  43.717  43.764  43.799
 43.846  43.859  43.859  43.887  43.926  45.693  45.694  45.717
 45.750  46.439  46.477  50.052  50.076 190.091
 --------------------------------------------------------------
 
          Ground-State Mulliken Net Atomic Charges

     Atom                 Charge (a.u.)
  ----------------------------------------
      1 S                     0.780085
      2 O                    -0.389988
      3 O                    -0.390097
  ----------------------------------------
  Sum of atomic charges =     0.000000

 -----------------------------------------------------------------
                    Cartesian Multipole Moments
 -----------------------------------------------------------------
    Charge (ESU x 10^10)
                 0.0000
    Dipole Moment (Debye)
         X      -1.5589      Y       0.0000      Z      -0.9168
       Tot       1.8085
    Quadrupole Moments (Debye-Ang)
        XX     -25.1314     XY       0.0000     YY     -20.9607
        XZ       1.3121     YZ       0.0000     ZZ     -26.5928
    Octapole Moments (Debye-Ang^2)
       XXX     -24.7818    XXY       0.0000    XYY      -6.8935
       YYY       0.0000    XXZ      -2.3898    XYZ       0.0000
       YYZ      -4.0524    XZZ      -8.1835    YZZ       0.0000
       ZZZ     -16.9896
    Hexadecapole Moments (Debye-Ang^3)
      XXXX     -79.7256   XXXY       0.0000   XXYY     -15.7538
      XYYY       0.0000   YYYY     -19.8640   XXXZ      15.3103
      XXYZ       0.0000   XYYZ       4.5313   YYYZ       0.0000
      XXZZ     -31.6593   XYZZ       0.0000   YYZZ     -20.7992
      XZZZ      14.3118   YZZZ       0.0000   ZZZZ    -112.7073
 -----------------------------------------------------------------
 Calculating analytic gradient of the SCF energy
 Gradient of AOints
            1           2           3
    1  19.8976137   0.8164807 -20.7140944
    2   0.0000000  -0.0000000  -0.0000000
    3  11.6969339 -24.1536224  12.4566885
 Gradient of XC Energy
            1           2           3
    1  -0.3789056   0.0125914   0.3663142
    2  -0.0000000   0.0000000   0.0000000
    3  -0.2226850   0.4121076  -0.1894226
 Gradient of SCF Energy
            1           2           3
    1  -0.0001717   0.0003564  -0.0001847
    2  -0.0000000   0.0000000   0.0000000
    3  -0.0000747  -0.0003665   0.0004411
 Max gradient component =       4.411E-04
 RMS gradient           =       2.415E-04
 Gradient time:  CPU 32.18 s  wall 32.40 s
 Geometry Optimization Parameters
   NAtoms,    NIC,     NZ,  NCons,   NDum,   NFix, NCnnct, MaxDiis
        3       9       3       0       0       0       0       0

 Cartesian Hessian Update
 Hessian Updated using BFGS Update


** GEOMETRY OPTIMIZATION IN DELOCALIZED INTERNAL COORDINATES **
   Searching for a Minimum

   Optimization Cycle:   4

                       Coordinates (Angstroms)
     ATOM              X           Y           Z
    1  S           0.015417    0.000000    0.009046
    2  O           0.016994    0.000000    1.417060
    3  O           1.246412    0.000000   -0.674356
   Point Group: c1    Number of degrees of freedom:   3


   Energy is   -545.717267372

 Hessian Updated using BFGS Update

  3 Hessian modes will be used to form the next step
  Hessian Eigenvalues:
     0.386957    0.694431    0.901157

 Minimum Search - Taking Simple RFO Step
 Searching for Lamda that Minimizes Along All modes
 Value Taken    Lamda =  -0.00000241
 Step Taken.  Stepsize is  0.002422

                             Maximum     Tolerance    Cnvgd?
         Gradient           0.001004      0.000300      NO
         Displacement       0.002419      0.001200      NO
         Energy change     -0.000116      0.000001      NO


 New Cartesian Coordinates Obtained by Inverse Iteration

 Displacement from previous Coordinates is:  0.003449
 Writing REM_CC_EA            3
 ----------------------------------------------------
       Standard Nuclear Orientation (Angstroms)
    I     Atom         X            Y            Z
 ----------------------------------------------------
    1      S       0.016123     0.000000     0.009459
    2      O       0.016095     0.000000     1.417784
    3      O       1.246605     0.000000    -0.675493
 ----------------------------------------------------
 Nuclear Repulsion Energy =   110.1412012078 hartrees
 There are       16 alpha and       16 beta electrons
 Applying Cartesian multipole field
    Component          Value
    ---------          -----
     (2,0,0)        1.00000E-11
     (0,2,0)        2.00000E-11
     (0,0,2)       -3.00000E-11
 Nucleus-field energy     =    -0.0000000017 hartrees
 Requested basis set is G3large
 There are 39 shells and 150 basis functions
 A cutoff of  1.0D-11 yielded    736 shell pairs
 There are  11068 function pairs ( 15150 Cartesian)
Evaluating contribution to one-electron hamiltonian from nuclear
 Smallest overlap matrix eigenvalue = 4.20E-04
 Multipole matrices computed through 2nd order
 Guess MOs from SCF MO coefficient file
Reading MOs from coefficient file
Reading MOs from coefficient file
 A restricted hybrid HF-DFT SCF calculation will be
 performed using Pulay DIIS extrapolation
 Exchange:     1.0000 Hartree-Fock + 1.0000 BNL
 Correlation:  1.0000 LYP
 Using SG-1 standard quadrature grid
 SCF converges when DIIS error is below 1.0E-08
 ---------------------------------------
  Cycle       Energy         DIIS Error
 ---------------------------------------
    1    -545.7167996282      6.49E-05
    2    -545.7172679917      9.65E-06
    3    -545.7172681085      9.81E-06
    4    -545.7172682799      1.54E-06
    5    -545.7172682882      3.62E-07
    6    -545.7172682892      7.50E-08
    7    -545.7172682881      6.82E-08
    8    -545.7172682880      2.12E-08
    9    -545.7172682878      5.06E-09 Convergence criterion met
 ---------------------------------------
 One-Electron    Energy =  -973.9447864989
 Total Coulomb   Energy =   357.9234122015
 Alpha Exchange  Energy =    -3.8779132538
 Beta  Exchange  Energy =    -3.8779132538
 DFT   Exchange  Energy =   -30.8224843473
 DFT Correlation Energy =    -1.2587843416
 Nuclear Repu.   Energy =   110.1412012062
 Nuclear Attr.   Energy = -1518.5816456699
 Kinetic         Energy =   544.6368591710
 SCF time:  CPU 52.18 s  wall 53.16 s
 Final Alpha MO Eigenvalues
            1           2           3           4           5           6
    1 -88.1285914 -18.8891821 -18.8891491  -8.0575044  -6.1056738  -6.1015590
            7           8           9          10          11          12
    1  -6.0969584  -1.3368656  -1.2268114  -0.7851167  -0.6635601  -0.6624290
           13          14          15          16          17          18
    1  -0.6466856  -0.5244441  -0.5131769  -0.4758509  -0.0312120   0.0550609
           19          20          21
    1   0.0716889   0.0763456   0.0810723
 Analysis of SCF Wavefunction
 
 --------------------------------------------------------------
                    Orbital Energies (a.u.)
 --------------------------------------------------------------
 
 Alpha MOs
 -- Occupied --
-88.129 -18.889 -18.889  -8.058  -6.106  -6.102  -6.097  -1.337
 -1.227  -0.785  -0.664  -0.662  -0.647  -0.524  -0.513  -0.476
 -- Virtual --
 -0.031   0.055   0.072   0.076   0.081   0.169   0.205   0.227
  0.229   0.243   0.263   0.273   0.311   0.317   0.337   0.358
  0.409   0.428   0.428   0.450   0.563   0.611   0.726   0.887
  0.914   0.952   0.982   0.982   0.995   1.005   1.035   1.085
  1.099   1.115   1.132   1.146   1.162   1.175   1.208   1.285
  1.379   1.461   1.637   1.648   1.683   1.772   1.810   1.891
  1.936   2.099   2.189   2.200   2.218   2.321   2.369   2.741
  2.747   3.429   3.454   3.454   3.477   3.502   3.589   3.686
  4.532   4.538   4.579   4.678   4.683   4.964   4.969   4.988
  5.022   5.117   5.135   5.135   5.141   5.151   5.203   5.230
  5.309   5.438   5.622   5.733   5.742   5.963   5.975   6.418
  6.690   6.831   6.888   6.932   6.978   7.264   7.273   7.335
  7.394   7.526   7.613   9.416  16.980  17.424  17.930  23.464
 23.525  23.617  23.791  23.890  30.842  30.846  30.882  30.889
 30.900  30.931  30.996  43.651  43.678  43.717  43.764  43.799
 43.846  43.859  43.859  43.887  43.925  45.693  45.694  45.717
 45.750  46.438  46.476  50.052  50.076 190.091
 --------------------------------------------------------------
 
          Ground-State Mulliken Net Atomic Charges

     Atom                 Charge (a.u.)
  ----------------------------------------
      1 S                     0.779951
      2 O                    -0.389928
      3 O                    -0.390023
  ----------------------------------------
  Sum of atomic charges =     0.000000

 -----------------------------------------------------------------
                    Cartesian Multipole Moments
 -----------------------------------------------------------------
    Charge (ESU x 10^10)
                 0.0000
    Dipole Moment (Debye)
         X      -1.5537      Y       0.0000      Z      -0.9139
       Tot       1.8026
    Quadrupole Moments (Debye-Ang)
        XX     -25.1319     XY       0.0000     YY     -20.9634
        XZ       1.3142     YZ       0.0000     ZZ     -26.5956
    Octapole Moments (Debye-Ang^2)
       XXX     -24.7955    XXY       0.0000    XYY      -6.8968
       YYY       0.0000    XXZ      -2.3909    XYZ       0.0000
       YYZ      -4.0544    XZZ      -8.1881    YZZ       0.0000
       ZZZ     -16.9993
    Hexadecapole Moments (Debye-Ang^3)
      XXXX     -79.7523   XXXY       0.0000   XXYY     -15.7583
      XYYY       0.0000   YYYY     -19.8706   XXXZ      15.3589
      XXYZ       0.0000   XYYZ       4.5457   YYYZ       0.0000
      XXZZ     -31.6813   XYZZ       0.0000   YYZZ     -20.8197
      XZZZ      14.3520   YZZZ       0.0000   ZZZZ    -112.8331
 -----------------------------------------------------------------
 Calculating analytic gradient of the SCF energy
 Gradient of AOints
            1           2           3
    1  19.8413973   0.8497027 -20.6911001
    2   0.0000000  -0.0000000   0.0000000
    3  11.6639440 -24.1458331  12.4818890
 Gradient of XC Energy
            1           2           3
    1  -0.3777095   0.0118385   0.3658710
    2  -0.0000000   0.0000000  -0.0000000
    3  -0.2219847   0.4120190  -0.1900343
 Gradient of SCF Energy
            1           2           3
    1  -0.0001040  -0.0000248   0.0001288
    2   0.0000000  -0.0000000  -0.0000000
    3  -0.0000467   0.0002136  -0.0001669
 Max gradient component =       2.136E-04
 RMS gradient           =       1.073E-04
 Gradient time:  CPU 31.97 s  wall 32.50 s
 Geometry Optimization Parameters
   NAtoms,    NIC,     NZ,  NCons,   NDum,   NFix, NCnnct, MaxDiis
        3       9       3       0       0       0       0       0

 Cartesian Hessian Update
 Hessian Updated using BFGS Update


** GEOMETRY OPTIMIZATION IN DELOCALIZED INTERNAL COORDINATES **
   Searching for a Minimum

   Optimization Cycle:   5

                       Coordinates (Angstroms)
     ATOM              X           Y           Z
    1  S           0.016123    0.000000    0.009459
    2  O           0.016095    0.000000    1.417784
    3  O           1.246605    0.000000   -0.675493
   Point Group: c1    Number of degrees of freedom:   3


   Energy is   -545.717268288

 Hessian Updated using BFGS Update

  3 Hessian modes will be used to form the next step
  Hessian Eigenvalues:
     0.408046    0.812614    0.901166

 Minimum Search - Taking Simple RFO Step
 Searching for Lamda that Minimizes Along All modes
 Value Taken    Lamda =   0.00000000
 Step Taken.  Stepsize is  0.000442

                             Maximum     Tolerance    Cnvgd?
         Gradient           0.000245      0.000300     YES
         Displacement       0.000396      0.001200     YES
         Energy change     -0.000001      0.000001     YES


                       Distance Matrix (Angstroms)
             S (  1)   O (  2)
   O (  2)  1.408325
   O (  3)  1.408277  2.428161
 


 ******************************
 **  OPTIMIZATION CONVERGED  **
 ******************************
 Analysis of SCF Wavefunction
 
 --------------------------------------------------------------
                    Orbital Energies (a.u.)
 --------------------------------------------------------------
 
 Alpha MOs
 -- Occupied --
-88.129 -18.889 -18.889  -8.058  -6.106  -6.102  -6.097  -1.337
 -1.227  -0.785  -0.664  -0.662  -0.647  -0.524  -0.513  -0.476
 -- Virtual --
 -0.031   0.055   0.072   0.076   0.081   0.169   0.205   0.227
  0.229   0.243   0.263   0.273   0.311   0.317   0.337   0.358
  0.409   0.428   0.428   0.450   0.563   0.611   0.726   0.887
  0.914   0.952   0.982   0.982   0.995   1.005   1.035   1.085
  1.099   1.115   1.132   1.146   1.162   1.175   1.208   1.285
  1.379   1.461   1.637   1.648   1.683   1.772   1.810   1.891
  1.936   2.099   2.189   2.200   2.218   2.321   2.369   2.741
  2.747   3.429   3.454   3.454   3.477   3.502   3.589   3.686
  4.532   4.538   4.579   4.678   4.683   4.964   4.969   4.988
  5.022   5.117   5.135   5.135   5.141   5.151   5.203   5.230
  5.309   5.438   5.622   5.733   5.742   5.963   5.975   6.418
  6.690   6.831   6.888   6.932   6.978   7.264   7.273   7.335
  7.394   7.526   7.613   9.416  16.980  17.424  17.930  23.464
 23.525  23.617  23.791  23.890  30.842  30.846  30.882  30.889
 30.900  30.931  30.996  43.651  43.678  43.717  43.764  43.799
 43.846  43.859  43.859  43.887  43.925  45.693  45.694  45.717
 45.750  46.438  46.476  50.052  50.076 190.091
 --------------------------------------------------------------
 
          Ground-State Mulliken Net Atomic Charges

     Atom                 Charge (a.u.)
  ----------------------------------------
      1 S                     0.779951
      2 O                    -0.389928
      3 O                    -0.390023
  ----------------------------------------
  Sum of atomic charges =     0.000000

 -----------------------------------------------------------------
                    Cartesian Multipole Moments
 -----------------------------------------------------------------
    Charge (ESU x 10^10)
                 0.0000
    Dipole Moment (Debye)
         X      -1.5537      Y       0.0000      Z      -0.9139
       Tot       1.8026
    Quadrupole Moments (Debye-Ang)
        XX     -25.1319     XY       0.0000     YY     -20.9634
        XZ       1.3142     YZ       0.0000     ZZ     -26.5956
    Octapole Moments (Debye-Ang^2)
       XXX     -24.7955    XXY       0.0000    XYY      -6.8968
       YYY       0.0000    XXZ      -2.3909    XYZ       0.0000
       YYZ      -4.0544    XZZ      -8.1881    YZZ       0.0000
       ZZZ     -16.9993
    Hexadecapole Moments (Debye-Ang^3)
      XXXX     -79.7523   XXXY       0.0000   XXYY     -15.7583
      XYYY       0.0000   YYYY     -19.8706   XXXZ      15.3589
      XXYZ       0.0000   XYYZ       4.5457   YYYZ       0.0000
      XXZZ     -31.6813   XYZZ       0.0000   YYZZ     -20.8197
      XZZZ      14.3520   YZZZ       0.0000   ZZZZ    -112.8331
 -----------------------------------------------------------------
 Total job time:  519.52s(wall), 509.33s(cpu) 
 Sun Apr 17 20:10:10 2011

        *************************************************************
        *                                                           *
        *  Thank you very much for using Q-Chem.  Have a nice day.  *
        *                                                           *
        *************************************************************


0 sent ACK to 0 
now end server 0 ... 
 
**********************************************************************
Job 2 of 2 
**********************************************************************
 
Process 0 of 1 is on cl226.stfx.acenet.ca - thread support 1
initial socket setup ...start
initial socket setup ...done 
now start server 0 ... 

cmd = /usr/bin/ssh clhead /usr/local/qchem/bin/get_hostid 573547805 > /scratch/tmp/4503910.1.medium.q/qchem7644/lic.dat
                  Welcome to Q-Chem
     A Quantum Leap Into The Future Of Chemistry

 Y. Shao, L. Fusti-Molnar, Y. Jung, J. Kussmann, C. Ochsenfeld,
 S. T. Brown, A. T. B. Gilbert, L. V. Slipchenko,S. V. Levchenko,
 D. P. O'Neill, R. A. DiStasio Jr., R. C. Lochan, T. Wang,
 G. J. O. Beran, N. A. Besley, J. M. Herbert, C. Y. Lin,
 T. Van Voorhis, S. H. Chien, A. Sodt, R. P. Steele, 
 V. A. Rassolov, P. E. Maslen, P. P. Korambath, R. D. Adamson,
 B. Austin, J. Baker, E. F. C. Byrd, H. Dachsel, R. J. Doerksen,
 A. Dreuw, B. D. Dunietz, A. D. Dutoi, T. R. Furlani,
 S. R. Gwaltney, A. Heyden, S. Hirata, C.-P. Hsu, G. Kedziora,
 R. Z. Khaliullin, P. Klunzinger, A. M. Lee, M. S. Lee, W. Liang,
 I. Lotan, N. Nair, B. Peters, E. I. Proynov, P. A. Pieniazek, 
 Y. M. Rhee, J. Ritchie, E. Rosta, C. D. Sherrill, 
 A. C. Simmonett, J. E. Subotnik, H. L. Woodcock III,
 W. Zhang, A. T. Bell, A. K. Chakraborty, D. M. Chipman,
 F. J. Keil, A. Warshel, W. J. Hehre, H. F. Schaefer III,
 J. Kong, A. I. Krylov, P. M. W. Gill, M. Head-Gordon,
 Q-Chem, Version 3.1, Q-Chem, Inc., Pittsburgh, PA (2007).

 Additional authors for Version 3.1: 
 Z. Gan, Y. Zhao, N. E. Schultz, D. Truhlar, E. Epifanovsky and M. Oana.

 Additional authors for Version 3.2: 
 R. Baer, B. R. Brooks, D. Casanova, J.-D. Chai, C.-L. Cheng, 
 C. Cramer, D. Crittenden, A. Ghysels, G. Hawkins, E. G. Hohenstein, 
 C. Kelley, W. Kurlancheek, D. Liotard, E. Livshits, P. Manohar, 
 A. Marenich, D. Neuhauser, R. Olson, M. A. Rohrdanz, K. S. Thanthiriwatte, 
 A. J. W. Thom, V. Vanovschi, C. F. Williams, Q. Wu and Z.-Q. You. 


 Intel X86 Linux Version

 Q-chem begins on Sun Apr 17 20:10:14 2011  

 Parallel job on  1  processors
Processing $rem in /usr/local/qchem/config/preferences.

theFileMan(): MAXOPENFILES=974 MAX_SUB_FILE_NUM=16
Maximum size of a physical file is 2.0 GB, maximum size of a tmp-file is 32.0 GB


--------------------------------------------------------------
User input:
--------------------------------------------------------------

$molecule 
READ 
$end 

$xc_functional
   X HF 1.0
   X BNL 1.0
   C LYP 1.0
$end

$rem
SYMMETRY_DECOMPOSITION	0
exchange 		general
BASIS                   g3large
omega			480 
JOBTYPE                 freq
IDERIV 0
SCF_GUESS READ
separate_jk		true
mem_static              760
max_scf_cycles          200
scf_final_print         1
sym_ignore              true
$end

--------------------------------------------------------------
 Writing REM_CC_EA            3
 ----------------------------------------------------
       Standard Nuclear Orientation (Angstroms)
    I     Atom         X            Y            Z
 ----------------------------------------------------
    1      S       0.016123     0.000000     0.009459
    2      O       0.016095     0.000000     1.417784
    3      O       1.246605     0.000000    -0.675493
 ----------------------------------------------------
 Nuclear Repulsion Energy =   110.1412012078 hartrees
 There are       16 alpha and       16 beta electrons
 Requested basis set is G3large
 There are 39 shells and 150 basis functions

Total QAlloc Memory Limit   2000 MB
Mega-Array Size       759 MB
MEM_STATIC part       760 MB

                       Distance Matrix (Angstroms)
             S (  1)   O (  2)
   O (  2)  1.408325
   O (  3)  1.408277  2.428161
 
 A cutoff of  1.0D-11 yielded    736 shell pairs
 There are  11068 function pairs ( 15150 Cartesian)
Evaluating contribution to one-electron hamiltonian from nuclear
 Smallest overlap matrix eigenvalue = 4.20E-04
 Multipole matrices computed through 2nd order
 Guess MOs from SCF MO coefficient file
Reading MOs from coefficient file
Reading MOs from coefficient file
 A restricted hybrid HF-DFT SCF calculation will be
 performed using Pulay DIIS extrapolation
 Exchange:     1.0000 Hartree-Fock + 1.0000 BNL
 Correlation:  1.0000 LYP
 Using SG-1 standard quadrature grid
 SCF converges when DIIS error is below 1.0E-08
 ---------------------------------------
  Cycle       Energy         DIIS Error
 ---------------------------------------
    1    -545.7172682910      1.05E-09
    2    -545.7172682911      4.81E-10 Convergence criterion met
 ---------------------------------------
 One-Electron    Energy =  -973.9447879143
 Total Coulomb   Energy =   357.9234136944
 Alpha Exchange  Energy =    -3.8779132483
 Beta  Exchange  Energy =    -3.8779132483
 DFT   Exchange  Energy =   -30.8224844376
 DFT Correlation Energy =    -1.2587843450
 Nuclear Repu.   Energy =   110.1412012078
 Nuclear Attr.   Energy = -1518.5816484825
 Kinetic         Energy =   544.6368605683
 SCF time:  CPU 13.07 s  wall 13.54 s
 Final Alpha MO Eigenvalues
            1           2           3           4           5           6
    1 -88.1285913 -18.8891821 -18.8891491  -8.0575044  -6.1056738  -6.1015590
            7           8           9          10          11          12
    1  -6.0969584  -1.3368656  -1.2268114  -0.7851167  -0.6635601  -0.6624290
           13          14          15          16          17          18
    1  -0.6466856  -0.5244441  -0.5131769  -0.4758509  -0.0312120   0.0550609
           19          20          21
    1   0.0716889   0.0763456   0.0810723
 Analysis of SCF Wavefunction
 
 --------------------------------------------------------------
                    Orbital Energies (a.u.)
 --------------------------------------------------------------
 
 Alpha MOs
 -- Occupied --
-88.129 -18.889 -18.889  -8.058  -6.106  -6.102  -6.097  -1.337
 -1.227  -0.785  -0.664  -0.662  -0.647  -0.524  -0.513  -0.476
 -- Virtual --
 -0.031   0.055   0.072   0.076   0.081   0.169   0.205   0.227
  0.229   0.243   0.263   0.273   0.311   0.317   0.337   0.358
  0.409   0.428   0.428   0.450   0.563   0.611   0.726   0.887
  0.914   0.952   0.982   0.982   0.995   1.005   1.035   1.085
  1.099   1.115   1.132   1.146   1.162   1.175   1.208   1.285
  1.379   1.461   1.637   1.648   1.683   1.772   1.810   1.891
  1.936   2.099   2.189   2.200   2.218   2.321   2.369   2.741
  2.747   3.429   3.454   3.454   3.477   3.502   3.589   3.686
  4.532   4.538   4.579   4.678   4.683   4.964   4.969   4.988
  5.022   5.117   5.135   5.135   5.141   5.151   5.203   5.230
  5.309   5.438   5.622   5.733   5.742   5.963   5.975   6.418
  6.690   6.831   6.888   6.932   6.978   7.264   7.273   7.335
  7.394   7.526   7.613   9.416  16.980  17.424  17.930  23.464
 23.525  23.617  23.791  23.890  30.842  30.846  30.882  30.889
 30.900  30.931  30.996  43.651  43.678  43.717  43.764  43.799
 43.846  43.859  43.859  43.887  43.925  45.693  45.694  45.717
 45.750  46.438  46.476  50.052  50.076 190.091
 --------------------------------------------------------------
 
          Ground-State Mulliken Net Atomic Charges

     Atom                 Charge (a.u.)
  ----------------------------------------
      1 S                     0.779951
      2 O                    -0.389928
      3 O                    -0.390023
  ----------------------------------------
  Sum of atomic charges =     0.000000

 -----------------------------------------------------------------
                    Cartesian Multipole Moments
 -----------------------------------------------------------------
    Charge (ESU x 10^10)
                 0.0000
    Dipole Moment (Debye)
         X      -1.5537      Y       0.0000      Z      -0.9139
       Tot       1.8026
    Quadrupole Moments (Debye-Ang)
        XX     -25.1319     XY       0.0000     YY     -20.9634
        XZ       1.3142     YZ       0.0000     ZZ     -26.5956
    Octapole Moments (Debye-Ang^2)
       XXX     -24.7955    XXY       0.0000    XYY      -6.8968
       YYY       0.0000    XXZ      -2.3909    XYZ       0.0000
       YYZ      -4.0544    XZZ      -8.1881    YZZ       0.0000
       ZZZ     -16.9993
    Hexadecapole Moments (Debye-Ang^3)
      XXXX     -79.7523   XXXY       0.0000   XXYY     -15.7583
      XYYY       0.0000   YYYY     -19.8706   XXXZ      15.3589
      XXYZ       0.0000   XYYZ       4.5457   YYYZ       0.0000
      XXZZ     -31.6813   XYZZ       0.0000   YYZZ     -20.8197
      XZZZ      14.3520   YZZZ       0.0000   ZZZZ    -112.8331
 -----------------------------------------------------------------
 No analytic derivatives required
 ######################################################
 ######################################################
 # Starting finite difference calculation for IDERIV  #
 Finite diff step size: 1.89e-03 a.u.
 Writing REM_CC_EA            3
 ----------------------------------------------------
       Standard Nuclear Orientation (Angstroms)
    I     Atom         X            Y            Z
 ----------------------------------------------------
    1      S       0.018123     0.000000     0.009459
    2      O       0.016095     0.000000     1.417784
    3      O       1.246605     0.000000    -0.675493
 ----------------------------------------------------
 Nuclear Repulsion Energy =   110.2008971336 hartrees
 There are       16 alpha and       16 beta electrons

                       Distance Matrix (Angstroms)
             S (  1)   O (  2)
   O (  2)  1.408327
   O (  3)  1.406530  2.428161
 
 Requested basis set is G3large
 There are 39 shells and 150 basis functions
 A cutoff of  1.0D-11 yielded    736 shell pairs
 There are  11068 function pairs ( 15150 Cartesian)
Evaluating contribution to one-electron hamiltonian from nuclear
 Smallest overlap matrix eigenvalue = 4.18E-04
 Multipole matrices computed through 2nd order
 Guess MOs from SCF MO coefficient file
Reading MOs from coefficient file
Reading MOs from coefficient file
 A restricted hybrid HF-DFT SCF calculation will be
 performed using Pulay DIIS extrapolation
 Exchange:     1.0000 Hartree-Fock + 1.0000 BNL
 Correlation:  1.0000 LYP
 Using SG-1 standard quadrature grid
 SCF converges when DIIS error is below 1.0E-08
 ---------------------------------------
  Cycle       Energy         DIIS Error
 ---------------------------------------
    1    -545.7190735821      1.02E-04
    2    -545.7172625224      1.95E-05
    3    -545.7172627379      2.10E-05
    4    -545.7172634727      4.65E-06
    5    -545.7172635128      1.32E-06
    6    -545.7172635157      6.98E-07
    7    -545.7172635169      2.18E-07
    8    -545.7172635161      4.23E-08
    9    -545.7172635161      1.28E-08
   10    -545.7172635162      2.85E-09 Convergence criterion met
 ---------------------------------------
 One-Electron    Energy =  -974.0625045305
 Total Coulomb   Energy =   357.9830545811
 Alpha Exchange  Energy =    -3.8780548563
 Beta  Exchange  Energy =    -3.8780548563
 DFT   Exchange  Energy =   -30.8237468531
 DFT Correlation Energy =    -1.2588541347
 Nuclear Repu.   Energy =   110.2008971336
 Nuclear Attr.   Energy = -1518.7059592426
 Kinetic         Energy =   544.6434547121
 SCF time:  CPU 58.22 s  wall 61.15 s
 Final Alpha MO Eigenvalues
            1           2           3           4           5           6
    1 -88.1282900 -18.8893032 -18.8890046  -8.0572501  -6.1054127  -6.1012989
            7           8           9          10          11          12
    1  -6.0966999  -1.3372885  -1.2272751  -0.7848630  -0.6638518  -0.6626662
           13          14          15          16          17          18
    1  -0.6468275  -0.5247622  -0.5135038  -0.4756835  -0.0308267   0.0551024
           19          20          21
    1   0.0717308   0.0764434   0.0810953
 Analysis of SCF Wavefunction
 
 --------------------------------------------------------------
                    Orbital Energies (a.u.)
 --------------------------------------------------------------
 
 Alpha MOs
 -- Occupied --
-88.128 -18.889 -18.889  -8.057  -6.105  -6.101  -6.097  -1.337
 -1.227  -0.785  -0.664  -0.663  -0.647  -0.525  -0.514  -0.476
 -- Virtual --
 -0.031   0.055   0.072   0.076   0.081   0.169   0.206   0.227
  0.229   0.243   0.263   0.273   0.311   0.317   0.337   0.358
  0.409   0.428   0.428   0.450   0.564   0.611   0.726   0.887
  0.914   0.952   0.982   0.983   0.995   1.005   1.035   1.085
  1.099   1.115   1.132   1.145   1.162   1.175   1.208   1.287
  1.378   1.461   1.638   1.648   1.684   1.772   1.810   1.892
  1.936   2.099   2.190   2.200   2.218   2.322   2.369   2.742
  2.747   3.429   3.454   3.455   3.477   3.503   3.589   3.687
  4.532   4.538   4.580   4.679   4.683   4.964   4.969   4.988
  5.023   5.117   5.134   5.135   5.141   5.152   5.204   5.231
  5.309   5.438   5.624   5.734   5.744   5.965   5.980   6.420
  6.690   6.831   6.887   6.933   6.978   7.265   7.274   7.335
  7.395   7.527   7.613   9.419  16.980  17.424  17.934  23.464
 23.525  23.618  23.793  23.891  30.843  30.846  30.883  30.889
 30.901  30.932  30.997  43.651  43.678  43.717  43.764  43.799
 43.846  43.859  43.859  43.887  43.925  45.693  45.694  45.717
 45.751  46.441  46.479  50.052  50.076 190.094
 --------------------------------------------------------------
 
          Ground-State Mulliken Net Atomic Charges

     Atom                 Charge (a.u.)
  ----------------------------------------
      1 S                     0.779657
      2 O                    -0.390460
      3 O                    -0.389198
  ----------------------------------------
  Sum of atomic charges =     0.000000

 -----------------------------------------------------------------
                    Cartesian Multipole Moments
 -----------------------------------------------------------------
    Charge (ESU x 10^10)
                 0.0000
    Dipole Moment (Debye)
         X      -1.5403      Y       0.0000      Z      -0.9176
       Tot       1.7930
    Quadrupole Moments (Debye-Ang)
        XX     -25.1251     XY       0.0000     YY     -20.9612
        XZ       1.3107     YZ       0.0000     ZZ     -26.5930
    Octapole Moments (Debye-Ang^2)
       XXX     -24.8459    XXY       0.0000    XYY      -6.9098
       YYY       0.0000    XXZ      -2.3936    XYZ       0.0000
       YYZ      -4.0591    XZZ      -8.2054    YZZ       0.0000
       ZZZ     -17.0185
    Hexadecapole Moments (Debye-Ang^3)
      XXXX     -79.7360   XXXY       0.0000   XXYY     -15.7531
      XYYY       0.0000   YYYY     -19.8690   XXXZ      15.3561
      XXYZ       0.0000   XYYZ       4.5415   YYYZ       0.0000
      XXZZ     -31.6762   XYZZ       0.0000   YYZZ     -20.8184
      XZZZ      14.3297   YZZZ       0.0000   ZZZZ    -112.8287
 -----------------------------------------------------------------
 Writing REM_CC_EA            3
 ----------------------------------------------------
       Standard Nuclear Orientation (Angstroms)
    I     Atom         X            Y            Z
 ----------------------------------------------------
    1      S       0.016123     0.000000     0.009459
    2      O       0.016095     0.000000     1.417784
    3      O       1.246605     0.000000    -0.675493
 ----------------------------------------------------
 Nuclear Repulsion Energy =   110.1412012078 hartrees
 There are       16 alpha and       16 beta electrons

                       Distance Matrix (Angstroms)
             S (  1)   O (  2)
   O (  2)  1.408325
   O (  3)  1.408277  2.428161
 
 Requested basis set is G3large
 There are 39 shells and 150 basis functions
 A cutoff of  1.0D-11 yielded    736 shell pairs
 There are  11068 function pairs ( 15150 Cartesian)
Evaluating contribution to one-electron hamiltonian from nuclear
 Smallest overlap matrix eigenvalue = 4.20E-04
 Multipole matrices computed through 2nd order
 Guess MOs from SCF MO coefficient file
Reading MOs from coefficient file
Reading MOs from coefficient file
 A restricted hybrid HF-DFT SCF calculation will be
 performed using Pulay DIIS extrapolation
 Exchange:     1.0000 Hartree-Fock + 1.0000 BNL
 Correlation:  1.0000 LYP
 Using SG-1 standard quadrature grid
 SCF converges when DIIS error is below 1.0E-08
 ---------------------------------------
  Cycle       Energy         DIIS Error
 ---------------------------------------
    1    -545.7154619703      1.01E-04
    2    -545.7172672931      1.95E-05
    3    -545.7172675085      2.10E-05
    4    -545.7172682443      4.67E-06
    5    -545.7172682848      1.33E-06
    6    -545.7172682936      7.01E-07
    7    -545.7172682950      2.19E-07
    8    -545.7172682963      4.24E-08
    9    -545.7172682961      1.28E-08
   10    -545.7172682960      2.86E-09 Convergence criterion met
 ---------------------------------------
 One-Electron    Energy =  -973.9447878967
 Total Coulomb   Energy =   357.9234136750
 Alpha Exchange  Energy =    -3.8779132431
 Beta  Exchange  Energy =    -3.8779132431
 DFT   Exchange  Energy =   -30.8224844503
 DFT Correlation Energy =    -1.2587843457
 Nuclear Repu.   Energy =   110.1412012078
 Nuclear Attr.   Energy = -1518.5816487092
 Kinetic         Energy =   544.6368608125
 SCF time:  CPU 58.68 s  wall 61.81 s
 Final Alpha MO Eigenvalues
            1           2           3           4           5           6
    1 -88.1285913 -18.8891821 -18.8891491  -8.0575044  -6.1056738  -6.1015590
            7           8           9          10          11          12
    1  -6.0969584  -1.3368656  -1.2268114  -0.7851167  -0.6635601  -0.6624290
           13          14          15          16          17          18
    1  -0.6466856  -0.5244441  -0.5131769  -0.4758509  -0.0312120   0.0550609
           19          20          21
    1   0.0716889   0.0763456   0.0810723
 Analysis of SCF Wavefunction
 
 --------------------------------------------------------------
                    Orbital Energies (a.u.)
 --------------------------------------------------------------
 
 Alpha MOs
 -- Occupied --
-88.129 -18.889 -18.889  -8.058  -6.106  -6.102  -6.097  -1.337
 -1.227  -0.785  -0.664  -0.662  -0.647  -0.524  -0.513  -0.476
 -- Virtual --
 -0.031   0.055   0.072   0.076   0.081   0.169   0.205   0.227
  0.229   0.243   0.263   0.273   0.311   0.317   0.337   0.358
  0.409   0.428   0.428   0.450   0.563   0.611   0.726   0.887
  0.914   0.952   0.982   0.982   0.995   1.005   1.035   1.085
  1.099   1.115   1.132   1.146   1.162   1.175   1.208   1.285
  1.379   1.461   1.637   1.648   1.683   1.772   1.810   1.891
  1.936   2.099   2.189   2.200   2.218   2.321   2.369   2.741
  2.747   3.429   3.454   3.454   3.477   3.502   3.589   3.686
  4.532   4.538   4.579   4.678   4.683   4.964   4.969   4.988
  5.022   5.117   5.135   5.135   5.141   5.151   5.203   5.230
  5.309   5.438   5.622   5.733   5.742   5.963   5.975   6.418
  6.690   6.831   6.888   6.932   6.978   7.264   7.273   7.335
  7.394   7.526   7.613   9.416  16.980  17.424  17.930  23.464
 23.525  23.617  23.791  23.890  30.842  30.846  30.882  30.889
 30.900  30.931  30.996  43.651  43.678  43.717  43.764  43.799
 43.846  43.859  43.859  43.887  43.925  45.693  45.694  45.717
 45.750  46.438  46.476  50.052  50.076 190.091
 --------------------------------------------------------------
 
          Ground-State Mulliken Net Atomic Charges

     Atom                 Charge (a.u.)
  ----------------------------------------
      1 S                     0.779951
      2 O                    -0.389928
      3 O                    -0.390023
  ----------------------------------------
  Sum of atomic charges =     0.000000

 -----------------------------------------------------------------
                    Cartesian Multipole Moments
 -----------------------------------------------------------------
    Charge (ESU x 10^10)
                 0.0000
    Dipole Moment (Debye)
         X      -1.5537      Y       0.0000      Z      -0.9139
       Tot       1.8026
    Quadrupole Moments (Debye-Ang)
        XX     -25.1319     XY       0.0000     YY     -20.9634
        XZ       1.3142     YZ       0.0000     ZZ     -26.5956
    Octapole Moments (Debye-Ang^2)
       XXX     -24.7955    XXY       0.0000    XYY      -6.8968
       YYY       0.0000    XXZ      -2.3909    XYZ       0.0000
       YYZ      -4.0544    XZZ      -8.1881    YZZ       0.0000
       ZZZ     -16.9993
    Hexadecapole Moments (Debye-Ang^3)
      XXXX     -79.7523   XXXY       0.0000   XXYY     -15.7583
      XYYY       0.0000   YYYY     -19.8706   XXXZ      15.3589
      XXYZ       0.0000   XYYZ       4.5457   YYYZ       0.0000
      XXZZ     -31.6813   XYZZ       0.0000   YYZZ     -20.8197
      XZZZ      14.3520   YZZZ       0.0000   ZZZZ    -112.8331
 -----------------------------------------------------------------
 Writing REM_CC_EA            3
 ----------------------------------------------------
       Standard Nuclear Orientation (Angstroms)
    I     Atom         X            Y            Z
 ----------------------------------------------------
    1      S       0.017123     0.001000     0.009459
    2      O       0.016095     0.000000     1.417784
    3      O       1.246605     0.000000    -0.675493
 ----------------------------------------------------
 Nuclear Repulsion Energy =   110.1710213573 hartrees
 There are       16 alpha and       16 beta electrons

                       Distance Matrix (Angstroms)
             S (  1)   O (  2)
   O (  2)  1.408326
   O (  3)  1.407404  2.428161
 
 Requested basis set is G3large
 There are 39 shells and 150 basis functions
 A cutoff of  1.0D-11 yielded    736 shell pairs
 There are  11068 function pairs ( 15150 Cartesian)
Evaluating contribution to one-electron hamiltonian from nuclear
 Smallest overlap matrix eigenvalue = 4.19E-04
 Multipole matrices computed through 2nd order
 Guess MOs from SCF MO coefficient file
Reading MOs from coefficient file
Reading MOs from coefficient file
 A restricted hybrid HF-DFT SCF calculation will be
 performed using Pulay DIIS extrapolation
 Exchange:     1.0000 Hartree-Fock + 1.0000 BNL
 Correlation:  1.0000 LYP
 Using SG-1 standard quadrature grid
 SCF converges when DIIS error is below 1.0E-08
 ---------------------------------------
  Cycle       Energy         DIIS Error
 ---------------------------------------
    1    -545.7181698849      5.82E-05
    2    -545.7172667714      1.07E-05
    3    -545.7172669509      1.08E-05
    4    -545.7172671557      3.03E-06
    5    -545.7172671837      1.08E-06
    6    -545.7172671935      5.81E-07
    7    -545.7172671953      2.96E-07
    8    -545.7172671956      9.42E-08
    9    -545.7172671960      2.30E-08
   10    -545.7172671962      5.68E-09 Convergence criterion met
 ---------------------------------------
 One-Electron    Energy =  -974.0035930541
 Total Coulomb   Energy =   357.9532064748
 Alpha Exchange  Energy =    -3.8779840277
 Beta  Exchange  Energy =    -3.8779840277
 DFT   Exchange  Energy =   -30.8231147083
 DFT Correlation Energy =    -1.2588192105
 Nuclear Repu.   Energy =   110.1710213573
 Nuclear Attr.   Energy = -1518.6437424132
 Kinetic         Energy =   544.6401493591
 SCF time:  CPU 58.56 s  wall 60.83 s
 Final Alpha MO Eigenvalues
            1           2           3           4           5           6
    1 -88.1284409 -18.8892393 -18.8890801  -8.0573773  -6.1055434  -6.1014291
            7           8           9          10          11          12
    1  -6.0968293  -1.3370761  -1.2270438  -0.7849899  -0.6637055  -0.6625472
           13          14          15          16          17          18
    1  -0.6467564  -0.5246033  -0.5133403  -0.4757676  -0.0310195   0.0550817
           19          20          21
    1   0.0717099   0.0763946   0.0810838
 Analysis of SCF Wavefunction
 
 --------------------------------------------------------------
                    Orbital Energies (a.u.)
 --------------------------------------------------------------
 
 Alpha MOs
 -- Occupied --
-88.128 -18.889 -18.889  -8.057  -6.106  -6.101  -6.097  -1.337
 -1.227  -0.785  -0.664  -0.663  -0.647  -0.525  -0.513  -0.476
 -- Virtual --
 -0.031   0.055   0.072   0.076   0.081   0.169   0.206   0.227
  0.229   0.243   0.263   0.273   0.311   0.317   0.337   0.358
  0.409   0.428   0.428   0.450   0.563   0.611   0.726   0.887
  0.914   0.952   0.982   0.982   0.995   1.005   1.035   1.085
  1.099   1.115   1.132   1.145   1.162   1.175   1.208   1.286
  1.378   1.461   1.637   1.648   1.683   1.772   1.810   1.891
  1.936   2.099   2.189   2.200   2.218   2.322   2.369   2.742
  2.747   3.429   3.454   3.455   3.477   3.502   3.589   3.686
  4.532   4.538   4.580   4.678   4.683   4.964   4.969   4.988
  5.023   5.117   5.135   5.135   5.141   5.151   5.203   5.230
  5.309   5.438   5.623   5.733   5.743   5.964   5.977   6.419
  6.690   6.831   6.887   6.933   6.978   7.265   7.273   7.335
  7.394   7.527   7.613   9.418  16.980  17.424  17.932  23.464
 23.525  23.617  23.792  23.890  30.842  30.846  30.882  30.889
 30.900  30.931  30.996  43.651  43.678  43.717  43.764  43.799
 43.846  43.859  43.859  43.887  43.925  45.693  45.694  45.717
 45.751  46.439  46.477  50.052  50.076 190.093
 --------------------------------------------------------------
 
          Ground-State Mulliken Net Atomic Charges

     Atom                 Charge (a.u.)
  ----------------------------------------
      1 S                     0.779805
      2 O                    -0.390194
      3 O                    -0.389611
  ----------------------------------------
  Sum of atomic charges =     0.000000

 -----------------------------------------------------------------
                    Cartesian Multipole Moments
 -----------------------------------------------------------------
    Charge (ESU x 10^10)
                 0.0000
    Dipole Moment (Debye)
         X      -1.5471      Y       0.0025      Z      -0.9157
       Tot       1.7978
    Quadrupole Moments (Debye-Ang)
        XX     -25.1285     XY       0.0025     YY     -20.9623
        XZ       1.3124     YZ       0.0015     ZZ     -26.5943
    Octapole Moments (Debye-Ang^2)
       XXX     -24.8207    XXY      -0.0108    XYY      -6.9033
       YYY      -0.0309    XXZ      -2.3922    XYZ       0.0003
       YYZ      -4.0567    XZZ      -8.1968    YZZ      -0.0111
       ZZZ     -17.0089
    Hexadecapole Moments (Debye-Ang^3)
      XXXX     -79.7441   XXXY       0.0029   XXYY     -15.7557
      XYYY       0.0022   YYYY     -19.8699   XXXZ      15.3575
      XXYZ       0.0013   XYYZ       4.5436   YYYZ       0.0013
      XXZZ     -31.6787   XYZZ       0.0010   YYZZ     -20.8191
      XZZZ      14.3409   YZZZ       0.0010   ZZZZ    -112.8309
 -----------------------------------------------------------------
 Writing REM_CC_EA            3
 ----------------------------------------------------
       Standard Nuclear Orientation (Angstroms)
    I     Atom         X            Y            Z
 ----------------------------------------------------
    1      S       0.017123    -0.001000     0.009459
    2      O       0.016095     0.000000     1.417784
    3      O       1.246605     0.000000    -0.675493
 ----------------------------------------------------
 Nuclear Repulsion Energy =   110.1710213573 hartrees
 There are       16 alpha and       16 beta electrons

                       Distance Matrix (Angstroms)
             S (  1)   O (  2)
   O (  2)  1.408326
   O (  3)  1.407404  2.428161
 
 Requested basis set is G3large
 There are 39 shells and 150 basis functions
 A cutoff of  1.0D-11 yielded    736 shell pairs
 There are  11068 function pairs ( 15150 Cartesian)
Evaluating contribution to one-electron hamiltonian from nuclear
 Smallest overlap matrix eigenvalue = 4.19E-04
 Multipole matrices computed through 2nd order
 Guess MOs from SCF MO coefficient file
Reading MOs from coefficient file
Reading MOs from coefficient file
 A restricted hybrid HF-DFT SCF calculation will be
 performed using Pulay DIIS extrapolation
 Exchange:     1.0000 Hartree-Fock + 1.0000 BNL
 Correlation:  1.0000 LYP
 Using SG-1 standard quadrature grid
 SCF converges when DIIS error is below 1.0E-08
 ---------------------------------------
  Cycle       Energy         DIIS Error
 ---------------------------------------
    1    -545.7172580570      5.71E-05
    2    -545.7172664912      8.82E-06
    3    -545.7172670233      3.91E-06
    4    -545.7172671381      1.74E-06
    5    -545.7172671915      5.67E-07
    6    -545.7172671969      3.27E-07
    7    -545.7172671988      9.59E-08
    8    -545.7172671983      5.53E-08
    9    -545.7172671986      7.62E-09 Convergence criterion met
 ---------------------------------------
 One-Electron    Energy =  -974.0035936235
 Total Coulomb   Energy =   357.9532071092
 Alpha Exchange  Energy =    -3.8779840406
 Beta  Exchange  Energy =    -3.8779840406
 DFT   Exchange  Energy =   -30.8231147502
 DFT Correlation Energy =    -1.2588192103
 Nuclear Repu.   Energy =   110.1710213573
 Nuclear Attr.   Energy = -1518.6437436867
 Kinetic         Energy =   544.6401500633
 SCF time:  CPU 52.37 s  wall 54.80 s
 Final Alpha MO Eigenvalues
            1           2           3           4           5           6
    1 -88.1284409 -18.8892395 -18.8890799  -8.0573774  -6.1055434  -6.1014291
            7           8           9          10          11          12
    1  -6.0968293  -1.3370762  -1.2270439  -0.7849899  -0.6637055  -0.6625472
           13          14          15          16          17          18
    1  -0.6467564  -0.5246033  -0.5133403  -0.4757676  -0.0310195   0.0550817
           19          20          21
    1   0.0717099   0.0763946   0.0810838
 Analysis of SCF Wavefunction
 
 --------------------------------------------------------------
                    Orbital Energies (a.u.)
 --------------------------------------------------------------
 
 Alpha MOs
 -- Occupied --
-88.128 -18.889 -18.889  -8.057  -6.106  -6.101  -6.097  -1.337
 -1.227  -0.785  -0.664  -0.663  -0.647  -0.525  -0.513  -0.476
 -- Virtual --
 -0.031   0.055   0.072   0.076   0.081   0.169   0.206   0.227
  0.229   0.243   0.263   0.273   0.311   0.317   0.337   0.358
  0.409   0.428   0.428   0.450   0.563   0.611   0.726   0.887
  0.914   0.952   0.982   0.982   0.995   1.005   1.035   1.085
  1.099   1.115   1.132   1.145   1.162   1.175   1.208   1.286
  1.378   1.461   1.637   1.648   1.683   1.772   1.810   1.891
  1.936   2.099   2.189   2.200   2.218   2.322   2.369   2.742
  2.747   3.429   3.454   3.455   3.477   3.502   3.589   3.686
  4.532   4.538   4.580   4.678   4.683   4.964   4.969   4.988
  5.023   5.117   5.135   5.135   5.141   5.151   5.203   5.230
  5.309   5.438   5.623   5.733   5.743   5.964   5.977   6.419
  6.690   6.831   6.887   6.933   6.978   7.265   7.273   7.335
  7.394   7.527   7.613   9.418  16.980  17.424  17.932  23.464
 23.525  23.617  23.792  23.890  30.842  30.846  30.882  30.889
 30.900  30.931  30.996  43.651  43.678  43.717  43.764  43.799
 43.846  43.859  43.859  43.887  43.925  45.693  45.694  45.717
 45.751  46.439  46.477  50.052  50.076 190.093
 --------------------------------------------------------------
 
          Ground-State Mulliken Net Atomic Charges

     Atom                 Charge (a.u.)
  ----------------------------------------
      1 S                     0.779805
      2 O                    -0.390194
      3 O                    -0.389611
  ----------------------------------------
  Sum of atomic charges =     0.000000

 -----------------------------------------------------------------
                    Cartesian Multipole Moments
 -----------------------------------------------------------------
    Charge (ESU x 10^10)
                 0.0000
    Dipole Moment (Debye)
         X      -1.5471      Y      -0.0025      Z      -0.9157
       Tot       1.7978
    Quadrupole Moments (Debye-Ang)
        XX     -25.1285     XY      -0.0025     YY     -20.9623
[...]
 
 Alpha MOs
 -- Occupied --
-88.129 -18.889 -18.889  -8.058  -6.106  -6.102  -6.097  -1.337
 -1.227  -0.785  -0.663  -0.662  -0.647  -0.524  -0.513  -0.476
 -- Virtual --
 -0.031   0.055   0.072   0.076   0.081   0.169   0.205   0.227
  0.229   0.243   0.263   0.273   0.311   0.317   0.337   0.358
  0.409   0.428   0.428   0.450   0.563   0.611   0.726   0.887
  0.914   0.952   0.982   0.982   0.995   1.005   1.035   1.085
  1.099   1.115   1.132   1.145   1.162   1.175   1.208   1.285
  1.378   1.460   1.637   1.647   1.683   1.772   1.809   1.891
  1.936   2.099   2.189   2.200   2.218   2.322   2.369   2.741
  2.747   3.429   3.454   3.454   3.477   3.502   3.589   3.686
  4.532   4.538   4.579   4.678   4.682   4.964   4.969   4.988
  5.022   5.117   5.135   5.135   5.141   5.151   5.203   5.230
  5.308   5.438   5.621   5.732   5.741   5.962   5.975   6.417
  6.689   6.831   6.887   6.932   6.978   7.264   7.273   7.335
  7.394   7.526   7.613   9.416  16.979  17.423  17.929  23.464
 23.525  23.617  23.791  23.890  30.842  30.846  30.882  30.889
 30.900  30.931  30.996  43.651  43.678  43.717  43.763  43.798
 43.846  43.858  43.859  43.887  43.925  45.693  45.694  45.717
 45.750  46.437  46.475  50.052  50.075 190.090
 --------------------------------------------------------------
 
          Ground-State Mulliken Net Atomic Charges

     Atom                 Charge (a.u.)
  ----------------------------------------
      1 S                     0.779937
      2 O                    -0.389734
      3 O                    -0.390203
  ----------------------------------------
  Sum of atomic charges =     0.000000

 -----------------------------------------------------------------
                    Cartesian Multipole Moments
 -----------------------------------------------------------------
    Charge (ESU x 10^10)
                 0.0000
    Dipole Moment (Debye)
         X      -1.5544      Y       0.0013      Z      -0.9106
       Tot       1.8015
    Quadrupole Moments (Debye-Ang)
        XX     -25.1330     XY       0.0034     YY     -20.9648
        XZ       1.3158     YZ      -0.0011     ZZ     -26.5967
    Octapole Moments (Debye-Ang^2)
       XXX     -24.7996    XXY       0.0086    XYY      -6.8984
       YYY       0.0160    XXZ      -2.3823    XYZ      -0.0013
       YYZ      -4.0474    XZZ      -8.1921    YZZ       0.0063
       ZZZ     -16.9741
    Hexadecapole Moments (Debye-Ang^3)
      XXXX     -79.7614   XXXY       0.0261   XXYY     -15.7603
      XYYY       0.0220   YYYY     -19.8735   XXXZ      15.3824
      XXYZ      -0.0051   XYYZ       4.5530   YYYZ      -0.0113
      XXZZ     -31.6904   XYZZ       0.0087   YYZZ     -20.8273
      XZZZ      14.3743   YZZZ      -0.0119   ZZZZ    -112.8750
 -----------------------------------------------------------------
 Writing REM_CC_EA            3
 ----------------------------------------------------
       Standard Nuclear Orientation (Angstroms)
    I     Atom         X            Y            Z
 ----------------------------------------------------
    1      S       0.016123     0.000000     0.009459
    2      O       0.016095     0.000000     1.417784
    3      O       1.246605     0.000000    -0.673493
 ----------------------------------------------------
 Nuclear Repulsion Energy =   110.1843195990 hartrees
 There are       16 alpha and       16 beta electrons

                       Distance Matrix (Angstroms)
             S (  1)   O (  2)
   O (  2)  1.408325
   O (  3)  1.407305  2.426437
 
 Requested basis set is G3large
 There are 39 shells and 150 basis functions
 A cutoff of  1.0D-11 yielded    736 shell pairs
 There are  11068 function pairs ( 15150 Cartesian)
Evaluating contribution to one-electron hamiltonian from nuclear
 Smallest overlap matrix eigenvalue = 4.19E-04
 Multipole matrices computed through 2nd order
 Guess MOs from SCF MO coefficient file
Reading MOs from coefficient file
Reading MOs from coefficient file
 A restricted hybrid HF-DFT SCF calculation will be
 performed using Pulay DIIS extrapolation
 Exchange:     1.0000 Hartree-Fock + 1.0000 BNL
 Correlation:  1.0000 LYP
 Using SG-1 standard quadrature grid
 SCF converges when DIIS error is below 1.0E-08
 ---------------------------------------
  Cycle       Energy         DIIS Error
 ---------------------------------------
    1    -545.7185738039      1.10E-04
    2    -545.7172663555      1.64E-05
    3    -545.7172665521      1.76E-05
    4    -545.7172670864      3.76E-06
    5    -545.7172671154      1.39E-06
    6    -545.7172671210      9.23E-07
    7    -545.7172671236      1.67E-07
    8    -545.7172671251      7.81E-08
    9    -545.7172671253      2.76E-08
   10    -545.7172671256      7.38E-09 Convergence criterion met
 ---------------------------------------
 One-Electron    Energy =  -974.0313059344
 Total Coulomb   Energy =   357.9678260934
 Alpha Exchange  Energy =    -3.8780046287
 Beta  Exchange  Energy =    -3.8780046287
 DFT   Exchange  Energy =   -30.8232683025
 DFT Correlation Energy =    -1.2588293237
 Nuclear Repu.   Energy =   110.1843195990
 Nuclear Attr.   Energy = -1518.6723179377
 Kinetic         Energy =   544.6410120033
 SCF time:  CPU 60.60 s  wall 66.49 s
 Final Alpha MO Eigenvalues
            1           2           3           4           5           6
    1 -88.1284272 -18.8891284 -18.8889539  -8.0573846  -6.1055509  -6.1014379
            7           8           9          10          11          12
    1  -6.0968302  -1.3371130  -1.2268902  -0.7850150  -0.6637030  -0.6625415
           13          14          15          16          17          18
    1  -0.6466627  -0.5244816  -0.5131220  -0.4759191  -0.0310802   0.0550700
           19          20          21
    1   0.0717153   0.0763317   0.0810776
 Analysis of SCF Wavefunction
 
 --------------------------------------------------------------
                    Orbital Energies (a.u.)
 --------------------------------------------------------------
 
 Alpha MOs
 -- Occupied --
-88.128 -18.889 -18.889  -8.057  -6.106  -6.101  -6.097  -1.337
 -1.227  -0.785  -0.664  -0.663  -0.647  -0.524  -0.513  -0.476
 -- Virtual --
 -0.031   0.055   0.072   0.076   0.081   0.169   0.205   0.227
  0.229   0.243   0.263   0.273   0.311   0.317   0.337   0.358
  0.409   0.428   0.428   0.450   0.563   0.611   0.726   0.887
  0.914   0.952   0.982   0.983   0.995   1.005   1.035   1.085
  1.099   1.115   1.132   1.146   1.162   1.175   1.208   1.285
  1.380   1.461   1.638   1.648   1.683   1.772   1.810   1.891
  1.937   2.099   2.189   2.200   2.218   2.321   2.370   2.742
  2.747   3.429   3.454   3.455   3.477   3.502   3.589   3.686
  4.532   4.538   4.580   4.678   4.683   4.964   4.969   4.988
  5.022   5.117   5.135   5.135   5.141   5.151   5.203   5.230
  5.309   5.439   5.623   5.734   5.743   5.965   5.976   6.419
  6.692   6.831   6.888   6.932   6.978   7.265   7.273   7.336
  7.393   7.527   7.613   9.416  16.980  17.425  17.931  23.465
 23.525  23.617  23.792  23.891  30.842  30.846  30.882  30.889
 30.901  30.931  30.996  43.651  43.678  43.717  43.764  43.799
 43.846  43.859  43.859  43.887  43.926  45.693  45.694  45.717
 45.751  46.439  46.478  50.052  50.076 190.092
 --------------------------------------------------------------
 
          Ground-State Mulliken Net Atomic Charges

     Atom                 Charge (a.u.)
  ----------------------------------------
      1 S                     0.779979
      2 O                    -0.390316
      3 O                    -0.389664
  ----------------------------------------
  Sum of atomic charges =     0.000000

 -----------------------------------------------------------------
                    Cartesian Multipole Moments
 -----------------------------------------------------------------
    Charge (ESU x 10^10)
                 0.0000
    Dipole Moment (Debye)
         X      -1.5524      Y       0.0000      Z      -0.9204
       Tot       1.8047
    Quadrupole Moments (Debye-Ang)
        XX     -25.1295     XY       0.0000     YY     -20.9606
        XZ       1.3109     YZ       0.0000     ZZ     -26.5935
    Octapole Moments (Debye-Ang^2)
       XXX     -24.7873    XXY       0.0000    XYY      -6.8937
       YYY       0.0000    XXZ      -2.4080    XYZ       0.0000
       YYZ      -4.0683    XZZ      -8.1799    YZZ       0.0000
       ZZZ     -17.0497
    Hexadecapole Moments (Debye-Ang^3)
      XXXX     -79.7341   XXXY       0.0000   XXYY     -15.7544
      XYYY       0.0000   YYYY     -19.8649   XXXZ      15.3119
      XXYZ       0.0000   XYYZ       4.5312   YYYZ       0.0000
      XXZZ     -31.6631   XYZZ       0.0000   YYZZ     -20.8047
      XZZZ      14.3075   YZZZ       0.0000   ZZZZ    -112.7497
 -----------------------------------------------------------------
 Writing REM_CC_EA            3
 ----------------------------------------------------
       Standard Nuclear Orientation (Angstroms)
    I     Atom         X            Y            Z
 ----------------------------------------------------
    1      S       0.016123     0.000000     0.009459
    2      O       0.016095     0.000000     1.417784
    3      O       1.246605     0.000000    -0.677493
 ----------------------------------------------------
 Nuclear Repulsion Energy =   110.0980662884 hartrees
 There are       16 alpha and       16 beta electrons

                       Distance Matrix (Angstroms)
             S (  1)   O (  2)
   O (  2)  1.408325
   O (  3)  1.409251  2.429885
 
 Requested basis set is G3large
 There are 39 shells and 150 basis functions
 A cutoff of  1.0D-11 yielded    736 shell pairs
 There are  11068 function pairs ( 15150 Cartesian)
Evaluating contribution to one-electron hamiltonian from nuclear
 Smallest overlap matrix eigenvalue = 4.21E-04
 Multipole matrices computed through 2nd order
 Guess MOs from SCF MO coefficient file
Reading MOs from coefficient file
Reading MOs from coefficient file
 A restricted hybrid HF-DFT SCF calculation will be
 performed using Pulay DIIS extrapolation
 Exchange:     1.0000 Hartree-Fock + 1.0000 BNL
 Correlation:  1.0000 LYP
 Using SG-1 standard quadrature grid
 SCF converges when DIIS error is below 1.0E-08
 ---------------------------------------
  Cycle       Energy         DIIS Error
 ---------------------------------------
    1    -545.7155193682      1.44E-04
    2    -545.7172645971      2.17E-05
    3    -545.7172648459      2.37E-05
    4    -545.7172658079      4.78E-06
    5    -545.7172658542      1.74E-06
    6    -545.7172658618      1.10E-06
    7    -545.7172658644      1.28E-07
    8    -545.7172658639      3.78E-08
    9    -545.7172658635      1.11E-08
   10    -545.7172658636      2.51E-09 Convergence criterion met
 ---------------------------------------
 One-Electron    Energy =  -973.8582327428
 Total Coulomb   Energy =   357.8789841000
 Alpha Exchange  Energy =    -3.8778216546
 Beta  Exchange  Energy =    -3.8778216546
 DFT   Exchange  Energy =   -30.8217008638
 DFT Correlation Energy =    -1.2587393361
 Nuclear Repu.   Energy =   110.0980662884
 Nuclear Attr.   Energy = -1518.4909513090
 Kinetic         Energy =   544.6327185662
 SCF time:  CPU 59.91 s  wall 66.01 s
 Final Alpha MO Eigenvalues
            1           2           3           4           5           6
    1 -88.1287554 -18.8893613 -18.8892182  -8.0576243  -6.1057968  -6.1016801
            7           8           9          10          11          12
    1  -6.0970868  -1.3366199  -1.2267300  -0.7852190  -0.6634180  -0.6623169
           13          14          15          16          17          18
    1  -0.6467083  -0.5244054  -0.5132305  -0.4757826  -0.0313443   0.0550515
           19          20          21
    1   0.0716623   0.0763595   0.0810671
 Analysis of SCF Wavefunction
 
 --------------------------------------------------------------
                    Orbital Energies (a.u.)
 --------------------------------------------------------------
 
 Alpha MOs
 -- Occupied --
-88.129 -18.889 -18.889  -8.058  -6.106  -6.102  -6.097  -1.337
 -1.227  -0.785  -0.663  -0.662  -0.647  -0.524  -0.513  -0.476
 -- Virtual --
 -0.031   0.055   0.072   0.076   0.081   0.169   0.205   0.227
  0.229   0.243   0.263   0.273   0.311   0.317   0.336   0.358
  0.408   0.427   0.428   0.450   0.563   0.611   0.726   0.887
  0.914   0.952   0.982   0.982   0.995   1.005   1.035   1.085
  1.099   1.115   1.132   1.145   1.162   1.175   1.208   1.285
  1.377   1.460   1.637   1.647   1.683   1.772   1.809   1.891
  1.936   2.098   2.189   2.200   2.218   2.322   2.368   2.741
  2.746   3.429   3.454   3.454   3.477   3.501   3.589   3.685
  4.532   4.537   4.579   4.678   4.682   4.964   4.969   4.988
  5.022   5.117   5.134   5.135   5.141   5.151   5.203   5.230
  5.308   5.437   5.620   5.731   5.741   5.962   5.974   6.417
  6.687   6.831   6.887   6.932   6.977   7.264   7.272   7.334
  7.394   7.525   7.613   9.416  16.979  17.422  17.929  23.464
 23.525  23.617  23.791  23.890  30.842  30.846  30.882  30.889
 30.900  30.930  30.996  43.651  43.678  43.717  43.763  43.798
 43.845  43.858  43.859  43.887  43.925  45.693  45.694  45.717
 45.750  46.436  46.474  50.051  50.075 190.090
 --------------------------------------------------------------
 
          Ground-State Mulliken Net Atomic Charges

     Atom                 Charge (a.u.)
  ----------------------------------------
      1 S                     0.779923
      2 O                    -0.389540
      3 O                    -0.390383
  ----------------------------------------
  Sum of atomic charges =     0.000000

 -----------------------------------------------------------------
                    Cartesian Multipole Moments
 -----------------------------------------------------------------
    Charge (ESU x 10^10)
                 0.0000
    Dipole Moment (Debye)
         X      -1.5551      Y       0.0000      Z      -0.9073
       Tot       1.8005
    Quadrupole Moments (Debye-Ang)
        XX     -25.1342     XY       0.0000     YY     -20.9662
        XZ       1.3174     YZ       0.0000     ZZ     -26.5978
    Octapole Moments (Debye-Ang^2)
       XXX     -24.8037    XXY       0.0000    XYY      -6.8999
       YYY       0.0000    XXZ      -2.3738    XYZ       0.0000
       YYZ      -4.0404    XZZ      -8.1962    YZZ       0.0000
       ZZZ     -16.9488
    Hexadecapole Moments (Debye-Ang^3)
      XXXX     -79.7705   XXXY       0.0000   XXYY     -15.7622
      XYYY       0.0000   YYYY     -19.8763   XXXZ      15.4060
      XXYZ       0.0000   XYYZ       4.5603   YYYZ       0.0000
      XXZZ     -31.6996   XYZZ       0.0000   YYZZ     -20.8348
      XZZZ      14.3965   YZZZ       0.0000   ZZZZ    -112.9169
 -----------------------------------------------------------------
 Writing REM_CC_EA            3
 ----------------------------------------------------
       Standard Nuclear Orientation (Angstroms)
    I     Atom         X            Y            Z
 ----------------------------------------------------
    1      S       0.016123     0.000000     0.009459
    2      O       0.016095     0.000000     1.417784
    3      O       1.246605     0.000000    -0.675493
 ----------------------------------------------------
 Nuclear Repulsion Energy =   110.1412012078 hartrees
 There are       16 alpha and       16 beta electrons
FINAL TENSOR RESULT:
Order 2, Length 9
Order 1, Length 9
   0.7213795  -0.0000103  -0.2760786  -0.0772519   0.0000038   0.0050638  -0.6433723  -0.0000006   0.2710099
Order 1, Length 9
  -0.0000103   0.0017336  -0.0000031  -0.0000005  -0.0008356  -0.0000037  -0.0000005   0.0000091  -0.0000030
Order 1, Length 9
  -0.2760786  -0.0000031   1.0308547  -0.0446672  -0.0000003  -0.7999201   0.3205768  -0.0000065  -0.2301908
Order 1, Length 9
  -0.0772519  -0.0000005  -0.0446672   0.0616333   0.0001075  -0.0143275   0.0165476   0.0000049   0.0588390
Order 1, Length 9
   0.0000038  -0.0008356  -0.0000003   0.0001075   0.0013644  -0.0000036  -0.0000002  -0.0000837   0.0000007
Order 1, Length 9
   0.0050638  -0.0000037  -0.7999201  -0.0143275  -0.0000036   0.8217473   0.0093362   0.0000001  -0.0213083
Order 1, Length 9
  -0.6433723  -0.0000005   0.3205768   0.0165476  -0.0000002   0.0093362   0.6274788   0.0004715  -0.3298516
Order 1, Length 9
  -0.0000006   0.0000091  -0.0000065   0.0000049  -0.0000837   0.0000001   0.0004715   0.0005810  -0.0000019
Order 1, Length 9
   0.2710099  -0.0000030  -0.2301908   0.0588390   0.0000007  -0.0213083  -0.3298516  -0.0000019   0.2522209


 # Finishing finite difference calculation for IDERIV #
 ######################################################
 ######################################################
 Requested basis set is G3large
 There are 39 shells and 150 basis functions
 **********************************************************************
 **                                                                  **
 **                       VIBRATIONAL ANALYSIS                       **
 **                       --------------------                       **
 **                                                                  **
 **        VIBRATIONAL FREQUENCIES (CM**-1) AND NORMAL MODES         **
 **     FORCE CONSTANTS (mDYN/ANGSTROM) AND REDUCED MASSES (AMU)     **
 **                                                                  **
 **********************************************************************
 

 Mode:                 1                      2                      3
 Frequency:       561.65                1315.82                1519.71
 Force Cnst:      3.4664                18.2821                27.6595
 Red. Mass:      18.6510                17.9219                20.3269
 IR Active:          YES                    YES                    YES
 Raman Active:       YES                    YES                    YES
               X      Y      Z        X      Y      Z        X      Y      Z
 S         -0.351  0.000 -0.207   -0.301  0.000 -0.174   -0.262  0.000  0.450
 O          0.605  0.000 -0.225    0.013  0.000  0.660    0.000  0.000 -0.608
 O          0.097  0.000  0.638    0.588  0.000 -0.313    0.524  0.000 -0.292
 TransDip   0.000  0.000  0.000    0.000  0.000  0.000    0.000  0.000  0.000

 STANDARD THERMODYNAMIC QUANTITIES AT   298.18 K  AND     1.00 ATM

   This Molecule has  0 Imaginary Frequencies
   Zero point vibrational energy:        4.857 kcal/mol

   Atom    1 Element S  Has Mass   31.97207
   Atom    2 Element O  Has Mass   15.99491
   Atom    3 Element O  Has Mass   15.99491
   Molecular Mass:    63.961890 amu
   Principal axes and moments of inertia in atomic units:
                             1           2           3
    Eigenvalues --       29.08377   168.38537   197.46914
          X              -0.50676     0.86209     0.00000
          Y               0.00000     0.00000     1.00000
          Z               0.86209     0.50676     0.00000
   Rotational Symmetry Number is   1
   The Molecule is an Asymmetric Top
   Translational Enthalpy:        0.889 kcal/mol
   Rotational Enthalpy:           0.889 kcal/mol
   Vibrational Enthalpy:          4.980 kcal/mol
   gas constant (RT):             0.593 kcal/mol
   Translational Entropy:        38.386  cal/mol.K
   Rotational Entropy:           21.497  cal/mol.K
   Vibrational Entropy:           0.557  cal/mol.K

   Total Enthalpy:                7.351 kcal/mol
   Total Entropy:                60.440  cal/mol.K
 Total job time:  9970.57s(wall), 9353.44s(cpu) 
 Sun Apr 17 22:56:24 2011

        *************************************************************
        *                                                           *
        *  Thank you very much for using Q-Chem.  Have a nice day.  *
        *                                                           *
        *************************************************************


0 sent ACK to 0 
now end server 0 ... 
