Process 0 of 1 is on cl116.stfx.acenet.ca - thread support 1
initial socket setup ...start
initial socket setup ...done 
now start server 0 ... 

cmd = /usr/bin/ssh clhead /usr/local/qchem/bin/get_hostid 1145909731 > /scratch/tmp/6065329.1.short.q/qchem7953/lic.dat
                  Welcome to Q-Chem
     A Quantum Leap Into The Future Of Chemistry

 Y. Shao, L. Fusti-Molnar, Y. Jung, J. Kussmann, C. Ochsenfeld,
 S. T. Brown, A. T. B. Gilbert, L. V. Slipchenko,S. V. Levchenko,
 D. P. O'Neill, R. A. DiStasio Jr., R. C. Lochan, T. Wang,
 G. J. O. Beran, N. A. Besley, J. M. Herbert, C. Y. Lin,
 T. Van Voorhis, S. H. Chien, A. Sodt, R. P. Steele, 
 V. A. Rassolov, P. E. Maslen, P. P. Korambath, R. D. Adamson,
 B. Austin, J. Baker, E. F. C. Byrd, H. Dachsel, R. J. Doerksen,
 A. Dreuw, B. D. Dunietz, A. D. Dutoi, T. R. Furlani,
 S. R. Gwaltney, A. Heyden, S. Hirata, C.-P. Hsu, G. Kedziora,
 R. Z. Khaliullin, P. Klunzinger, A. M. Lee, M. S. Lee, W. Liang,
 I. Lotan, N. Nair, B. Peters, E. I. Proynov, P. A. Pieniazek, 
 Y. M. Rhee, J. Ritchie, E. Rosta, C. D. Sherrill, 
 A. C. Simmonett, J. E. Subotnik, H. L. Woodcock III,
 W. Zhang, A. T. Bell, A. K. Chakraborty, D. M. Chipman,
 F. J. Keil, A. Warshel, W. J. Hehre, H. F. Schaefer III,
 J. Kong, A. I. Krylov, P. M. W. Gill, M. Head-Gordon,
 Q-Chem, Version 3.1, Q-Chem, Inc., Pittsburgh, PA (2007).

 Additional authors for Version 3.1: 
 Z. Gan, Y. Zhao, N. E. Schultz, D. Truhlar, E. Epifanovsky and M. Oana.

 Additional authors for Version 3.2: 
 R. Baer, B. R. Brooks, D. Casanova, J.-D. Chai, C.-L. Cheng, 
 C. Cramer, D. Crittenden, A. Ghysels, G. Hawkins, E. G. Hohenstein, 
 C. Kelley, W. Kurlancheek, D. Liotard, E. Livshits, P. Manohar, 
 A. Marenich, D. Neuhauser, R. Olson, M. A. Rohrdanz, K. S. Thanthiriwatte, 
 A. J. W. Thom, V. Vanovschi, C. F. Williams, Q. Wu and Z.-Q. You. 


 Intel X86 Linux Version

 Q-chem begins on Mon Jul  8 16:59:49 2013  

 Parallel job on  1  processors
Processing $rem in /usr/local/qchem/config/preferences.

theFileMan(): MAXOPENFILES=974 MAX_SUB_FILE_NUM=16
Maximum size of a physical file is 2.0 GB, maximum size of a tmp-file is 32.0 GB


--------------------------------------------------------------
User input:
--------------------------------------------------------------

$molecule
-1,2
N          1.39192        0.00000        1.00000
C         -1.39471        0.00000        1.00000
C          0.69930        1.13676        1.00000
C          0.69930       -1.13676        1.00000
C         -0.68721       -1.19125        1.00000
C         -0.68721        1.19125        1.00000
H         -2.48184        0.00000        1.00000
H          1.28587        2.05509        1.00000
H          1.28587       -2.05509        1.00000
H         -1.19648       -2.15056        1.00000
H         -1.19648        2.15056        1.00000
$end

$comment
negative
$end

$xc_functional
C PBE   1.00
X wPBE  1.00
$end

$rem
SYMMETRY_DECOMPOSITION	0
exchange 		general
LRC_DFT                 true
BASIS                   g3large
omega			320
mem_static              760
max_scf_cycles          200
scf_final_print         1
sym_ignore              true
$end

--------------------------------------------------------------
 Writing REM_CC_EA           11
 ----------------------------------------------------
       Standard Nuclear Orientation (Angstroms)
    I     Atom         X            Y            Z
 ----------------------------------------------------
    1      N       1.391920     0.000000     1.000000
    2      C      -1.394710     0.000000     1.000000
    3      C       0.699300     1.136760     1.000000
    4      C       0.699300    -1.136760     1.000000
    5      C      -0.687210    -1.191250     1.000000
    6      C      -0.687210     1.191250     1.000000
    7      H      -2.481840     0.000000     1.000000
    8      H       1.285870     2.055090     1.000000
    9      H       1.285870    -2.055090     1.000000
   10      H      -1.196480    -2.150560     1.000000
   11      H      -1.196480     2.150560     1.000000
 ----------------------------------------------------
 Nuclear Repulsion Energy =   206.9509065727 hartrees
 There are       22 alpha and       21 beta electrons
 Requested basis set is G3large
 There are 90 shells and 302 basis functions

Total QAlloc Memory Limit   2000 MB
Mega-Array Size       743 MB
MEM_STATIC part       760 MB

                       Distance Matrix (Angstroms)
             N (  1)   C (  2)   C (  3)   C (  4)   C (  5)   C (  6)
   C (  2)  2.786630
   C (  3)  1.331145  2.382667
   C (  4)  1.331145  2.382667  2.273520
   C (  5)  2.396217  1.385508  2.709620  1.387580
   C (  6)  2.396217  1.385508  1.387580  2.709620  2.382500
   H (  7)  3.873760  1.087130  3.378147  3.378147  2.154013  2.154013
   H (  8)  2.057824  3.377707  1.089676  3.245300  3.798917  2.153895
   H (  9)  2.057824  3.377707  3.245300  1.089676  2.153895  3.798917
   H ( 10)  3.365223  2.159677  3.794793  2.149831  1.086108  3.380392
   H ( 11)  3.365223  2.159677  2.149831  3.794793  3.380392  1.086108
             H (  7)   H (  8)   H (  9)   H ( 10)
   H (  8)  4.291740
   H (  9)  4.291740  4.110180
   H ( 10)  2.505406  4.883600  2.484185
   H ( 11)  2.505406  2.484185  4.883600  4.301120
 
 A cutoff of  1.0D-08 yielded   3663 shell pairs
 There are  42102 function pairs ( 53042 Cartesian)
Evaluating contribution to one-electron hamiltonian from nuclear
 Smallest overlap matrix eigenvalue = 6.37E-06

 Q-Chem warning in module mkSTV.C, line 194:

 Overlap eigenvalue is smaller than square root of threshold

 Multipole matrices computed through 2nd order

  Scale SEOQF with 1.000000e-01/1.000000e-01/1.000000e-01

 Standard Electronic Orientation quadrupole field applied
 Nucleus-field energy     =     0.0000000008 hartrees
 Guess from superposition of atomic densities
 Warning:  Energy on first SCF cycle will be non-variational
 Long-range K will be added via erf
 Coulomb attenuation parameter = 0.32 bohr**(-1)
 An unrestricted Kohn-Sham SCF calculation will be
 performed using Pulay DIIS extrapolation
 Exchange:  wPBE + LR-HF      Correlation:  PBE
 Using SG-1 standard quadrature grid
 SCF converges when DIIS error is below 1.0E-05
 Requested basis set is G3large
 There are 90 shells and 302 basis functions
 A cutoff of  1.0D-08 yielded   3663 shell pairs
 There are  42102 function pairs ( 53042 Cartesian)
 Warning!  Inaccurate integrated density:
   Number of electrons =    43
   Numerical integral  =    42.000577100364
   Relative error      =    -2.3242393015 %
 ---------------------------------------
  Cycle       Energy         DIIS Error
 ---------------------------------------
    1    -250.1064329836      2.87E-02
    2    -247.9366937734      3.54E-03
    3    -247.8519368699      4.61E-03
    4    -248.0916461238      1.01E-03
    5    -248.1038453278      3.75E-04
    6    -248.1061736645      1.12E-04
    7    -248.1065994398      3.54E-05
    8    -248.1066678476      2.00E-05
    9    -248.1066969036      9.05E-06 Convergence criterion met
 ---------------------------------------
 One-Electron    Energy =  -752.6343953676
 Total Coulomb   Energy =   333.5639841542
 Alpha Exchange  Energy =    -3.6088519335
 Beta  Exchange  Energy =    -3.4522910347
 DFT   Exchange  Energy =   -27.5089470653
 DFT Correlation Energy =    -1.4171022303
 Nuclear Repu.   Energy =   206.9509065735
 Nuclear Attr.   Energy = -1000.0440786907
 Kinetic         Energy =   247.4096833231
 <S^2> = 0.7632
 SCF time:  CPU 455.23 s  wall 456.35 s
 Final Alpha MO Eigenvalues
            1           2           3           4           5           6
    1 -13.9127325  -9.8849431  -9.8772176  -9.8636968  -9.8573667  -9.8418332
            7           8           9          10          11          12
    1  -0.8333068  -0.7013528  -0.6639285  -0.5302845  -0.5293268  -0.4351356
           13          14          15          16          17          18
    1  -0.3740967  -0.3704295  -0.3275557  -0.3142703  -0.2920182  -0.2545118
           19          20          21          22          23          24
    1  -0.1972513  -0.1722449  -0.1434100   0.0269103   0.1490064   0.1499510
           25          26          27
    1   0.1559144   0.1642880   0.1769627
 Final Beta MO Eigenvalues
            1           2           3           4           5           6
    1 -13.9061227  -9.8847497  -9.8755122  -9.8644448  -9.8567602  -9.8360326
            7           8           9          10          11          12
    1  -0.8254442  -0.6927842  -0.6594441  -0.5280336  -0.5171124  -0.4322313
           13          14          15          16          17          18
    1  -0.3708381  -0.3666384  -0.3266930  -0.2955337  -0.2879727  -0.2522036
           19          20          21          22          23          24
    1  -0.1577258  -0.1497509  -0.1359825   0.1494142   0.1502481   0.1563788
           25          26
    1   0.1643906   0.1771182
 Analysis of SCF Wavefunction
 
 --------------------------------------------------------------
                    Orbital Energies (a.u.)
 --------------------------------------------------------------
 
 Alpha MOs
 -- Occupied --
-13.913  -9.885  -9.877  -9.864  -9.857  -9.842  -0.833  -0.701
 -0.664  -0.530  -0.529  -0.435  -0.374  -0.370  -0.328  -0.314
 -0.292  -0.255  -0.197  -0.172  -0.143   0.027
 -- Virtual --
  0.149   0.150   0.156   0.164   0.177   0.244   0.247   0.247
  0.268   0.271   0.274   0.278   0.295   0.298   0.298   0.305
  0.313   0.321   0.323   0.334   0.336   0.351   0.353   0.366
  0.402   0.407   0.417   0.448   0.464   0.476   0.485   0.504
  0.520   0.522   0.525   0.534   0.579   0.601   0.618   0.618
  0.718   0.722   0.747   0.779   0.792   0.795   0.796   0.799
  0.827   0.830   0.851   0.870   0.871   0.879   0.880   0.884
  0.924   0.938   0.959   0.967   0.984   0.989   1.004   1.014
  1.019   1.047   1.056   1.070   1.078   1.090   1.100   1.117
  1.167   1.190   1.207   1.227   1.235   1.287   1.316   1.333
  1.336   1.380   1.398   1.414   1.437   1.450   1.477   1.553
  1.565   1.565   1.593   1.611   1.616   1.641   1.647   1.678
  1.691   1.695   1.699   1.720   1.725   1.770   1.868   1.944
  1.954   1.995   2.030   2.043   2.076   2.147   2.154   2.265
  2.280   2.339   2.373   2.521   2.783   2.799   2.848   2.872
  2.873   2.896   2.951   2.962   2.981   2.989   3.031   3.059
  3.084   3.085   3.093   3.117   3.124   3.126   3.150   3.166
  3.169   3.213   3.285   3.300   3.357   3.384   3.406   3.408
  3.414   3.460   3.462   3.465   3.472   3.501   3.526   3.537
  3.549   3.575   3.594   3.621   3.632   3.655   3.671   3.689
  3.710   3.733   3.744   3.772   3.839   3.851   3.860   3.887
  3.898   3.922   3.965   3.995   4.047   4.082   4.109   4.111
  4.117   4.167   4.183   4.219   4.264   4.282   4.316   4.349
  4.381   4.396   4.403   4.439   4.546   4.561   4.571   4.665
  4.665   4.670   4.736   4.782   4.783   4.819   4.826   4.876
  4.878   4.898   5.027   5.095   5.164   5.250   5.324   5.334
  5.360   5.390   5.413   5.533   5.545   5.570   5.634   5.749
  5.793   5.967   5.984   6.042   6.134   6.229   6.269   6.384
  6.477   7.079  24.079  24.442  24.664  24.842  25.127  27.407
 27.479  27.537  27.598  27.779  28.138  28.257  28.279  28.422
 28.448  28.458  28.640  28.655  28.701  29.004  36.140  37.682
 38.107  38.722  40.772  40.843  40.864  40.907  40.998  41.016
 41.054  41.081  41.143  41.151  41.230  41.238  41.255  41.275
 41.293  41.320  41.326  41.330  41.344  41.366  41.370  41.381
 41.381  41.388  41.400  41.433  41.524  41.565  41.605  41.698
 
 Beta MOs
 -- Occupied --
-13.906  -9.885  -9.876  -9.864  -9.857  -9.836  -0.825  -0.693
 -0.659  -0.528  -0.517  -0.432  -0.371  -0.367  -0.327  -0.296
 -0.288  -0.252  -0.158  -0.150  -0.136
 -- Virtual --
  0.149   0.150   0.156   0.164   0.177   0.241   0.245   0.248
  0.259   0.270   0.271   0.279   0.280   0.296   0.298   0.300
  0.306   0.322   0.324   0.334   0.337   0.337   0.354   0.354
  0.367   0.403   0.412   0.446   0.449   0.478   0.478   0.487
  0.504   0.521   0.524   0.529   0.535   0.584   0.602   0.620
  0.622   0.719   0.729   0.752   0.783   0.794   0.800   0.809
  0.809   0.829   0.841   0.853   0.873   0.876   0.881   0.882
  0.897   0.925   0.954   0.963   0.971   0.987   0.999   1.007
  1.016   1.032   1.049   1.059   1.076   1.082   1.093   1.111
  1.121   1.181   1.192   1.214   1.231   1.239   1.290   1.324
  1.340   1.342   1.385   1.401   1.419   1.439   1.452   1.480
  1.555   1.571   1.574   1.594   1.614   1.618   1.644   1.660
  1.679   1.693   1.704   1.708   1.721   1.729   1.774   1.870
  1.955   1.956   2.004   2.031   2.056   2.077   2.151   2.162
  2.270   2.283   2.346   2.376   2.525   2.789   2.806   2.854
  2.876   2.878   2.899   2.965   2.973   2.986   2.996   3.038
  3.060   3.090   3.091   3.099   3.122   3.130   3.134   3.157
  3.172   3.182   3.222   3.291   3.303   3.368   3.386   3.412
  3.412   3.424   3.463   3.469   3.470   3.481   3.507   3.531
  3.539   3.552   3.588   3.597   3.628   3.639   3.659   3.674
  3.700   3.716   3.738   3.749   3.784   3.841   3.857   3.868
  3.891   3.913   3.928   3.972   3.997   4.057   4.085   4.114
  4.121   4.122   4.184   4.187   4.222   4.276   4.285   4.325
  4.356   4.383   4.400   4.404   4.442   4.553   4.563   4.578
  4.667   4.672   4.674   4.745   4.789   4.789   4.824   4.838
  4.880   4.885   4.904   5.039   5.098   5.168   5.252   5.330
  5.355   5.363   5.392   5.439   5.539   5.565   5.585   5.639
  5.762   5.795   5.968   5.988   6.046   6.135   6.232   6.275
  6.386   6.479   7.082  24.081  24.442  24.667  24.843  25.129
 27.412  27.481  27.547  27.599  27.786  28.139  28.258  28.280
 28.423  28.448  28.459  28.641  28.657  28.702  29.005  36.148
 37.701  38.111  38.726  40.789  40.857  40.879  40.910  41.000
 41.018  41.055  41.088  41.145  41.151  41.235  41.240  41.260
 41.277  41.295  41.323  41.329  41.333  41.346  41.369  41.371
 41.381  41.388  41.389  41.407  41.434  41.524  41.565  41.606
 41.699
 --------------------------------------------------------------
 
          Ground-State Mulliken Net Atomic Charges

     Atom                 Charge (a.u.)    Spin (a.u.)
  --------------------------------------------------------
      1 N                    -0.344674       0.296299
      2 C                    -0.284892       0.449626
      3 C                    -0.240554       0.060194
      4 C                    -0.294574       0.190140
      5 C                    -0.160810      -0.017943
      6 C                    -0.213368       0.101331
      7 H                     0.117003      -0.044942
      8 H                     0.113099      -0.009603
      9 H                     0.113318      -0.019259
     10 H                     0.097882       0.001287
     11 H                     0.097572      -0.007131
  --------------------------------------------------------
  Sum of atomic charges =    -1.000000
  Sum of spin   charges =     1.000000

 -----------------------------------------------------------------
                    Cartesian Multipole Moments
 -----------------------------------------------------------------
    Charge (ESU x 10^10)
                -4.8032
    Dipole Moment (Debye)
         X      -1.5955      Y       0.0343      Z      -4.8073
       Tot       5.0652
    Quadrupole Moments (Debye-Ang)
        XX     -50.3928     XY       0.3482     YY     -42.7570
        XZ      -1.6192     YZ       0.0097     ZZ     -49.5420
    Octapole Moments (Debye-Ang^2)
       XXX      -6.8432    XXY       0.2570    XYY       2.2168
       YYY      -0.0877    XXZ     -50.3133    XYZ       0.3510
       YYZ     -42.8585    XZZ       1.9857    YZZ       0.0810
       ZZZ    -139.0494
    Hexadecapole Moments (Debye-Ang^3)
      XXXX    -379.2144   XXXY       0.1920   XXYY    -105.4009
      XYYY       2.5983   YYYY    -343.2174   XXXZ      -7.1964
      XXYZ       0.2198   XYYZ       2.2147   YYYZ      -0.4112
      XXZZ    -126.6961   XYZZ       1.0835   YYZZ    -122.9517
      XZZZ       9.0625   YZZZ       0.0785   ZZZZ    -345.8846
 -----------------------------------------------------------------
 Total job time:  456.86s(wall), 455.72s(cpu) 
 Mon Jul  8 17:07:26 2013

        *************************************************************
        *                                                           *
        *  Thank you very much for using Q-Chem.  Have a nice day.  *
        *                                                           *
        *************************************************************


0 sent ACK to 0 
now end server 0 ... 
 
**********************************************************************
Job 2 of 3 
**********************************************************************
 
Process 0 of 1 is on cl116.stfx.acenet.ca - thread support 1
initial socket setup ...start
initial socket setup ...done 
now start server 0 ... 

cmd = /usr/bin/ssh clhead /usr/local/qchem/bin/get_hostid 528450250 > /scratch/tmp/6065329.1.short.q/qchem7953/lic.dat
                  Welcome to Q-Chem
     A Quantum Leap Into The Future Of Chemistry

 Y. Shao, L. Fusti-Molnar, Y. Jung, J. Kussmann, C. Ochsenfeld,
 S. T. Brown, A. T. B. Gilbert, L. V. Slipchenko,S. V. Levchenko,
 D. P. O'Neill, R. A. DiStasio Jr., R. C. Lochan, T. Wang,
 G. J. O. Beran, N. A. Besley, J. M. Herbert, C. Y. Lin,
 T. Van Voorhis, S. H. Chien, A. Sodt, R. P. Steele, 
 V. A. Rassolov, P. E. Maslen, P. P. Korambath, R. D. Adamson,
 B. Austin, J. Baker, E. F. C. Byrd, H. Dachsel, R. J. Doerksen,
 A. Dreuw, B. D. Dunietz, A. D. Dutoi, T. R. Furlani,
 S. R. Gwaltney, A. Heyden, S. Hirata, C.-P. Hsu, G. Kedziora,
 R. Z. Khaliullin, P. Klunzinger, A. M. Lee, M. S. Lee, W. Liang,
 I. Lotan, N. Nair, B. Peters, E. I. Proynov, P. A. Pieniazek, 
 Y. M. Rhee, J. Ritchie, E. Rosta, C. D. Sherrill, 
 A. C. Simmonett, J. E. Subotnik, H. L. Woodcock III,
 W. Zhang, A. T. Bell, A. K. Chakraborty, D. M. Chipman,
 F. J. Keil, A. Warshel, W. J. Hehre, H. F. Schaefer III,
 J. Kong, A. I. Krylov, P. M. W. Gill, M. Head-Gordon,
 Q-Chem, Version 3.1, Q-Chem, Inc., Pittsburgh, PA (2007).

 Additional authors for Version 3.1: 
 Z. Gan, Y. Zhao, N. E. Schultz, D. Truhlar, E. Epifanovsky and M. Oana.

 Additional authors for Version 3.2: 
 R. Baer, B. R. Brooks, D. Casanova, J.-D. Chai, C.-L. Cheng, 
 C. Cramer, D. Crittenden, A. Ghysels, G. Hawkins, E. G. Hohenstein, 
 C. Kelley, W. Kurlancheek, D. Liotard, E. Livshits, P. Manohar, 
 A. Marenich, D. Neuhauser, R. Olson, M. A. Rohrdanz, K. S. Thanthiriwatte, 
 A. J. W. Thom, V. Vanovschi, C. F. Williams, Q. Wu and Z.-Q. You. 


 Intel X86 Linux Version

 Q-chem begins on Mon Jul  8 17:07:29 2013  

 Parallel job on  1  processors
Processing $rem in /usr/local/qchem/config/preferences.

theFileMan(): MAXOPENFILES=974 MAX_SUB_FILE_NUM=16
Maximum size of a physical file is 2.0 GB, maximum size of a tmp-file is 32.0 GB


--------------------------------------------------------------
User input:
--------------------------------------------------------------

$molecule
0,1
N          1.39192        0.00000        1.00000
C         -1.39471        0.00000        1.00000
C          0.69930        1.13676        1.00000
C          0.69930       -1.13676        1.00000
C         -0.68721       -1.19125        1.00000
C         -0.68721        1.19125        1.00000
H         -2.48184        0.00000        1.00000
H          1.28587        2.05509        1.00000
H          1.28587       -2.05509        1.00000
H         -1.19648       -2.15056        1.00000
H         -1.19648        2.15056        1.00000
$end

$comment
neutral
$end

$xc_functional
C PBE   1.00
X wPBE  1.00
$end


$rem
SYMMETRY_DECOMPOSITION	0
LRC_DFT                 true
exchange 		general
BASIS                   g3large
omega			320
mem_static              760
max_scf_cycles          200
scf_final_print         1
sym_ignore              true
$end

--------------------------------------------------------------
 Writing REM_CC_EA           11
 ----------------------------------------------------
       Standard Nuclear Orientation (Angstroms)
    I     Atom         X            Y            Z
 ----------------------------------------------------
    1      N       1.391920     0.000000     1.000000
    2      C      -1.394710     0.000000     1.000000
    3      C       0.699300     1.136760     1.000000
    4      C       0.699300    -1.136760     1.000000
    5      C      -0.687210    -1.191250     1.000000
    6      C      -0.687210     1.191250     1.000000
    7      H      -2.481840     0.000000     1.000000
    8      H       1.285870     2.055090     1.000000
    9      H       1.285870    -2.055090     1.000000
   10      H      -1.196480    -2.150560     1.000000
   11      H      -1.196480     2.150560     1.000000
 ----------------------------------------------------
 Nuclear Repulsion Energy =   206.9509065727 hartrees
 There are       21 alpha and       21 beta electrons
 Requested basis set is G3large
 There are 90 shells and 302 basis functions

Total QAlloc Memory Limit   2000 MB
Mega-Array Size       743 MB
MEM_STATIC part       760 MB

                       Distance Matrix (Angstroms)
             N (  1)   C (  2)   C (  3)   C (  4)   C (  5)   C (  6)
   C (  2)  2.786630
   C (  3)  1.331145  2.382667
   C (  4)  1.331145  2.382667  2.273520
   C (  5)  2.396217  1.385508  2.709620  1.387580
   C (  6)  2.396217  1.385508  1.387580  2.709620  2.382500
   H (  7)  3.873760  1.087130  3.378147  3.378147  2.154013  2.154013
   H (  8)  2.057824  3.377707  1.089676  3.245300  3.798917  2.153895
   H (  9)  2.057824  3.377707  3.245300  1.089676  2.153895  3.798917
   H ( 10)  3.365223  2.159677  3.794793  2.149831  1.086108  3.380392
   H ( 11)  3.365223  2.159677  2.149831  3.794793  3.380392  1.086108
             H (  7)   H (  8)   H (  9)   H ( 10)
   H (  8)  4.291740
   H (  9)  4.291740  4.110180
   H ( 10)  2.505406  4.883600  2.484185
   H ( 11)  2.505406  2.484185  4.883600  4.301120
 
 A cutoff of  1.0D-08 yielded   3663 shell pairs
 There are  42102 function pairs ( 53042 Cartesian)
Evaluating contribution to one-electron hamiltonian from nuclear
 Smallest overlap matrix eigenvalue = 6.37E-06

 Q-Chem warning in module mkSTV.C, line 194:

 Overlap eigenvalue is smaller than square root of threshold

 Multipole matrices computed through 2nd order

  Scale SEOQF with 1.000000e-01/1.000000e-01/1.000000e-01

 Standard Electronic Orientation quadrupole field applied
 Nucleus-field energy     =     0.0000000008 hartrees
 Guess from superposition of atomic densities
 Warning:  Energy on first SCF cycle will be non-variational
 Long-range K will be added via erf
 Coulomb attenuation parameter = 0.32 bohr**(-1)
 A restricted Kohn-Sham SCF calculation will be
 performed using Pulay DIIS extrapolation
 Exchange:  wPBE + LR-HF      Correlation:  PBE
 Using SG-1 standard quadrature grid
 SCF converges when DIIS error is below 1.0E-05
 Requested basis set is G3large
 There are 90 shells and 302 basis functions
 A cutoff of  1.0D-08 yielded   3663 shell pairs
 There are  42102 function pairs ( 53042 Cartesian)
 ---------------------------------------
  Cycle       Energy         DIIS Error
 ---------------------------------------
    1    -250.1064329836      2.87E-02
    2    -248.0655725718      2.48E-03
    3    -248.1063930137      1.85E-03
    4    -248.1368991497      4.61E-04
    5    -248.1387011556      1.57E-04
    6    -248.1389851026      4.80E-05
    7    -248.1390068100      1.39E-05
    8    -248.1390570474      4.38E-06 Convergence criterion met
 ---------------------------------------
 One-Electron    Energy =  -743.6022090182
 Total Coulomb   Energy =   324.2234030850
 Alpha Exchange  Energy =    -3.4644277653
 Beta  Exchange  Energy =    -3.4644277653
 DFT   Exchange  Energy =   -27.3957483767
 DFT Correlation Energy =    -1.3865537805
 Nuclear Repu.   Energy =   206.9509065735
 Nuclear Attr.   Energy =  -990.7311169454
 Kinetic         Energy =   247.1289079272
 SCF time:  CPU 304.86 s  wall 305.84 s
 Final Alpha MO Eigenvalues
            1           2           3           4           5           6
    1 -14.1560168 -10.0980947 -10.0979804 -10.0861547 -10.0746093 -10.0745829
            7           8           9          10          11          12
    1  -1.0542695  -0.9197177  -0.8768164  -0.7418351  -0.7398797  -0.6446184
           13          14          15          16          17          18
    1  -0.5891042  -0.5749547  -0.5335243  -0.5232867  -0.5075668  -0.4630854
           19          20          21          22          23          24
    1  -0.3937047  -0.3658725  -0.3566799   0.0347635   0.0372451   0.0444414
           25          26
    1   0.0508562   0.0509038
 Analysis of SCF Wavefunction
 
 --------------------------------------------------------------
                    Orbital Energies (a.u.)
 --------------------------------------------------------------
 
 Alpha MOs
 -- Occupied --
-14.156 -10.098 -10.098 -10.086 -10.075 -10.075  -1.054  -0.920
 -0.877  -0.742  -0.740  -0.645  -0.589  -0.575  -0.534  -0.523
 -0.508  -0.463  -0.394  -0.366  -0.357
 -- Virtual --
  0.035   0.037   0.044   0.051   0.051   0.065   0.075   0.107
  0.117   0.133   0.136   0.139   0.144   0.163   0.165   0.168
  0.172   0.181   0.189   0.198   0.198   0.203   0.206   0.207
  0.241   0.247   0.264   0.271   0.289   0.308   0.310   0.333
  0.341   0.357   0.360   0.365   0.375   0.401   0.425   0.434
  0.435   0.522   0.538   0.562   0.597   0.605   0.608   0.611
  0.613   0.640   0.647   0.656   0.686   0.690   0.699   0.701
  0.704   0.738   0.742   0.775   0.779   0.794   0.801   0.815
  0.840   0.844   0.865   0.874   0.877   0.885   0.898   0.904
  0.922   0.981   1.006   1.021   1.043   1.044   1.099   1.127
  1.137   1.149   1.191   1.203   1.218   1.257   1.265   1.288
  1.363   1.366   1.367   1.401   1.415   1.421   1.446   1.446
  1.480   1.493   1.496   1.504   1.535   1.539   1.579   1.677
  1.744   1.756   1.797   1.835   1.840   1.880   1.952   1.957
  2.067   2.078   2.139   2.166   2.315   2.582   2.582   2.639
  2.658   2.672   2.695   2.737   2.754   2.769   2.780   2.820
  2.850   2.870   2.877   2.884   2.907   2.909   2.916   2.936
  2.953   2.957   3.002   3.075   3.089   3.143   3.174   3.195
  3.195   3.200   3.250   3.252   3.254   3.261   3.290   3.317
  3.325   3.339   3.366   3.386   3.410   3.419   3.448   3.465
  3.477   3.501   3.520   3.536   3.564   3.633   3.638   3.647
  3.682   3.684   3.710   3.753   3.785   3.835   3.877   3.895
  3.901   3.906   3.954   3.975   4.014   4.055   4.073   4.109
  4.141   4.174   4.187   4.204   4.231   4.335   4.354   4.360
  4.451   4.459   4.461   4.523   4.569   4.571   4.606   4.611
  4.659   4.670   4.684   4.813   4.884   4.949   5.035   5.112
  5.114   5.148   5.182   5.196   5.324   5.327   5.353   5.420
  5.534   5.577   5.756   5.770   5.829   5.919   6.017   6.048
  6.165   6.267   6.860  23.856  24.227  24.437  24.626  24.905
 27.187  27.264  27.310  27.382  27.556  27.916  28.037  28.059
 28.199  28.229  28.242  28.418  28.431  28.481  28.783  35.899
 37.443  37.865  38.480  40.532  40.602  40.624  40.666  40.762
 40.796  40.837  40.855  40.923  40.933  40.990  41.019  41.030
 41.056  41.074  41.098  41.099  41.113  41.126  41.147  41.151
 41.156  41.165  41.170  41.174  41.211  41.306  41.348  41.385
 41.468
 --------------------------------------------------------------
 
          Ground-State Mulliken Net Atomic Charges

     Atom                 Charge (a.u.)
  ----------------------------------------
      1 N                    -0.204591
      2 C                    -0.167011
      3 C                    -0.184135
      4 C                    -0.184739
      5 C                    -0.029391
      6 C                    -0.030047
      7 H                     0.167007
      8 H                     0.163283
      9 H                     0.163271
     10 H                     0.153197
     11 H                     0.153156
  ----------------------------------------
  Sum of atomic charges =     0.000000

 -----------------------------------------------------------------
                    Cartesian Multipole Moments
 -----------------------------------------------------------------
    Charge (ESU x 10^10)
                 0.0000
    Dipole Moment (Debye)
         X      -2.3122      Y       0.0011      Z       0.0000
       Tot       2.3122
    Quadrupole Moments (Debye-Ang)
        XX     -36.2471     XY       0.0011     YY     -29.1549
        XZ      -2.3122     YZ       0.0011     ZZ     -37.7541
    Octapole Moments (Debye-Ang^2)
       XXX     -14.3286    XXY      -0.0011    XYY       2.4869
       YYY       0.0023    XXZ     -36.2469    XYZ       0.0011
       YYZ     -29.1549    XZZ      -0.3961    YZZ       0.0020
       ZZZ    -113.2625
    Hexadecapole Moments (Debye-Ang^3)
      XXXX    -284.5581   XXXY       0.0014   XXYY     -79.8195
      XYYY       0.0052   YYYY    -249.5146   XXXZ     -14.3289
      XXYZ      -0.0010   XYYZ       2.4867   YYYZ       0.0026
      XXZZ     -93.5075   XYZZ       0.0021   YYZZ     -87.8084
      XZZZ       3.4363   YZZZ       0.0035   ZZZZ    -268.9371
 -----------------------------------------------------------------
 Total job time:  306.32s(wall), 305.33s(cpu) 
 Mon Jul  8 17:12:35 2013

        *************************************************************
        *                                                           *
        *  Thank you very much for using Q-Chem.  Have a nice day.  *
        *                                                           *
        *************************************************************


0 sent ACK to 0 
now end server 0 ... 
 
**********************************************************************
Job 3 of 3 
**********************************************************************
 
Process 0 of 1 is on cl116.stfx.acenet.ca - thread support 1
initial socket setup ...start
initial socket setup ...done 
now start server 0 ... 

cmd = /usr/bin/ssh clhead /usr/local/qchem/bin/get_hostid 2108198916 > /scratch/tmp/6065329.1.short.q/qchem7953/lic.dat
                  Welcome to Q-Chem
     A Quantum Leap Into The Future Of Chemistry

 Y. Shao, L. Fusti-Molnar, Y. Jung, J. Kussmann, C. Ochsenfeld,
 S. T. Brown, A. T. B. Gilbert, L. V. Slipchenko,S. V. Levchenko,
 D. P. O'Neill, R. A. DiStasio Jr., R. C. Lochan, T. Wang,
 G. J. O. Beran, N. A. Besley, J. M. Herbert, C. Y. Lin,
 T. Van Voorhis, S. H. Chien, A. Sodt, R. P. Steele, 
 V. A. Rassolov, P. E. Maslen, P. P. Korambath, R. D. Adamson,
 B. Austin, J. Baker, E. F. C. Byrd, H. Dachsel, R. J. Doerksen,
 A. Dreuw, B. D. Dunietz, A. D. Dutoi, T. R. Furlani,
 S. R. Gwaltney, A. Heyden, S. Hirata, C.-P. Hsu, G. Kedziora,
 R. Z. Khaliullin, P. Klunzinger, A. M. Lee, M. S. Lee, W. Liang,
 I. Lotan, N. Nair, B. Peters, E. I. Proynov, P. A. Pieniazek, 
 Y. M. Rhee, J. Ritchie, E. Rosta, C. D. Sherrill, 
 A. C. Simmonett, J. E. Subotnik, H. L. Woodcock III,
 W. Zhang, A. T. Bell, A. K. Chakraborty, D. M. Chipman,
 F. J. Keil, A. Warshel, W. J. Hehre, H. F. Schaefer III,
 J. Kong, A. I. Krylov, P. M. W. Gill, M. Head-Gordon,
 Q-Chem, Version 3.1, Q-Chem, Inc., Pittsburgh, PA (2007).

 Additional authors for Version 3.1: 
 Z. Gan, Y. Zhao, N. E. Schultz, D. Truhlar, E. Epifanovsky and M. Oana.

 Additional authors for Version 3.2: 
 R. Baer, B. R. Brooks, D. Casanova, J.-D. Chai, C.-L. Cheng, 
 C. Cramer, D. Crittenden, A. Ghysels, G. Hawkins, E. G. Hohenstein, 
 C. Kelley, W. Kurlancheek, D. Liotard, E. Livshits, P. Manohar, 
 A. Marenich, D. Neuhauser, R. Olson, M. A. Rohrdanz, K. S. Thanthiriwatte, 
 A. J. W. Thom, V. Vanovschi, C. F. Williams, Q. Wu and Z.-Q. You. 


 Intel X86 Linux Version

 Q-chem begins on Mon Jul  8 17:12:38 2013  

 Parallel job on  1  processors
Processing $rem in /usr/local/qchem/config/preferences.

theFileMan(): MAXOPENFILES=974 MAX_SUB_FILE_NUM=16
Maximum size of a physical file is 2.0 GB, maximum size of a tmp-file is 32.0 GB


--------------------------------------------------------------
User input:
--------------------------------------------------------------

$molecule
1,2
N          1.39192        0.00000        1.00000
C         -1.39471        0.00000        1.00000
C          0.69930        1.13676        1.00000
C          0.69930       -1.13676        1.00000
C         -0.68721       -1.19125        1.00000
C         -0.68721        1.19125        1.00000
H         -2.48184        0.00000        1.00000
H          1.28587        2.05509        1.00000
H          1.28587       -2.05509        1.00000
H         -1.19648       -2.15056        1.00000
H         -1.19648        2.15056        1.00000
$end

$comment
positive
$end

$xc_functional
C PBE   1.00
X wPBE  1.00
$end

$rem
SYMMETRY_DECOMPOSITION	0
LRC_DFT                 true
exchange 		general
BASIS                   g3large
omega			320
mem_static              760
max_scf_cycles          200
scf_final_print         1
sym_ignore              true
$end

--------------------------------------------------------------
 Writing REM_CC_EA           11
 ----------------------------------------------------
       Standard Nuclear Orientation (Angstroms)
    I     Atom         X            Y            Z
 ----------------------------------------------------
    1      N       1.391920     0.000000     1.000000
    2      C      -1.394710     0.000000     1.000000
    3      C       0.699300     1.136760     1.000000
    4      C       0.699300    -1.136760     1.000000
    5      C      -0.687210    -1.191250     1.000000
    6      C      -0.687210     1.191250     1.000000
    7      H      -2.481840     0.000000     1.000000
    8      H       1.285870     2.055090     1.000000
    9      H       1.285870    -2.055090     1.000000
   10      H      -1.196480    -2.150560     1.000000
   11      H      -1.196480     2.150560     1.000000
 ----------------------------------------------------
 Nuclear Repulsion Energy =   206.9509065727 hartrees
 There are       21 alpha and       20 beta electrons
 Requested basis set is G3large
 There are 90 shells and 302 basis functions

Total QAlloc Memory Limit   2000 MB
Mega-Array Size       743 MB
MEM_STATIC part       760 MB

                       Distance Matrix (Angstroms)
             N (  1)   C (  2)   C (  3)   C (  4)   C (  5)   C (  6)
   C (  2)  2.786630
   C (  3)  1.331145  2.382667
   C (  4)  1.331145  2.382667  2.273520
   C (  5)  2.396217  1.385508  2.709620  1.387580
   C (  6)  2.396217  1.385508  1.387580  2.709620  2.382500
   H (  7)  3.873760  1.087130  3.378147  3.378147  2.154013  2.154013
   H (  8)  2.057824  3.377707  1.089676  3.245300  3.798917  2.153895
   H (  9)  2.057824  3.377707  3.245300  1.089676  2.153895  3.798917
   H ( 10)  3.365223  2.159677  3.794793  2.149831  1.086108  3.380392
   H ( 11)  3.365223  2.159677  2.149831  3.794793  3.380392  1.086108
             H (  7)   H (  8)   H (  9)   H ( 10)
   H (  8)  4.291740
   H (  9)  4.291740  4.110180
   H ( 10)  2.505406  4.883600  2.484185
   H ( 11)  2.505406  2.484185  4.883600  4.301120
 
 A cutoff of  1.0D-08 yielded   3663 shell pairs
 There are  42102 function pairs ( 53042 Cartesian)
Evaluating contribution to one-electron hamiltonian from nuclear
 Smallest overlap matrix eigenvalue = 6.37E-06

 Q-Chem warning in module mkSTV.C, line 194:

 Overlap eigenvalue is smaller than square root of threshold

 Multipole matrices computed through 2nd order

  Scale SEOQF with 1.000000e-01/1.000000e-01/1.000000e-01

 Standard Electronic Orientation quadrupole field applied
 Nucleus-field energy     =     0.0000000008 hartrees
 Guess from superposition of atomic densities
 Warning:  Energy on first SCF cycle will be non-variational
 Long-range K will be added via erf
 Coulomb attenuation parameter = 0.32 bohr**(-1)
 An unrestricted Kohn-Sham SCF calculation will be
 performed using Pulay DIIS extrapolation
 Exchange:  wPBE + LR-HF      Correlation:  PBE
 Using SG-1 standard quadrature grid
 SCF converges when DIIS error is below 1.0E-05
 Requested basis set is G3large
 There are 90 shells and 302 basis functions
 A cutoff of  1.0D-08 yielded   3663 shell pairs
 There are  42102 function pairs ( 53042 Cartesian)
 Warning!  Inaccurate integrated density:
   Number of electrons =    41
   Numerical integral  =    42.000577100364
   Relative error      =     2.4404319521 %
 ---------------------------------------
  Cycle       Energy         DIIS Error
 ---------------------------------------
    1    -250.1064329836      2.87E-02
    2    -247.7122320341      2.11E-03
    3    -247.7406597595      1.78E-03
    4    -247.7767061430      6.64E-04
    5    -247.7828090830      1.82E-04
    6    -247.7840082091      1.18E-04
    7    -247.7847119161      4.87E-05
    8    -247.7850924638      2.96E-05
    9    -247.7851431783      6.40E-06 Convergence criterion met
 ---------------------------------------
 One-Electron    Energy =  -733.4937810893
 Total Coulomb   Energy =   314.1252716646
 Alpha Exchange  Energy =    -3.4782455629
 Beta  Exchange  Energy =    -3.2993183553
 DFT   Exchange  Energy =   -27.2426325632
 DFT Correlation Energy =    -1.3473438457
 Nuclear Repu.   Energy =   206.9509065735
 Nuclear Attr.   Energy =  -980.2422721139
 Kinetic         Energy =   246.7484910246
 <S^2> = 0.7571
 SCF time:  CPU 462.30 s  wall 463.00 s
 Final Alpha MO Eigenvalues
            1           2           3           4           5           6
    1 -14.5031605 -10.3487837 -10.3485391 -10.3024355 -10.3010749 -10.3009916
            7           8           9          10          11          12
    1  -1.3383396  -1.1524679  -1.1174625  -0.9874013  -0.9712266  -0.8841079
           13          14          15          16          17          18
    1  -0.8324473  -0.7907497  -0.7799543  -0.7627830  -0.7605108  -0.6864726
           19          20          21          22          23          24
    1  -0.6642180  -0.6307323  -0.5900244  -0.1973811  -0.1625900  -0.0929561
           25          26
    1  -0.0725472  -0.0692358
 Final Beta MO Eigenvalues
            1           2           3           4           5           6
    1 -14.4861973 -10.3482182 -10.3480162 -10.3028954 -10.2995437 -10.2994553
            7           8           9          10          11          12
    1  -1.3157971  -1.1438699  -1.1116208  -0.9784657  -0.9589975  -0.8631390
           13          14          15          16          17          18
    1  -0.8228573  -0.7837775  -0.7690813  -0.7491374  -0.7132492  -0.6819156
           19          20          21          22          23          24
    1  -0.6239496  -0.5895270  -0.3463411  -0.1894555  -0.1630289  -0.0921860
           25
    1  -0.0722154
 Analysis of SCF Wavefunction
 
 --------------------------------------------------------------
                    Orbital Energies (a.u.)
 --------------------------------------------------------------
 
 Alpha MOs
 -- Occupied --
-14.503 -10.349 -10.349 -10.302 -10.301 -10.301  -1.338  -1.152
 -1.117  -0.987  -0.971  -0.884  -0.832  -0.791  -0.780  -0.763
 -0.761  -0.686  -0.664  -0.631  -0.590
 -- Virtual --
 -0.197  -0.163  -0.093  -0.073  -0.069  -0.047  -0.046  -0.040
 -0.035  -0.009  -0.005  -0.003   0.007   0.010   0.023   0.034
  0.038   0.040   0.047   0.049   0.052   0.059   0.063   0.073
  0.080   0.113   0.113   0.124   0.130   0.133   0.138   0.157
  0.162   0.172   0.176   0.188   0.194   0.226   0.249   0.252
  0.257   0.309   0.356   0.368   0.396   0.411   0.419   0.420
  0.430   0.431   0.444   0.448   0.494   0.504   0.509   0.517
  0.519   0.522   0.556   0.575   0.586   0.591   0.612   0.616
  0.662   0.665   0.667   0.668   0.682   0.683   0.687   0.699
  0.702   0.740   0.784   0.800   0.833   0.848   0.901   0.932
  0.940   0.940   0.985   0.998   1.007   1.066   1.075   1.077
  1.141   1.155   1.166   1.203   1.213   1.220   1.232   1.247
  1.249   1.274   1.280   1.286   1.334   1.334   1.387   1.466
  1.504   1.544   1.594   1.599   1.629   1.666   1.727   1.733
  1.866   1.867   1.899   1.899   2.044   2.351   2.377   2.416
  2.429   2.458   2.471   2.519   2.528   2.543   2.566   2.601
  2.631   2.633   2.658   2.661   2.685   2.691   2.693   2.716
  2.722   2.737   2.769   2.839   2.851   2.885   2.944   2.950
  2.968   2.974   3.017   3.020   3.026   3.041   3.069   3.084
  3.097   3.110   3.148   3.165   3.167   3.187   3.224   3.237
  3.249   3.278   3.281   3.312   3.348   3.387   3.404   3.414
  3.435   3.451   3.471   3.526   3.544   3.612   3.660   3.668
  3.672   3.689   3.690   3.758   3.785   3.809   3.845   3.854
  3.934   3.944   3.948   3.990   4.004   4.082   4.126   4.135
  4.191   4.228   4.240   4.297   4.340   4.342   4.377   4.389
  4.433   4.441   4.461   4.560   4.646   4.702   4.794   4.829
  4.845   4.853   4.932   4.959   5.013   5.058   5.077   5.151
  5.262   5.337   5.493   5.503   5.568   5.667   5.753   5.756
  5.891   6.042   6.584  23.630  23.992  24.202  24.384  24.674
 26.957  27.023  27.077  27.149  27.329  27.685  27.803  27.822
 27.967  27.987  27.998  28.191  28.204  28.248  28.552  35.556
 37.104  37.502  38.143  40.182  40.247  40.290  40.323  40.421
 40.560  40.594  40.628  40.675  40.706  40.765  40.771  40.807
 40.816  40.834  40.865  40.866  40.873  40.883  40.916  40.920
 40.927  40.930  40.931  40.949  40.987  41.063  41.112  41.127
 41.245
 
 Beta MOs
 -- Occupied --
-14.486 -10.348 -10.348 -10.303 -10.300 -10.299  -1.316  -1.144
 -1.112  -0.978  -0.959  -0.863  -0.823  -0.784  -0.769  -0.749
 -0.713  -0.682  -0.624  -0.590
 -- Virtual --
 -0.346  -0.189  -0.163  -0.092  -0.072  -0.068  -0.047  -0.044
 -0.040  -0.034  -0.007  -0.003  -0.003   0.010   0.010   0.025
  0.034   0.039   0.041   0.048   0.049   0.052   0.060   0.064
  0.073   0.081   0.117   0.117   0.124   0.131   0.135   0.140
  0.160   0.170   0.174   0.181   0.196   0.197   0.233   0.254
  0.255   0.259   0.311   0.361   0.372   0.403   0.416   0.420
  0.420   0.432   0.436   0.449   0.451   0.495   0.505   0.514
  0.520   0.520   0.523   0.557   0.576   0.590   0.593   0.616
  0.619   0.664   0.668   0.668   0.670   0.685   0.688   0.691
  0.700   0.712   0.756   0.807   0.813   0.840   0.850   0.903
  0.933   0.941   0.943   0.990   0.999   1.010   1.069   1.079
  1.082   1.148   1.164   1.169   1.205   1.217   1.223   1.235
  1.249   1.266   1.274   1.288   1.293   1.336   1.338   1.390
  1.469   1.522   1.551   1.602   1.603   1.631   1.669   1.742
  1.745   1.869   1.869   1.912   1.924   2.070   2.355   2.378
  2.420   2.433   2.462   2.478   2.519   2.528   2.546   2.568
  2.606   2.634   2.640   2.663   2.665   2.692   2.692   2.694
  2.718   2.728   2.738   2.775   2.843   2.858   2.892   2.952
  2.960   2.969   2.977   3.021   3.025   3.029   3.043   3.073
  3.094   3.103   3.114   3.152   3.170   3.180   3.194   3.228
  3.246   3.250   3.279   3.287   3.316   3.351   3.398   3.417
  3.419   3.444   3.457   3.480   3.529   3.556   3.618   3.662
  3.674   3.676   3.693   3.701   3.762   3.793   3.822   3.851
  3.868   3.939   3.953   3.959   3.994   4.009   4.100   4.136
  4.142   4.202   4.234   4.243   4.301   4.346   4.350   4.382
  4.391   4.436   4.448   4.464   4.577   4.654   4.719   4.802
  4.839   4.886   4.924   4.936   4.963   5.049   5.093   5.093
  5.176   5.285   5.351   5.521   5.530   5.586   5.685   5.772
  5.783   5.915   6.051   6.604  23.631  23.994  24.202  24.385
 24.675  26.958  27.023  27.076  27.149  27.329  27.687  27.805
 27.823  27.968  27.987  27.999  28.193  28.206  28.249  28.554
 35.574  37.117  37.545  38.154  40.212  40.281  40.296  40.344
 40.450  40.562  40.597  40.628  40.674  40.707  40.766  40.770
 40.807  40.816  40.836  40.866  40.866  40.873  40.883  40.918
 40.923  40.931  40.932  40.933  40.949  40.989  41.065  41.115
 41.131  41.246
 --------------------------------------------------------------
 
          Ground-State Mulliken Net Atomic Charges

     Atom                 Charge (a.u.)    Spin (a.u.)
  --------------------------------------------------------
      1 N                     0.158573       0.803882
      2 C                    -0.100165      -0.042657
      3 C                    -0.133811      -0.004874
      4 C                    -0.133172      -0.006131
      5 C                     0.058124       0.084758
      6 C                     0.057612       0.084038
      7 H                     0.217275       0.010224
      8 H                     0.229288       0.026118
      9 H                     0.229452       0.027695
     10 H                     0.208426       0.008239
     11 H                     0.208397       0.008708
  --------------------------------------------------------
  Sum of atomic charges =     1.000000
  Sum of spin   charges =     1.000000

 -----------------------------------------------------------------
                    Cartesian Multipole Moments
 -----------------------------------------------------------------
    Charge (ESU x 10^10)
                 4.8032
    Dipole Moment (Debye)
         X      -0.0249      Y      -0.0039      Z       4.8055
       Tot       4.8056
    Quadrupole Moments (Debye-Ang)
        XX     -20.5890     XY      -0.0068     YY     -18.2355
        XZ      -0.0180     YZ       0.0013     ZZ     -29.8886
    Octapole Moments (Debye-Ang^2)
       XXX      -3.5446    XXY      -0.0068    XYY       3.2455
       YYY      -0.0155    XXZ     -20.5740    XYZ      -0.0047
       YYZ     -18.2370    XZZ       2.0749    YZZ       0.0070
       ZZZ     -99.2768
    Hexadecapole Moments (Debye-Ang^3)
      XXXX    -197.7498   XXXY      -0.0145   XXYY     -57.2603
      XYYY      -0.0363   YYYY    -184.2836   XXXZ      -3.5073
      XXYZ       0.0104   XYYZ       3.2401   YYYZ       0.0274
      XXZZ     -69.4121   XYZZ      -0.0043   YYZZ     -70.1121
      XZZZ       6.2599   YZZZ       0.0192   ZZZZ    -238.2196
 -----------------------------------------------------------------
 Total job time:  463.48s(wall), 462.78s(cpu) 
 Mon Jul  8 17:20:21 2013

        *************************************************************
        *                                                           *
        *  Thank you very much for using Q-Chem.  Have a nice day.  *
        *                                                           *
        *************************************************************


0 sent ACK to 0 
now end server 0 ... 
