Process 0 of 1 is on cl253.stfx.acenet.ca - thread support 1
initial socket setup ...start
initial socket setup ...done 
now start server 0 ... 

cmd = /usr/bin/ssh clhead /usr/local/qchem/bin/get_hostid 339238943 > /scratch/tmp/4506625.1.long.q/qchem13103/lic.dat
                  Welcome to Q-Chem
     A Quantum Leap Into The Future Of Chemistry

 Y. Shao, L. Fusti-Molnar, Y. Jung, J. Kussmann, C. Ochsenfeld,
 S. T. Brown, A. T. B. Gilbert, L. V. Slipchenko,S. V. Levchenko,
 D. P. O'Neill, R. A. DiStasio Jr., R. C. Lochan, T. Wang,
 G. J. O. Beran, N. A. Besley, J. M. Herbert, C. Y. Lin,
 T. Van Voorhis, S. H. Chien, A. Sodt, R. P. Steele, 
 V. A. Rassolov, P. E. Maslen, P. P. Korambath, R. D. Adamson,
 B. Austin, J. Baker, E. F. C. Byrd, H. Dachsel, R. J. Doerksen,
 A. Dreuw, B. D. Dunietz, A. D. Dutoi, T. R. Furlani,
 S. R. Gwaltney, A. Heyden, S. Hirata, C.-P. Hsu, G. Kedziora,
 R. Z. Khaliullin, P. Klunzinger, A. M. Lee, M. S. Lee, W. Liang,
 I. Lotan, N. Nair, B. Peters, E. I. Proynov, P. A. Pieniazek, 
 Y. M. Rhee, J. Ritchie, E. Rosta, C. D. Sherrill, 
 A. C. Simmonett, J. E. Subotnik, H. L. Woodcock III,
 W. Zhang, A. T. Bell, A. K. Chakraborty, D. M. Chipman,
 F. J. Keil, A. Warshel, W. J. Hehre, H. F. Schaefer III,
 J. Kong, A. I. Krylov, P. M. W. Gill, M. Head-Gordon,
 Q-Chem, Version 3.1, Q-Chem, Inc., Pittsburgh, PA (2007).

 Additional authors for Version 3.1: 
 Z. Gan, Y. Zhao, N. E. Schultz, D. Truhlar, E. Epifanovsky and M. Oana.

 Additional authors for Version 3.2: 
 R. Baer, B. R. Brooks, D. Casanova, J.-D. Chai, C.-L. Cheng, 
 C. Cramer, D. Crittenden, A. Ghysels, G. Hawkins, E. G. Hohenstein, 
 C. Kelley, W. Kurlancheek, D. Liotard, E. Livshits, P. Manohar, 
 A. Marenich, D. Neuhauser, R. Olson, M. A. Rohrdanz, K. S. Thanthiriwatte, 
 A. J. W. Thom, V. Vanovschi, C. F. Williams, Q. Wu and Z.-Q. You. 


 Intel X86 Linux Version

 Q-chem begins on Sat Apr 23 14:50:36 2011  

 Parallel job on  1  processors
Processing $rem in /usr/local/qchem/config/preferences.

theFileMan(): MAXOPENFILES=974 MAX_SUB_FILE_NUM=16
Maximum size of a physical file is 2.0 GB, maximum size of a tmp-file is 32.0 GB


--------------------------------------------------------------
User input:
--------------------------------------------------------------

$molecule
0,1
C
C,1,CCS
X,2,1.00000,1,90.00000
C,2,CCT,3,90.00000,1,180.00000,0
X,4,1.00000,2,90.00000,3,0.00000,0
C,4,CCS,5,90.00000,2,180.00000,0
H,1,CH,2,HCC,3,0.00000,0
H,1,CH,2,HCC,3,120.00000,0
H,1,CH,2,HCC,3,-120.00000,0
H,6,CH,4,HCC,7,0.00000,0
H,6,CH,4,HCC,7,120.00000,0
H,6,CH,4,HCC,7,-120.00000,0

CCS=1.46150625
CCT=1.20917083
CH=1.09706726
HCC=111.38649086

$end

$comment
neutral
$end

$xc_functional
   X HF 1.0
   X BNL 1.0
   C LYP 1.0
$end

$rem
SYMMETRY_DECOMPOSITION	0
exchange 		general
BASIS                   g3large
omega			350 
JOBTYPE                 opt
separate_jk		true
mem_static              760
max_scf_cycles          200
scf_final_print         1
sym_ignore              true
$end


--------------------------------------------------------------
 Writing REM_CC_EA           10
 ----------------------------------------------------
       Standard Nuclear Orientation (Angstroms)
    I     Atom         X            Y            Z
 ----------------------------------------------------
    1      C       0.000000     0.000000     0.000000
    2      C       0.000000     0.000000     1.461506
    3      C       0.000000     0.000000     2.670677
    4      C       0.000000     0.000000     4.132183
    5      H       1.021525     0.000000    -0.400054
    6      H      -0.510763    -0.884667    -0.400054
    7      H      -0.510763     0.884667    -0.400054
    8      H       1.021525     0.000000     4.532237
    9      H      -0.510763     0.884667     4.532237
   10      H      -0.510763    -0.884667     4.532237
 ----------------------------------------------------
 Nuclear Repulsion Energy =    99.7467788106 hartrees
 There are       15 alpha and       15 beta electrons
 Requested basis set is G3large
 There are 76 shells and 228 basis functions

Total QAlloc Memory Limit   2000 MB
Mega-Array Size       743 MB
MEM_STATIC part       760 MB
 A cutoff of  1.0D-11 yielded   2623 shell pairs
 There are  23962 function pairs ( 29417 Cartesian)
Evaluating contribution to one-electron hamiltonian from nuclear
 Smallest overlap matrix eigenvalue = 3.04E-08

 Q-Chem warning in module mkSTV.C, line 194:

 Overlap eigenvalue is smaller than square root of threshold

 Linear dependence detected in AO basis
 Number of orthogonalized atomic orbitals = 227
 Maximum deviation from orthogonality = 3.075E-11
 Multipole matrices computed through 2nd order

  Scale SEOQF with 1.000000e-01/1.000000e-01/1.000000e-01

 Standard Electronic Orientation quadrupole field applied
 Nucleus-field energy     =    -0.0000000233 hartrees
 Guess from superposition of atomic densities
 Warning:  Energy on first SCF cycle will be non-variational
 A restricted hybrid HF-DFT SCF calculation will be
 performed using Pulay DIIS extrapolation
 Exchange:     1.0000 Hartree-Fock + 1.0000 BNL
 Correlation:  1.0000 LYP
 Using SG-1 standard quadrature grid
 SCF converges when DIIS error is below 1.0E-08
 ---------------------------------------
  Cycle       Energy         DIIS Error
 ---------------------------------------
    1    -155.0349779738      2.96E-02
    2    -154.0184518214      2.82E-03
    3    -154.0581564324      1.47E-03
    4    -154.0719233619      2.07E-04
    5    -154.0722727722      3.75E-05
    6    -154.0722880809      1.43E-05
    7    -154.0722896124      4.51E-06
    8    -154.0722898709      8.73E-07
    9    -154.0722898301      4.04E-07
   10    -154.0722898494      2.10E-07
   11    -154.0722898361      2.02E-08
   12    -154.0722898409      4.99E-09 Convergence criterion met
 ---------------------------------------
 One-Electron    Energy =  -405.3583020874
 Total Coulomb   Energy =   173.3453877077
 Alpha Exchange  Energy =    -2.6477880436
 Beta  Exchange  Energy =    -2.6477880436
 DFT   Exchange  Energy =   -15.5480907913
 DFT Correlation Energy =    -0.9624873700
 Nuclear Repu.   Energy =    99.7467787874
 Nuclear Attr.   Energy =  -558.4563900741
 Kinetic         Energy =   153.0980879867
 SCF time:  CPU 200.60 s  wall 202.45 s
 Final Alpha MO Eigenvalues
            1           2           3           4           5           6
    1  -9.9572079  -9.9571822  -9.9377022  -9.9356954  -0.8937884  -0.8556038
            7           8           9          10          11          12
    1  -0.7738513  -0.5849473  -0.5406476  -0.5391827  -0.5391822  -0.5208308
           13          14          15          16          17          18
    1  -0.5208299  -0.3518348  -0.3518345   0.0303247   0.0416171   0.0629337
           19          20
    1   0.0629516   0.0758441
 Analysis of SCF Wavefunction
 
 --------------------------------------------------------------
                    Orbital Energies (a.u.)
 --------------------------------------------------------------
 
 Alpha MOs
 -- Occupied --
 -9.957  -9.957  -9.938  -9.936  -0.894  -0.856  -0.774  -0.585
 -0.541  -0.539  -0.539  -0.521  -0.521  -0.352  -0.352
 -- Virtual --
  0.030   0.042   0.063   0.063   0.076   0.076   0.091   0.120
  0.137   0.137   0.141   0.141   0.154   0.154   0.164   0.168
  0.168   0.172   0.186   0.230   0.230   0.245   0.245   0.266
  0.287   0.287   0.292   0.326   0.352   0.352   0.451   0.517
  0.517   0.531   0.531   0.538   0.569   0.587   0.587   0.628
  0.628   0.655   0.655   0.706   0.706   0.710   0.710   0.732
  0.733   0.751   0.751   0.773   0.793   0.872   0.905   0.912
  0.912   0.959   0.959   0.985   1.021   1.021   1.097   1.097
  1.120   1.168   1.215   1.215   1.229   1.229   1.340   1.340
  1.345   1.345   1.365   1.428   1.433   1.487   1.487   1.503
  1.503   1.520   1.520   1.555   1.615   1.638   1.656   1.656
  1.827   1.827   2.189   2.243   2.419   2.419   2.620   2.620
  2.671   2.706   2.747   2.747   2.766   2.799   2.849   2.849
  2.853   2.949   2.949   3.000   3.037   3.039   3.039   3.046
  3.046   3.121   3.171   3.171   3.200   3.206   3.206   3.226
  3.238   3.238   3.250   3.250   3.334   3.334   3.461   3.461
  3.494   3.494   3.538   3.538   3.539   3.591   3.670   3.670
  3.689   3.689   3.715   3.876   3.876   3.932   3.933   3.935
  3.957   3.957   3.964   4.144   4.198   4.198   4.234   4.280
  4.280   4.387   4.387   4.438   4.438   4.444   4.468   4.477
  4.599   4.730   4.730   4.798   4.943   4.943   5.126   5.430
  5.701   5.701   5.722   5.722   5.938   5.938   6.298   6.854
 23.796  24.463  24.560  25.667  27.528  27.528  27.786  27.786
 27.987  28.141  28.141  28.174  28.174  28.192  28.836  29.620
 40.839  40.877  40.885  40.926  40.934  41.099  41.101  41.181
 41.191  41.197  41.218  41.247  41.249  41.280  41.286  41.311
 41.313  41.499  41.499  41.692
 --------------------------------------------------------------
 
          Ground-State Mulliken Net Atomic Charges

     Atom                 Charge (a.u.)
  ----------------------------------------
      1 C                    -0.823966
      2 C                     0.395085
      3 C                     0.395085
      4 C                    -0.823966
      5 H                     0.142969
      6 H                     0.142956
      7 H                     0.142956
      8 H                     0.142969
      9 H                     0.142956
     10 H                     0.142956
  ----------------------------------------
  Sum of atomic charges =     0.000000

 -----------------------------------------------------------------
                    Cartesian Multipole Moments
 -----------------------------------------------------------------
    Charge (ESU x 10^10)
                 0.0000
    Dipole Moment (Debye)
         X      -0.0001      Y       0.0000      Z       0.0000
       Tot       0.0001
    Quadrupole Moments (Debye-Ang)
        XX     -26.3599     XY       0.0000     YY     -26.3598
        XZ      -0.0002     YZ       0.0000     ZZ     -19.2679
    Octapole Moments (Debye-Ang^2)
       XXX       1.5828    XXY       0.0000    XYY      -1.5830
       YYY       0.0000    XXZ     -54.4620    XYZ       0.0000
       YYZ     -54.4619    XZZ      -0.0004    YZZ       0.0000
       ZZZ    -119.4279
    Hexadecapole Moments (Debye-Ang^3)
      XXXX     -45.1445   XXXY       0.0000   XXYY     -15.0480
      XYYY       0.0000   YYYY     -45.1435   XXXZ       3.2702
      XXYZ       0.0000   XYYZ      -3.2707   YYYZ       0.0000
      XXZZ    -196.1107   XYZZ       0.0000   YYZZ    -196.1102
      XZZZ      -0.0008   YZZZ       0.0000   ZZZZ    -965.9562
 -----------------------------------------------------------------
 Calculating analytic gradient of the SCF energy
 Gradient of AOints
            1           2           3           4           5           6
    1   0.0014783  -0.0013333  -0.0013330   0.0014781  -2.7771456   1.3885003
    2   0.0000001   0.0000002  -0.0000021   0.0000006   0.0000001   2.4049191
    3   4.0060311  13.6090409 -13.6090411  -4.0060308   1.5221999   1.5221919
            7           8           9          10
    1   1.3885002  -2.7771456   1.3885002   1.3885004
    2  -2.4049186   0.0000001  -2.4049186   2.4049191
    3   1.5221919  -1.5222001  -1.5221919  -1.5221919
 Gradient of XC Energy
            1           2           3           4           5           6
    1  -0.0000040   0.0000276   0.0000276  -0.0000040   0.1501100  -0.0750668
    2   0.0000000  -0.0000000   0.0000001  -0.0000000  -0.0000000  -0.1300053
    3   0.0171898  -0.3324019   0.3324019  -0.0171898  -0.0620596  -0.0620192
            7           8           9          10
    1  -0.0750668   0.1501100  -0.0750668  -0.0750668
    2   0.1300053  -0.0000000   0.1300053  -0.1300053
    3  -0.0620192   0.0620596   0.0620192   0.0620192
 Gradient of SCF Energy
            1           2           3           4           5           6
    1   0.0000307  -0.0000023  -0.0000023   0.0000307  -0.0025020   0.0012368
    2   0.0000000   0.0000000   0.0000000   0.0000000  -0.0000000   0.0021556
    3  -0.0078572  -0.0197471   0.0197471   0.0078572  -0.0001199  -0.0000797
            7           8           9          10
    1   0.0012368  -0.0025020   0.0012368   0.0012368
    2  -0.0021556  -0.0000000  -0.0021556   0.0021556
    3  -0.0000797   0.0001199   0.0000797   0.0000797
 Max gradient component =       1.975E-02
 RMS gradient           =       5.600E-03
 Gradient time:  CPU 96.20 s  wall 96.50 s
 Geometry Optimization Parameters
   NAtoms,    NIC,     NZ,  NCons,   NDum,   NFix, NCnnct, MaxDiis
       10      50      12       0       0       0       0       0


** GEOMETRY OPTIMIZATION IN DELOCALIZED INTERNAL COORDINATES **
   Searching for a Minimum

   Optimization Cycle:   1

                       Coordinates (Angstroms)
     ATOM              X           Y           Z
    1  C           0.000000    0.000000    0.000000
    2  C           0.000000    0.000000    1.461506
    3  C           0.000000    0.000000    2.670677
    4  C           0.000000    0.000000    4.132183
    5  H           1.021525    0.000000   -0.400054
    6  H          -0.510763   -0.884667   -0.400054
    7  H          -0.510763    0.884667   -0.400054
    8  H           1.021525    0.000000    4.532237
    9  H          -0.510763    0.884667    4.532237
   10  H          -0.510763   -0.884667    4.532237
   Point Group: c1    Number of degrees of freedom:  24


   Energy is   -154.072289841


 Attempting to Generate Delocalized Internal Coordinates

 19 Hessian modes will be used to form the next step
  Hessian Eigenvalues:
     0.050736    0.050736    0.160000    0.160000    0.160000    0.160000
     0.160000    0.160000    0.196305    0.196305    0.340085    0.340085
     0.340085    0.340085    0.340085    0.340085    0.367764    0.367764
     1.003468

 Minimum Search - Taking Simple RFO Step
 Searching for Lamda that Minimizes Along All modes
 Value Taken    Lamda =  -0.00129840
 Step Taken.  Stepsize is  0.049706

                             Maximum     Tolerance    Cnvgd?
         Gradient           0.024116      0.000300      NO
         Displacement       0.044837      0.001200      NO
         Energy change     *********      0.000001      NO


 New Cartesian Coordinates Obtained by Inverse Iteration

 Displacement from previous Coordinates is:  0.125960
 Writing REM_CC_EA           10
 ----------------------------------------------------
       Standard Nuclear Orientation (Angstroms)
    I     Atom         X            Y            Z
 ----------------------------------------------------
    1      C      -0.000102     0.000000     0.019009
    2      C      -0.000322     0.000000     1.468849
    3      C      -0.000322     0.000000     2.663334
    4      C      -0.000102     0.000000     4.113174
    5      H       1.027329     0.000000    -0.375617
    6      H      -0.513453    -0.889609    -0.376474
    7      H      -0.513453     0.889609    -0.376474
    8      H       1.027329     0.000000     4.507800
    9      H      -0.513453     0.889609     4.508658
   10      H      -0.513453    -0.889609     4.508658
 ----------------------------------------------------
 Nuclear Repulsion Energy =   100.4142199891 hartrees
 There are       15 alpha and       15 beta electrons
 Applying Cartesian multipole field
    Component          Value
    ---------          -----
     (2,0,0)        1.00000E-11
     (0,2,0)        2.00000E-11
     (0,0,2)       -3.00000E-11
 Nucleus-field energy     =    -0.0000000231 hartrees
 Requested basis set is G3large
 There are 76 shells and 228 basis functions
 A cutoff of  1.0D-11 yielded   2625 shell pairs
 There are  23986 function pairs ( 29441 Cartesian)
Evaluating contribution to one-electron hamiltonian from nuclear
 Smallest overlap matrix eigenvalue = 2.65E-08

 Q-Chem warning in module mkSTV.C, line 194:

 Overlap eigenvalue is smaller than square root of threshold

 Linear dependence detected in AO basis
 Number of orthogonalized atomic orbitals = 227
 Maximum deviation from orthogonality = 4.677E-11
 Multipole matrices computed through 2nd order
 Guess MOs from SCF MO coefficient file
Reading MOs from coefficient file
Reading MOs from coefficient file
 A restricted hybrid HF-DFT SCF calculation will be
 performed using Pulay DIIS extrapolation
 Exchange:     1.0000 Hartree-Fock + 1.0000 BNL
 Correlation:  1.0000 LYP
 Using SG-1 standard quadrature grid
 SCF converges when DIIS error is below 1.0E-08
 ---------------------------------------
  Cycle       Energy         DIIS Error
 ---------------------------------------
    1    -154.0346628909      6.35E-04
    2    -154.0727615342      1.30E-04
    3    -154.0728538963      7.52E-05
    4    -154.0728889443      8.46E-06
    5    -154.0728892813      2.56E-06
    6    -154.0728893033      9.34E-07
    7    -154.0728893749      1.69E-07
    8    -154.0728893588      2.49E-08
    9    -154.0728893574      4.05E-09 Convergence criterion met
 ---------------------------------------
 One-Electron    Energy =  -406.6994771839
 Total Coulomb   Energy =   174.0378945724
 Alpha Exchange  Energy =    -2.6487237386
 Beta  Exchange  Energy =    -2.6487237386
 DFT   Exchange  Energy =   -15.5645265140
 DFT Correlation Energy =    -0.9635527208
 Nuclear Repu.   Energy =   100.4142199660
 Nuclear Attr.   Energy =  -559.8842712064
 Kinetic         Energy =   153.1847940225
 SCF time:  CPU 156.60 s  wall 158.10 s
 Final Alpha MO Eigenvalues
            1           2           3           4           5           6
    1  -9.9562894  -9.9562620  -9.9324284  -9.9301283  -0.8959852  -0.8561963
            7           8           9          10          11          12
    1  -0.7740209  -0.5832086  -0.5409770  -0.5402471  -0.5402453  -0.5206562
           13          14          15          16          17          18
    1  -0.5206487  -0.3524429  -0.3524265   0.0303527   0.0420064   0.0627900
           19          20
    1   0.0628096   0.0759692
 Analysis of SCF Wavefunction
 
 --------------------------------------------------------------
                    Orbital Energies (a.u.)
 --------------------------------------------------------------
 
 Alpha MOs
 -- Occupied --
 -9.956  -9.956  -9.932  -9.930  -0.896  -0.856  -0.774  -0.583
 -0.541  -0.540  -0.540  -0.521  -0.521  -0.352  -0.352
 -- Virtual --
  0.030   0.042   0.063   0.063   0.076   0.076   0.091   0.120
  0.136   0.136   0.144   0.144   0.155   0.155   0.165   0.168
  0.168   0.173   0.187   0.230   0.230   0.245   0.245   0.265
  0.290   0.290   0.292   0.334   0.351   0.354   0.455   0.517
  0.517   0.530   0.530   0.541   0.571   0.586   0.586   0.628
  0.628   0.654   0.654   0.708   0.708   0.712   0.712   0.729
  0.731   0.755   0.755   0.774   0.795   0.871   0.907   0.915
  0.915   0.956   0.956   0.982   1.028   1.028   1.103   1.103
  1.128   1.192   1.214   1.214   1.227   1.227   1.347   1.347
  1.353   1.353   1.375   1.431   1.439   1.486   1.486   1.507
  1.507   1.519   1.519   1.556   1.610   1.638   1.657   1.657
  1.815   1.815   2.207   2.250   2.423   2.424   2.633   2.633
  2.676   2.714   2.743   2.743   2.761   2.797   2.846   2.846
  2.857   2.961   2.961   2.998   3.031   3.037   3.046   3.056
  3.056   3.120   3.162   3.162   3.206   3.206   3.208   3.224
  3.224   3.230   3.254   3.254   3.344   3.344   3.465   3.466
  3.508   3.508   3.539   3.541   3.541   3.608   3.680   3.681
  3.700   3.700   3.714   3.887   3.887   3.935   3.935   3.939
  3.959   3.973   3.973   4.154   4.219   4.219   4.247   4.276
  4.276   4.382   4.382   4.447   4.448   4.451   4.474   4.484
  4.623   4.747   4.747   4.804   4.979   4.980   5.119   5.479
  5.686   5.686   5.710   5.710   5.996   5.996   6.372   6.884
 23.794  24.474  24.582  25.802  27.549  27.549  27.809  27.809
 28.012  28.143  28.143  28.178  28.178  28.204  28.786  29.719
 40.844  40.884  40.892  40.926  40.935  41.116  41.118  41.186
 41.192  41.198  41.225  41.250  41.252  41.281  41.290  41.310
 41.313  41.528  41.528  41.730
 --------------------------------------------------------------
 
          Ground-State Mulliken Net Atomic Charges

     Atom                 Charge (a.u.)
  ----------------------------------------
      1 C                    -0.831941
      2 C                     0.407235
      3 C                     0.407235
      4 C                    -0.831941
      5 H                     0.141578
      6 H                     0.141564
      7 H                     0.141564
      8 H                     0.141578
      9 H                     0.141564
     10 H                     0.141564
  ----------------------------------------
  Sum of atomic charges =     0.000000

 -----------------------------------------------------------------
                    Cartesian Multipole Moments
 -----------------------------------------------------------------
    Charge (ESU x 10^10)
                 0.0000
    Dipole Moment (Debye)
         X       0.0008      Y       0.0000      Z       0.0000
       Tot       0.0008
    Quadrupole Moments (Debye-Ang)
        XX     -26.2510     XY       0.0000     YY     -26.2505
        XZ       0.0016     YZ       0.0000     ZZ     -19.6685
    Octapole Moments (Debye-Ang^2)
       XXX       1.6283    XXY       0.0000    XYY      -1.6090
       YYY       0.0000    XXZ     -54.2370    XYZ       0.0000
       YYZ     -54.2359    XZZ       0.0017    YZZ       0.0000
       ZZZ    -121.9108
    Hexadecapole Moments (Debye-Ang^3)
      XXXX     -45.0448   XXXY       0.0000   XXYY     -15.0161
      XYYY       0.0000   YYYY     -45.0455   XXXZ       3.3642
      XXYZ       0.0000   XYYZ      -3.3244   YYYZ       0.0000
      XXZZ    -194.4030   XYZZ       0.0000   YYZZ    -194.3874
      XZZZ      -0.0033   YZZZ       0.0000   ZZZZ    -972.9201
 -----------------------------------------------------------------
 Calculating analytic gradient of the SCF energy
 Gradient of AOints
            1           2           3           4           5           6
    1   0.0042114  -0.0015228  -0.0015237   0.0042113  -2.8090644   1.4031881
    2  -0.0000002   0.0000003  -0.0000002  -0.0000002   0.0000001   2.4319959
    3   4.0102617  14.2216276 -14.2216276  -4.0102616   1.4872326   1.4902754
            7           8           9          10
    1   1.4031882  -2.8090644   1.4031882   1.4031881
    2  -2.4319958   0.0000001  -2.4319957   2.4319958
    3   1.4902755  -1.4872326  -1.4902756  -1.4902754
 Gradient of XC Energy
            1           2           3           4           5           6
    1  -0.0001328   0.0000395   0.0000395  -0.0001328   0.1507865  -0.0753466
    2   0.0000000  -0.0000000   0.0000000   0.0000000  -0.0000000  -0.1305671
    3   0.0165430  -0.3433845   0.3433845  -0.0165430  -0.0602245  -0.0603371
            7           8           9          10
    1  -0.0753466   0.1507865  -0.0753466  -0.0753466
    2   0.1305671  -0.0000000   0.1305671  -0.1305671
    3  -0.0603371   0.0602245   0.0603371   0.0603371
 Gradient of SCF Energy
            1           2           3           4           5           6
    1  -0.0000129   0.0000277   0.0000277  -0.0000129   0.0000275  -0.0000212
    2  -0.0000000  -0.0000000  -0.0000000  -0.0000000  -0.0000000  -0.0000332
    3  -0.0002187   0.0023337  -0.0023337   0.0002187   0.0002336   0.0002342
            7           8           9          10
    1  -0.0000212   0.0000275  -0.0000212  -0.0000212
    2   0.0000332  -0.0000000   0.0000332  -0.0000332
    3   0.0002342  -0.0002336  -0.0002342  -0.0002342
 Max gradient component =       2.334E-03
 RMS gradient           =       6.144E-04
 Gradient time:  CPU 97.96 s  wall 98.25 s
 Geometry Optimization Parameters
   NAtoms,    NIC,     NZ,  NCons,   NDum,   NFix, NCnnct, MaxDiis
       10      50      12       0       0       0       0       0

 Cartesian Hessian Update
 Hessian Updated using BFGS Update


** GEOMETRY OPTIMIZATION IN DELOCALIZED INTERNAL COORDINATES **
   Searching for a Minimum

   Optimization Cycle:   2

                       Coordinates (Angstroms)
     ATOM              X           Y           Z
    1  C          -0.000102    0.000000    0.019009
    2  C          -0.000322    0.000000    1.468849
    3  C          -0.000322    0.000000    2.663334
    4  C          -0.000102    0.000000    4.113174
    5  H           1.027329    0.000000   -0.375617
    6  H          -0.513453   -0.889609   -0.376474
    7  H          -0.513453    0.889609   -0.376474
    8  H           1.027329    0.000000    4.507800
    9  H          -0.513453    0.889609    4.508658
   10  H          -0.513453   -0.889609    4.508658
   Point Group: c1    Number of degrees of freedom:  24


   Energy is   -154.072889357

 Hessian Updated using BFGS Update

  8 Hessian modes will be used to form the next step
  Hessian Eigenvalues:
     0.050734    0.159998    0.163207    0.196299    0.337162    0.340086
     0.371233    1.072587

 Minimum Search - Taking Simple RFO Step
 Searching for Lamda that Minimizes Along All modes
 Value Taken    Lamda =  -0.00001200
 Step Taken.  Stepsize is  0.005513

                             Maximum     Tolerance    Cnvgd?
         Gradient           0.002371      0.000300      NO
         Displacement       0.004581      0.001200      NO
         Energy change     -0.000600      0.000001      NO


 New Cartesian Coordinates Obtained by Inverse Iteration

 Displacement from previous Coordinates is:  0.012951
 Writing REM_CC_EA           10
 ----------------------------------------------------
       Standard Nuclear Orientation (Angstroms)
    I     Atom         X            Y            Z
 ----------------------------------------------------
    1      C      -0.000112     0.000000     0.017732
    2      C      -0.000528     0.000000     1.468183
    3      C      -0.000528     0.000000     2.664001
    4      C      -0.000112     0.000000     4.114452
    5      H       1.026967     0.000000    -0.378064
    6      H      -0.513164    -0.889234    -0.379194
    7      H      -0.513164     0.889234    -0.379194
    8      H       1.026967     0.000000     4.510247
    9      H      -0.513164     0.889234     4.511378
   10      H      -0.513164    -0.889234     4.511378
 ----------------------------------------------------
 Nuclear Repulsion Energy =   100.3551893781 hartrees
 There are       15 alpha and       15 beta electrons
 Applying Cartesian multipole field
    Component          Value
    ---------          -----
     (2,0,0)        1.00000E-11
     (0,2,0)        2.00000E-11
     (0,0,2)       -3.00000E-11
 Nucleus-field energy     =    -0.0000000231 hartrees
 Requested basis set is G3large
 There are 76 shells and 228 basis functions
 A cutoff of  1.0D-11 yielded   2625 shell pairs
 There are  23986 function pairs ( 29441 Cartesian)
Evaluating contribution to one-electron hamiltonian from nuclear
 Smallest overlap matrix eigenvalue = 2.68E-08

 Q-Chem warning in module mkSTV.C, line 194:

 Overlap eigenvalue is smaller than square root of threshold

 Linear dependence detected in AO basis
 Number of orthogonalized atomic orbitals = 227
 Maximum deviation from orthogonality = 2.969E-11
 Multipole matrices computed through 2nd order
 Guess MOs from SCF MO coefficient file
Reading MOs from coefficient file
Reading MOs from coefficient file
 A restricted hybrid HF-DFT SCF calculation will be
 performed using Pulay DIIS extrapolation
 Exchange:     1.0000 Hartree-Fock + 1.0000 BNL
 Correlation:  1.0000 LYP
 Using SG-1 standard quadrature grid
 SCF converges when DIIS error is below 1.0E-08
 ---------------------------------------
  Cycle       Energy         DIIS Error
 ---------------------------------------
    1    -154.0762610789      5.64E-05
    2    -154.0728946843      1.02E-05
    3    -154.0728952408      5.90E-06
    4    -154.0728954468      5.64E-07
    5    -154.0728955083      1.45E-07
    6    -154.0728955183      5.39E-08
    7    -154.0728955304      1.29E-08
    8    -154.0728955287      1.74E-09 Convergence criterion met
 ---------------------------------------
 One-Electron    Energy =  -406.5812779716
 Total Coulomb   Energy =   173.9764659211
 Alpha Exchange  Energy =    -2.6485972846
 Beta  Exchange  Energy =    -2.6485972846
 DFT   Exchange  Energy =   -15.5626368564
 DFT Correlation Energy =    -0.9634414076
 Nuclear Repu.   Energy =   100.3551893550
 Nuclear Attr.   Energy =  -559.7563695915
 Kinetic         Energy =   153.1750916199
 SCF time:  CPU 131.38 s  wall 132.58 s
 Final Alpha MO Eigenvalues
            1           2           3           4           5           6
    1  -9.9564457  -9.9564185  -9.9329144  -9.9306426  -0.8958151  -0.8561272
            7           8           9          10          11          12
    1  -0.7739711  -0.5835300  -0.5411323  -0.5400583  -0.5400539  -0.5205374
           13          14          15          16          17          18
    1  -0.5205258  -0.3523577  -0.3523387   0.0303453   0.0419578   0.0628051
           19          20
    1   0.0628240   0.0759344
 Analysis of SCF Wavefunction
 
 --------------------------------------------------------------
                    Orbital Energies (a.u.)
 --------------------------------------------------------------
 
 Alpha MOs
 -- Occupied --
 -9.956  -9.956  -9.933  -9.931  -0.896  -0.856  -0.774  -0.584
 -0.541  -0.540  -0.540  -0.521  -0.521  -0.352  -0.352
 -- Virtual --
  0.030   0.042   0.063   0.063   0.076   0.076   0.091   0.120
  0.136   0.136   0.144   0.144   0.155   0.155   0.165   0.168
  0.168   0.173   0.187   0.230   0.230   0.245   0.245   0.265
  0.290   0.290   0.292   0.334   0.351   0.354   0.455   0.517
  0.517   0.530   0.530   0.541   0.571   0.586   0.586   0.628
  0.628   0.654   0.654   0.707   0.708   0.711   0.711   0.729
  0.731   0.754   0.754   0.774   0.795   0.872   0.907   0.914
  0.914   0.956   0.956   0.983   1.027   1.027   1.102   1.102
  1.127   1.190   1.214   1.214   1.227   1.227   1.346   1.346
  1.352   1.352   1.374   1.431   1.439   1.486   1.486   1.507
  1.507   1.519   1.519   1.556   1.610   1.637   1.657   1.657
  1.816   1.817   2.205   2.250   2.423   2.424   2.632   2.632
  2.676   2.714   2.743   2.743   2.762   2.797   2.846   2.846
  2.856   2.960   2.960   2.998   3.031   3.037   3.045   3.055
  3.055   3.120   3.163   3.163   3.206   3.206   3.207   3.226
  3.226   3.230   3.254   3.254   3.343   3.343   3.465   3.465
  3.507   3.507   3.539   3.541   3.541   3.607   3.680   3.680
  3.699   3.699   3.714   3.886   3.886   3.934   3.934   3.938
  3.958   3.971   3.971   4.152   4.217   4.217   4.246   4.276
  4.277   4.383   4.383   4.446   4.446   4.449   4.471   4.482
  4.620   4.745   4.745   4.804   4.977   4.978   5.120   5.475
  5.686   5.686   5.710   5.710   5.992   5.992   6.366   6.882
 23.795  24.472  24.580  25.790  27.548  27.548  27.807  27.807
 28.011  28.143  28.143  28.177  28.177  28.204  28.790  29.711
 40.843  40.884  40.891  40.926  40.935  41.115  41.117  41.185
 41.192  41.198  41.224  41.249  41.252  41.280  41.290  41.310
 41.313  41.525  41.525  41.727
 --------------------------------------------------------------
 
          Ground-State Mulliken Net Atomic Charges

     Atom                 Charge (a.u.)
  ----------------------------------------
      1 C                    -0.832260
      2 C                     0.407339
      3 C                     0.407339
      4 C                    -0.832260
      5 H                     0.141648
      6 H                     0.141637
      7 H                     0.141637
      8 H                     0.141648
      9 H                     0.141637
     10 H                     0.141637
  ----------------------------------------
  Sum of atomic charges =     0.000000

 -----------------------------------------------------------------
                    Cartesian Multipole Moments
 -----------------------------------------------------------------
    Charge (ESU x 10^10)
                 0.0000
    Dipole Moment (Debye)
         X       0.0013      Y       0.0000      Z       0.0000
       Tot       0.0013
    Quadrupole Moments (Debye-Ang)
        XX     -26.2639     XY       0.0000     YY     -26.2634
        XZ       0.0027     YZ       0.0000     ZZ     -19.6265
    Octapole Moments (Debye-Ang^2)
       XXX       1.6326    XXY       0.0000    XYY      -1.6031
       YYY       0.0000    XXZ     -54.2637    XYZ       0.0000
       YYZ     -54.2625    XZZ       0.0050    YZZ       0.0000
       ZZZ    -121.6504
    Hexadecapole Moments (Debye-Ang^3)
      XXXX     -45.0685   XXXY       0.0000   XXYY     -15.0244
      XYYY       0.0000   YYYY     -45.0695   XXXZ       3.3730
      XXYZ       0.0000   XYYZ      -3.3123   YYYZ       0.0000
      XXZZ    -194.5792   XYZZ       0.0000   YYZZ    -194.5598
      XZZZ       0.0081   YZZZ       0.0000   ZZZZ    -972.0194
 -----------------------------------------------------------------
 Calculating analytic gradient of the SCF energy
 Gradient of AOints
            1           2           3           4           5           6
    1   0.0042271  -0.0007109  -0.0007118   0.0042278  -2.8047178   1.4006008
    2  -0.0000009   0.0000010  -0.0000007   0.0000005   0.0000001   2.4280239
    3   4.0028391  14.1661057 -14.1661058  -4.0028389   1.4926853   1.4965036
            7           8           9          10
    1   1.4006009  -2.8047179   1.4006009   1.4006008
    2  -2.4280239   0.0000000  -2.4280239   2.4280239
    3   1.4965036  -1.4926853  -1.4965036  -1.4965036
 Gradient of XC Energy
            1           2           3           4           5           6
    1  -0.0001440   0.0000152   0.0000153  -0.0001440   0.1506345  -0.0752529
    2   0.0000000  -0.0000000   0.0000000  -0.0000000  -0.0000000  -0.1304277
    3   0.0169633  -0.3423777   0.3423777  -0.0169633  -0.0604833  -0.0606379
            7           8           9          10
    1  -0.0752529   0.1506345  -0.0752529  -0.0752529
    2   0.1304277  -0.0000000   0.1304277  -0.1304277
    3  -0.0606379   0.0604833   0.0606379   0.0606379
 Gradient of SCF Energy
            1           2           3           4           5           6
    1  -0.0000215   0.0000248   0.0000248  -0.0000215   0.0000016  -0.0000025
    2   0.0000000  -0.0000000  -0.0000000  -0.0000000  -0.0000000  -0.0000032
    3  -0.0002451   0.0000385  -0.0000385   0.0002451   0.0000453   0.0000477
            7           8           9          10
    1  -0.0000025   0.0000016  -0.0000025  -0.0000025
    2   0.0000032  -0.0000000   0.0000032  -0.0000032
    3   0.0000477  -0.0000453  -0.0000477  -0.0000477
 Max gradient component =       2.451E-04
 RMS gradient           =       6.797E-05
 Gradient time:  CPU 97.82 s  wall 98.10 s
 Geometry Optimization Parameters
   NAtoms,    NIC,     NZ,  NCons,   NDum,   NFix, NCnnct, MaxDiis
       10      50      12       0       0       0       0       0

 Cartesian Hessian Update
 Hessian Updated using BFGS Update


** GEOMETRY OPTIMIZATION IN DELOCALIZED INTERNAL COORDINATES **
   Searching for a Minimum

   Optimization Cycle:   3

                       Coordinates (Angstroms)
     ATOM              X           Y           Z
    1  C          -0.000112    0.000000    0.017732
    2  C          -0.000528    0.000000    1.468183
    3  C          -0.000528    0.000000    2.664001
    4  C          -0.000112    0.000000    4.114452
    5  H           1.026967    0.000000   -0.378064
    6  H          -0.513164   -0.889234   -0.379194
    7  H          -0.513164    0.889234   -0.379194
    8  H           1.026967    0.000000    4.510247
    9  H          -0.513164    0.889234    4.511378
   10  H          -0.513164   -0.889234    4.511378
   Point Group: c1    Number of degrees of freedom:  24


   Energy is   -154.072895529

 Hessian Updated using BFGS Update

  8 Hessian modes will be used to form the next step
  Hessian Eigenvalues:
     0.050706    0.144946    0.160006    0.196071    0.336715    0.340085
     0.386632    1.129436

 Minimum Search - Taking Simple RFO Step
 Searching for Lamda that Minimizes Along All modes
 Value Taken    Lamda =   0.00000000
 Step Taken.  Stepsize is  0.001243

                             Maximum     Tolerance    Cnvgd?
         Gradient           0.000150      0.000300     YES
         Displacement       0.000792      0.001200     YES
         Energy change     -0.000006      0.000001      NO


                       Distance Matrix (Angstroms)
             C (  1)   C (  2)   C (  3)   C (  4)   H (  5)   H (  6)
   C (  2)  1.450451
   C (  3)  2.646269  1.195818
   C (  4)  4.096720  2.646269  1.450451
   H (  5)  1.100702  2.112906  3.210904  4.608426
   H (  6)  1.100686  2.113370  3.211630  4.609427  1.778409
   H (  7)  1.100686  2.113370  3.211630  4.609427  1.778409  1.778467
   H (  8)  4.608426  3.210904  2.112906  1.100702  4.888311  5.202824
   H (  9)  4.609427  3.211630  2.113370  1.100686  5.202824  5.203907
   H ( 10)  4.609427  3.211630  2.113370  1.100686  5.202824  4.890572
             H (  7)   H (  8)   H (  9)
   H (  8)  5.202824
   H (  9)  4.890572  1.778409
   H ( 10)  5.203907  1.778409  1.778467
 


 ******************************
 **  OPTIMIZATION CONVERGED  **
 ******************************
 Analysis of SCF Wavefunction
 
 --------------------------------------------------------------
                    Orbital Energies (a.u.)
 --------------------------------------------------------------
 
 Alpha MOs
 -- Occupied --
 -9.956  -9.956  -9.933  -9.931  -0.896  -0.856  -0.774  -0.584
 -0.541  -0.540  -0.540  -0.521  -0.521  -0.352  -0.352
 -- Virtual --
  0.030   0.042   0.063   0.063   0.076   0.076   0.091   0.120
  0.136   0.136   0.144   0.144   0.155   0.155   0.165   0.168
  0.168   0.173   0.187   0.230   0.230   0.245   0.245   0.265
  0.290   0.290   0.292   0.334   0.351   0.354   0.455   0.517
  0.517   0.530   0.530   0.541   0.571   0.586   0.586   0.628
  0.628   0.654   0.654   0.707   0.708   0.711   0.711   0.729
  0.731   0.754   0.754   0.774   0.795   0.872   0.907   0.914
  0.914   0.956   0.956   0.983   1.027   1.027   1.102   1.102
  1.127   1.190   1.214   1.214   1.227   1.227   1.346   1.346
  1.352   1.352   1.374   1.431   1.439   1.486   1.486   1.507
  1.507   1.519   1.519   1.556   1.610   1.637   1.657   1.657
  1.816   1.817   2.205   2.250   2.423   2.424   2.632   2.632
  2.676   2.714   2.743   2.743   2.762   2.797   2.846   2.846
  2.856   2.960   2.960   2.998   3.031   3.037   3.045   3.055
  3.055   3.120   3.163   3.163   3.206   3.206   3.207   3.226
  3.226   3.230   3.254   3.254   3.343   3.343   3.465   3.465
  3.507   3.507   3.539   3.541   3.541   3.607   3.680   3.680
  3.699   3.699   3.714   3.886   3.886   3.934   3.934   3.938
  3.958   3.971   3.971   4.152   4.217   4.217   4.246   4.276
  4.277   4.383   4.383   4.446   4.446   4.449   4.471   4.482
  4.620   4.745   4.745   4.804   4.977   4.978   5.120   5.475
  5.686   5.686   5.710   5.710   5.992   5.992   6.366   6.882
 23.795  24.472  24.580  25.790  27.548  27.548  27.807  27.807
 28.011  28.143  28.143  28.177  28.177  28.204  28.790  29.711
 40.843  40.884  40.891  40.926  40.935  41.115  41.117  41.185
 41.192  41.198  41.224  41.249  41.252  41.280  41.290  41.310
 41.313  41.525  41.525  41.727
 --------------------------------------------------------------
 
          Ground-State Mulliken Net Atomic Charges

     Atom                 Charge (a.u.)
  ----------------------------------------
      1 C                    -0.832260
      2 C                     0.407339
      3 C                     0.407339
      4 C                    -0.832260
      5 H                     0.141648
      6 H                     0.141637
      7 H                     0.141637
      8 H                     0.141648
      9 H                     0.141637
     10 H                     0.141637
  ----------------------------------------
  Sum of atomic charges =     0.000000

 -----------------------------------------------------------------
                    Cartesian Multipole Moments
 -----------------------------------------------------------------
    Charge (ESU x 10^10)
                 0.0000
    Dipole Moment (Debye)
         X       0.0013      Y       0.0000      Z       0.0000
       Tot       0.0013
    Quadrupole Moments (Debye-Ang)
        XX     -26.2639     XY       0.0000     YY     -26.2634
        XZ       0.0027     YZ       0.0000     ZZ     -19.6265
    Octapole Moments (Debye-Ang^2)
       XXX       1.6326    XXY       0.0000    XYY      -1.6031
       YYY       0.0000    XXZ     -54.2637    XYZ       0.0000
       YYZ     -54.2625    XZZ       0.0050    YZZ       0.0000
       ZZZ    -121.6504
    Hexadecapole Moments (Debye-Ang^3)
      XXXX     -45.0685   XXXY       0.0000   XXYY     -15.0244
      XYYY       0.0000   YYYY     -45.0695   XXXZ       3.3730
      XXYZ       0.0000   XYYZ      -3.3123   YYYZ       0.0000
      XXZZ    -194.5792   XYZZ       0.0000   YYZZ    -194.5598
      XZZZ       0.0081   YZZZ       0.0000   ZZZZ    -972.0194
 -----------------------------------------------------------------
 Total job time:  787.09s(wall), 781.56s(cpu) 
 Sat Apr 23 15:03:43 2011

        *************************************************************
        *                                                           *
        *  Thank you very much for using Q-Chem.  Have a nice day.  *
        *                                                           *
        *************************************************************


0 sent ACK to 0 
now end server 0 ... 
 
**********************************************************************
Job 2 of 2 
**********************************************************************
 
Process 0 of 1 is on cl253.stfx.acenet.ca - thread support 1
initial socket setup ...start
initial socket setup ...done 
now start server 0 ... 

cmd = /usr/bin/ssh clhead /usr/local/qchem/bin/get_hostid 603370368 > /scratch/tmp/4506625.1.long.q/qchem13103/lic.dat
                  Welcome to Q-Chem
     A Quantum Leap Into The Future Of Chemistry

 Y. Shao, L. Fusti-Molnar, Y. Jung, J. Kussmann, C. Ochsenfeld,
 S. T. Brown, A. T. B. Gilbert, L. V. Slipchenko,S. V. Levchenko,
 D. P. O'Neill, R. A. DiStasio Jr., R. C. Lochan, T. Wang,
 G. J. O. Beran, N. A. Besley, J. M. Herbert, C. Y. Lin,
 T. Van Voorhis, S. H. Chien, A. Sodt, R. P. Steele, 
 V. A. Rassolov, P. E. Maslen, P. P. Korambath, R. D. Adamson,
 B. Austin, J. Baker, E. F. C. Byrd, H. Dachsel, R. J. Doerksen,
 A. Dreuw, B. D. Dunietz, A. D. Dutoi, T. R. Furlani,
 S. R. Gwaltney, A. Heyden, S. Hirata, C.-P. Hsu, G. Kedziora,
 R. Z. Khaliullin, P. Klunzinger, A. M. Lee, M. S. Lee, W. Liang,
 I. Lotan, N. Nair, B. Peters, E. I. Proynov, P. A. Pieniazek, 
 Y. M. Rhee, J. Ritchie, E. Rosta, C. D. Sherrill, 
 A. C. Simmonett, J. E. Subotnik, H. L. Woodcock III,
 W. Zhang, A. T. Bell, A. K. Chakraborty, D. M. Chipman,
 F. J. Keil, A. Warshel, W. J. Hehre, H. F. Schaefer III,
 J. Kong, A. I. Krylov, P. M. W. Gill, M. Head-Gordon,
 Q-Chem, Version 3.1, Q-Chem, Inc., Pittsburgh, PA (2007).

 Additional authors for Version 3.1: 
 Z. Gan, Y. Zhao, N. E. Schultz, D. Truhlar, E. Epifanovsky and M. Oana.

 Additional authors for Version 3.2: 
 R. Baer, B. R. Brooks, D. Casanova, J.-D. Chai, C.-L. Cheng, 
 C. Cramer, D. Crittenden, A. Ghysels, G. Hawkins, E. G. Hohenstein, 
 C. Kelley, W. Kurlancheek, D. Liotard, E. Livshits, P. Manohar, 
 A. Marenich, D. Neuhauser, R. Olson, M. A. Rohrdanz, K. S. Thanthiriwatte, 
 A. J. W. Thom, V. Vanovschi, C. F. Williams, Q. Wu and Z.-Q. You. 


 Intel X86 Linux Version

 Q-chem begins on Sat Apr 23 15:03:46 2011  

 Parallel job on  1  processors
Processing $rem in /usr/local/qchem/config/preferences.

theFileMan(): MAXOPENFILES=974 MAX_SUB_FILE_NUM=16
Maximum size of a physical file is 2.0 GB, maximum size of a tmp-file is 32.0 GB


--------------------------------------------------------------
User input:
--------------------------------------------------------------

$molecule 
READ 
$end 

$xc_functional
   X HF 1.0
   X BNL 1.0
   C LYP 1.0
$end

$rem
SYMMETRY_DECOMPOSITION	0
exchange 		general
BASIS                   g3large
omega			350 
JOBTYPE                 freq
IDERIV 1
SCF_GUESS READ
separate_jk		true
mem_static              760
max_scf_cycles          200
scf_final_print         1
sym_ignore              true
$end

--------------------------------------------------------------
 Writing REM_CC_EA           10
 ----------------------------------------------------
       Standard Nuclear Orientation (Angstroms)
    I     Atom         X            Y            Z
 ----------------------------------------------------
    1      C      -0.000112     0.000000     0.017732
    2      C      -0.000528     0.000000     1.468183
    3      C      -0.000528     0.000000     2.664001
    4      C      -0.000112     0.000000     4.114452
    5      H       1.026967     0.000000    -0.378064
    6      H      -0.513164    -0.889234    -0.379194
    7      H      -0.513164     0.889234    -0.379194
    8      H       1.026967     0.000000     4.510247
    9      H      -0.513164     0.889234     4.511378
   10      H      -0.513164    -0.889234     4.511378
 ----------------------------------------------------
 Nuclear Repulsion Energy =   100.3551893781 hartrees
 There are       15 alpha and       15 beta electrons
 Requested basis set is G3large
 There are 76 shells and 228 basis functions

Total QAlloc Memory Limit   2000 MB
Mega-Array Size       759 MB
MEM_STATIC part       760 MB

                       Distance Matrix (Angstroms)
             C (  1)   C (  2)   C (  3)   C (  4)   H (  5)   H (  6)
   C (  2)  1.450451
   C (  3)  2.646269  1.195818
   C (  4)  4.096720  2.646269  1.450451
   H (  5)  1.100702  2.112906  3.210904  4.608426
   H (  6)  1.100686  2.113370  3.211630  4.609427  1.778409
   H (  7)  1.100686  2.113370  3.211630  4.609427  1.778409  1.778467
   H (  8)  4.608426  3.210904  2.112906  1.100702  4.888311  5.202824
   H (  9)  4.609427  3.211630  2.113370  1.100686  5.202824  5.203907
   H ( 10)  4.609427  3.211630  2.113370  1.100686  5.202824  4.890572
             H (  7)   H (  8)   H (  9)
   H (  8)  5.202824
   H (  9)  4.890572  1.778409
   H ( 10)  5.203907  1.778409  1.778467
 
 A cutoff of  1.0D-11 yielded   2625 shell pairs
 There are  23986 function pairs ( 29441 Cartesian)
Evaluating contribution to one-electron hamiltonian from nuclear
 Smallest overlap matrix eigenvalue = 2.68E-08

 Q-Chem warning in module mkSTV.C, line 194:

 Overlap eigenvalue is smaller than square root of threshold

 Linear dependence detected in AO basis
 Number of orthogonalized atomic orbitals = 227
 Maximum deviation from orthogonality = 5.688E-11
 Multipole matrices computed through 2nd order
 Guess MOs from SCF MO coefficient file
Reading MOs from coefficient file
Reading MOs from coefficient file
 A restricted hybrid HF-DFT SCF calculation will be
 performed using Pulay DIIS extrapolation
 Exchange:     1.0000 Hartree-Fock + 1.0000 BNL
 Correlation:  1.0000 LYP
 Using SG-1 standard quadrature grid
 SCF converges when DIIS error is below 1.0E-08
 ---------------------------------------
  Cycle       Energy         DIIS Error
 ---------------------------------------
    1    -154.0728954599      6.90E-10
    2    -154.0728954579      5.47E-10 Convergence criterion met
 ---------------------------------------
 One-Electron    Energy =  -406.5812781158
 Total Coulomb   Energy =   173.9764660649
 Alpha Exchange  Energy =    -2.6485972841
 Beta  Exchange  Energy =    -2.6485972841
 DFT   Exchange  Energy =   -15.5626368164
 DFT Correlation Energy =    -0.9634414006
 Nuclear Repu.   Energy =   100.3551893781
 Nuclear Attr.   Energy =  -559.7563699435
 Kinetic         Energy =   153.1750918277
 SCF time:  CPU 39.09 s  wall 39.45 s
 Final Alpha MO Eigenvalues
            1           2           3           4           5           6
    1  -9.9564457  -9.9564185  -9.9329144  -9.9306426  -0.8958151  -0.8561272
            7           8           9          10          11          12
    1  -0.7739711  -0.5835300  -0.5411323  -0.5400583  -0.5400539  -0.5205374
           13          14          15          16          17          18
    1  -0.5205258  -0.3523577  -0.3523387   0.0303453   0.0419578   0.0628051
           19          20
    1   0.0628240   0.0759344
 Analysis of SCF Wavefunction
 
 --------------------------------------------------------------
                    Orbital Energies (a.u.)
 --------------------------------------------------------------
 
 Alpha MOs
 -- Occupied --
 -9.956  -9.956  -9.933  -9.931  -0.896  -0.856  -0.774  -0.584
 -0.541  -0.540  -0.540  -0.521  -0.521  -0.352  -0.352
 -- Virtual --
  0.030   0.042   0.063   0.063   0.076   0.076   0.091   0.120
  0.136   0.136   0.144   0.144   0.155   0.155   0.165   0.168
  0.168   0.173   0.187   0.230   0.230   0.245   0.245   0.265
  0.290   0.290   0.292   0.334   0.351   0.354   0.455   0.517
  0.517   0.530   0.530   0.541   0.571   0.586   0.586   0.628
  0.628   0.654   0.654   0.707   0.708   0.711   0.711   0.729
  0.731   0.754   0.754   0.774   0.795   0.872   0.907   0.914
  0.914   0.956   0.956   0.983   1.027   1.027   1.102   1.102
  1.127   1.190   1.214   1.214   1.227   1.227   1.346   1.346
  1.352   1.352   1.374   1.431   1.439   1.486   1.486   1.507
  1.507   1.519   1.519   1.556   1.610   1.637   1.657   1.657
  1.816   1.817   2.205   2.250   2.423   2.424   2.632   2.632
  2.676   2.714   2.743   2.743   2.762   2.797   2.846   2.846
  2.856   2.960   2.960   2.998   3.031   3.037   3.045   3.055
  3.055   3.120   3.163   3.163   3.206   3.206   3.207   3.226
  3.226   3.230   3.254   3.254   3.343   3.343   3.465   3.465
  3.507   3.507   3.539   3.541   3.541   3.607   3.680   3.680
  3.699   3.699   3.714   3.886   3.886   3.934   3.934   3.938
  3.958   3.971   3.971   4.152   4.217   4.217   4.246   4.276
  4.277   4.383   4.383   4.446   4.446   4.449   4.471   4.482
  4.620   4.745   4.745   4.804   4.977   4.978   5.120   5.475
  5.686   5.686   5.710   5.710   5.992   5.992   6.366   6.882
 23.795  24.472  24.580  25.790  27.548  27.548  27.807  27.807
 28.011  28.143  28.143  28.177  28.177  28.204  28.790  29.711
 40.843  40.884  40.891  40.926  40.935  41.115  41.117  41.185
 41.192  41.198  41.224  41.249  41.252  41.280  41.290  41.310
 41.313  41.525  41.525  41.727
 --------------------------------------------------------------
 
          Ground-State Mulliken Net Atomic Charges

     Atom                 Charge (a.u.)
  ----------------------------------------
      1 C                    -0.832261
      2 C                     0.407340
      3 C                     0.407340
      4 C                    -0.832261
      5 H                     0.141648
      6 H                     0.141637
      7 H                     0.141637
      8 H                     0.141648
      9 H                     0.141637
     10 H                     0.141637
  ----------------------------------------
  Sum of atomic charges =     0.000000

 -----------------------------------------------------------------
                    Cartesian Multipole Moments
 -----------------------------------------------------------------
    Charge (ESU x 10^10)
                 0.0000
    Dipole Moment (Debye)
         X       0.0013      Y       0.0000      Z       0.0000
       Tot       0.0013
    Quadrupole Moments (Debye-Ang)
        XX     -26.2639     XY       0.0000     YY     -26.2634
        XZ       0.0027     YZ       0.0000     ZZ     -19.6265
    Octapole Moments (Debye-Ang^2)
       XXX       1.6326    XXY       0.0000    XYY      -1.6031
       YYY       0.0000    XXZ     -54.2637    XYZ       0.0000
       YYZ     -54.2625    XZZ       0.0050    YZZ       0.0000
       ZZZ    -121.6504
    Hexadecapole Moments (Debye-Ang^3)
      XXXX     -45.0685   XXXY       0.0000   XXYY     -15.0244
      XYYY       0.0000   YYYY     -45.0695   XXXZ       3.3730
      XXYZ       0.0000   XYYZ      -3.3123   YYYZ       0.0000
      XXZZ    -194.5792   XYZZ       0.0000   YYZZ    -194.5598
      XZZZ       0.0081   YZZZ       0.0000   ZZZZ    -972.0194
 -----------------------------------------------------------------
 Calculating analytic gradient of the SCF energy
 Gradient of AOints
            1           2           3           4           5           6
    1   0.0042294  -0.0007135  -0.0007136   0.0042295  -2.8047180   1.4006010
    2  -0.0000002   0.0000001  -0.0000000  -0.0000000   0.0000001   2.4280241
    3   4.0028358  14.1661176 -14.1661175  -4.0028358   1.4926855   1.4965038
            7           8           9          10
    1   1.4006011  -2.8047180   1.4006011   1.4006010
    2  -2.4280241   0.0000000  -2.4280241   2.4280241
    3   1.4965038  -1.4926856  -1.4965038  -1.4965038
 Gradient of XC Energy
            1           2           3           4           5           6
    1  -0.0001441   0.0000153   0.0000153  -0.0001441   0.1506345  -0.0752529
    2   0.0000000  -0.0000000   0.0000000   0.0000000  -0.0000000  -0.1304277
    3   0.0169634  -0.3423781   0.3423781  -0.0169634  -0.0604833  -0.0606380
            7           8           9          10
    1  -0.0752529   0.1506345  -0.0752529  -0.0752529
    2   0.1304277  -0.0000000   0.1304277  -0.1304277
    3  -0.0606380   0.0604833   0.0606380   0.0606380
 Gradient of SCF Energy
            1           2           3           4           5           6
    1  -0.0000215   0.0000248   0.0000248  -0.0000215   0.0000016  -0.0000025
    2   0.0000000  -0.0000000  -0.0000000  -0.0000000  -0.0000000  -0.0000032
    3  -0.0002451   0.0000385  -0.0000385   0.0002451   0.0000453   0.0000477
            7           8           9          10
    1  -0.0000025   0.0000016  -0.0000025  -0.0000025
    2   0.0000032  -0.0000000   0.0000032  -0.0000032
    3   0.0000477  -0.0000453  -0.0000477  -0.0000477
 Max gradient component =       2.451E-04
 RMS gradient           =       6.797E-05
 Gradient time:  CPU 97.10 s  wall 97.38 s
 ######################################################
 ######################################################
 # Starting finite difference calculation for IDERIV  #
 Finite diff step size: 1.89e-03 a.u.
 Writing REM_CC_EA           10
 ----------------------------------------------------
       Standard Nuclear Orientation (Angstroms)
    I     Atom         X            Y            Z
 ----------------------------------------------------
    1      C       0.000888     0.000000     0.017732
    2      C      -0.000528     0.000000     1.468183
    3      C      -0.000528     0.000000     2.664001
    4      C      -0.000112     0.000000     4.114452
    5      H       1.026967     0.000000    -0.378064
    6      H      -0.513164    -0.889234    -0.379194
    7      H      -0.513164     0.889234    -0.379194
    8      H       1.026967     0.000000     4.510247
    9      H      -0.513164     0.889234     4.511378
   10      H      -0.513164    -0.889234     4.511378
 ----------------------------------------------------
 Nuclear Repulsion Energy =   100.3551858976 hartrees
 There are       15 alpha and       15 beta electrons

                       Distance Matrix (Angstroms)
             C (  1)   C (  2)   C (  3)   C (  4)   H (  5)   H (  6)
   C (  2)  1.450452
   C (  3)  2.646270  1.195818
   C (  4)  4.096720  2.646269  1.450451
   H (  5)  1.099769  2.112906  3.210904  4.608426
   H (  6)  1.101152  2.113370  3.211630  4.609427  1.778409
   H (  7)  1.101152  2.113370  3.211630  4.609427  1.778409  1.778467
   H (  8)  4.608203  3.210904  2.112906  1.100702  4.888311  5.202824
   H (  9)  4.609538  3.211630  2.113370  1.100686  5.202824  5.203907
   H ( 10)  4.609538  3.211630  2.113370  1.100686  5.202824  4.890572
             H (  7)   H (  8)   H (  9)
   H (  8)  5.202824
   H (  9)  4.890572  1.778409
   H ( 10)  5.203907  1.778409  1.778467
 
 Requested basis set is G3large
 There are 76 shells and 228 basis functions
 A cutoff of  1.0D-11 yielded   2625 shell pairs
 There are  23986 function pairs ( 29441 Cartesian)
Evaluating contribution to one-electron hamiltonian from nuclear
 Smallest overlap matrix eigenvalue = 2.68E-08

 Q-Chem warning in module mkSTV.C, line 194:

 Overlap eigenvalue is smaller than square root of threshold

 Linear dependence detected in AO basis
 Number of orthogonalized atomic orbitals = 227
 Maximum deviation from orthogonality = 2.034E-11
 Multipole matrices computed through 2nd order
 Guess MOs from SCF MO coefficient file
Reading MOs from coefficient file
Reading MOs from coefficient file
 A restricted hybrid HF-DFT SCF calculation will be
 performed using Pulay DIIS extrapolation
 Exchange:     1.0000 Hartree-Fock + 1.0000 BNL
 Correlation:  1.0000 LYP
 Using SG-1 standard quadrature grid
 SCF converges when DIIS error is below 1.0E-08
 ---------------------------------------
  Cycle       Energy         DIIS Error
 ---------------------------------------
    1    -154.0728947095      2.18E-05
    2    -154.0728944815      2.77E-06
    3    -154.0728945455      1.04E-06
    4    -154.0728945516      1.53E-07
    5    -154.0728945509      4.47E-08
    6    -154.0728945518      1.82E-08
    7    -154.0728945516      1.21E-08
    8    -154.0728945514      2.19E-09 Convergence criterion met
 ---------------------------------------
 One-Electron    Energy =  -406.5812688423
 Total Coulomb   Energy =   173.9764611341
 Alpha Exchange  Energy =    -2.6485972627
 Beta  Exchange  Energy =    -2.6485972627
 DFT   Exchange  Energy =   -15.5626368331
 DFT Correlation Energy =    -0.9634413822
 Nuclear Repu.   Energy =   100.3551858976
 Nuclear Attr.   Energy =  -559.7563619757
 Kinetic         Energy =   153.1750931334
 SCF time:  CPU 127.51 s  wall 128.81 s
 Final Alpha MO Eigenvalues
            1           2           3           4           5           6
    1  -9.9564457  -9.9564185  -9.9329144  -9.9306426  -0.8958151  -0.8561272
            7           8           9          10          11          12
    1  -0.7739711  -0.5835300  -0.5411324  -0.5401315  -0.5399815  -0.5206221
           13          14          15          16          17          18
    1  -0.5204402  -0.3523693  -0.3523271   0.0303452   0.0419578   0.0628138
           19          20
    1   0.0628153   0.0759373
 Analysis of SCF Wavefunction
 
 --------------------------------------------------------------
                    Orbital Energies (a.u.)
 --------------------------------------------------------------
 
 Alpha MOs
 -- Occupied --
 -9.956  -9.956  -9.933  -9.931  -0.896  -0.856  -0.774  -0.584
 -0.541  -0.540  -0.540  -0.521  -0.520  -0.352  -0.352
 -- Virtual --
  0.030   0.042   0.063   0.063   0.076   0.076   0.091   0.120
  0.136   0.136   0.144   0.144   0.155   0.155   0.165   0.168
  0.168   0.173   0.187   0.230   0.230   0.245   0.245   0.265
  0.290   0.290   0.292   0.334   0.351   0.354   0.455   0.517
  0.517   0.530   0.530   0.541   0.571   0.586   0.586   0.628
  0.628   0.654   0.654   0.707   0.708   0.711   0.711   0.729
  0.731   0.754   0.754   0.774   0.795   0.872   0.907   0.914
  0.915   0.956   0.956   0.983   1.027   1.028   1.102   1.102
  1.127   1.190   1.214   1.214   1.227   1.227   1.346   1.346
  1.352   1.352   1.374   1.430   1.439   1.486   1.486   1.507
  1.507   1.519   1.519   1.556   1.610   1.637   1.657   1.657
  1.816   1.817   2.205   2.250   2.423   2.424   2.632   2.632
  2.676   2.714   2.743   2.743   2.762   2.797   2.846   2.846
  2.856   2.960   2.960   2.998   3.031   3.037   3.045   3.055
  3.055   3.120   3.163   3.163   3.206   3.206   3.207   3.226
  3.226   3.230   3.254   3.254   3.343   3.343   3.465   3.465
  3.507   3.507   3.539   3.540   3.541   3.607   3.679   3.680
  3.699   3.699   3.714   3.886   3.886   3.934   3.934   3.938
  3.958   3.971   3.971   4.152   4.217   4.217   4.246   4.276
  4.277   4.383   4.384   4.446   4.446   4.449   4.471   4.482
  4.620   4.745   4.745   4.804   4.977   4.978   5.120   5.475
  5.686   5.687   5.710   5.711   5.992   5.992   6.366   6.882
 23.795  24.472  24.580  25.790  27.548  27.548  27.807  27.807
 28.011  28.142  28.143  28.176  28.177  28.204  28.790  29.711
 40.843  40.883  40.891  40.926  40.935  41.115  41.117  41.185
 41.192  41.198  41.224  41.249  41.252  41.281  41.290  41.310
 41.312  41.525  41.525  41.727
 --------------------------------------------------------------
 
          Ground-State Mulliken Net Atomic Charges

     Atom                 Charge (a.u.)
  ----------------------------------------
      1 C                    -0.832257
      2 C                     0.407333
      3 C                     0.407339
      4 C                    -0.832257
      5 H                     0.141806
      6 H                     0.141557
      7 H                     0.141557
      8 H                     0.141657
      9 H                     0.141632
     10 H                     0.141632
  ----------------------------------------
  Sum of atomic charges =     0.000000

 -----------------------------------------------------------------
                    Cartesian Multipole Moments
 -----------------------------------------------------------------
    Charge (ESU x 10^10)
                 0.0000
    Dipole Moment (Debye)
         X       0.0016      Y       0.0000      Z       0.0000
       Tot       0.0016
    Quadrupole Moments (Debye-Ang)
        XX     -26.2624     XY       0.0000     YY     -26.2649
        XZ       0.0026     YZ       0.0000     ZZ     -19.6265
    Octapole Moments (Debye-Ang^2)
       XXX       1.6204    XXY       0.0000    XYY      -1.6072
       YYY       0.0000    XXZ     -54.2641    XYZ       0.0000
       YYZ     -54.2621    XZZ       0.0028    YZZ       0.0000
       ZZZ    -121.6504
    Hexadecapole Moments (Debye-Ang^3)
      XXXX     -45.0619   XXXY       0.0000   XXYY     -15.0235
      XYYY       0.0000   YYYY     -45.0781   XXXZ       3.3729
      XXYZ       0.0000   XYYZ      -3.3123   YYYZ       0.0000
      XXZZ    -194.5762   XYZZ       0.0000   YYZZ    -194.5629
      XZZZ       0.0116   YZZZ       0.0000   ZZZZ    -972.0193
 -----------------------------------------------------------------
 Calculating analytic gradient of the SCF energy
 Gradient of AOints
            1           2           3           4           5           6
    1  -0.0098611   0.0121528  -0.0056987   0.0049268  -2.8054813   1.4037583
    2  -0.0000000   0.0000002  -0.0000005   0.0000002   0.0000001   2.4257616
    3   4.0028430  14.1660868 -14.1660984  -4.0028237   1.4948409   1.4954222
            7           8           9          10
    1   1.4037584  -2.8047511   1.4005979   1.4005979
    2  -2.4257616   0.0000000  -2.4280070   2.4280070
    3   1.4954222  -1.4928037  -1.4964446  -1.4964446
 Gradient of XC Energy
            1           2           3           4           5           6
    1   0.0002823  -0.0003629   0.0001420  -0.0001523   0.1507201  -0.0753798
    2   0.0000000  -0.0000000   0.0000000  -0.0000000  -0.0000000  -0.1303049
    3   0.0169626  -0.3423774   0.3423778  -0.0169637  -0.0605961  -0.0605812
            7           8           9          10
    1  -0.0753798   0.1506353  -0.0752524  -0.0752524
    2   0.1303049  -0.0000000   0.1304275  -0.1304275
    3  -0.0605812   0.0604856   0.0606368   0.0606368
 Gradient of SCF Energy
            1           2           3           4           5           6
    1   0.0009836  -0.0001000   0.0000389  -0.0000104  -0.0005229  -0.0001925
    2  -0.0000000  -0.0000000  -0.0000000  -0.0000000  -0.0000000  -0.0001948
    3  -0.0002465   0.0000390  -0.0000386   0.0002451   0.0002092  -0.0000338
            7           8           9          10
    1  -0.0001925   0.0000015  -0.0000029  -0.0000029
    2   0.0001948  -0.0000000   0.0000031  -0.0000031
    3  -0.0000338  -0.0000424  -0.0000491  -0.0000491
 Max gradient component =       9.836E-04
 RMS gradient           =       2.294E-04
 Gradient time:  CPU 97.64 s  wall 97.91 s
 Writing REM_CC_EA           10
 ----------------------------------------------------
       Standard Nuclear Orientation (Angstroms)
    I     Atom         X            Y            Z
 ----------------------------------------------------
    1      C      -0.001112     0.000000     0.017732
    2      C      -0.000528     0.000000     1.468183
    3      C      -0.000528     0.000000     2.664001
    4      C      -0.000112     0.000000     4.114452
    5      H       1.026967     0.000000    -0.378064
    6      H      -0.513164    -0.889234    -0.379194
    7      H      -0.513164     0.889234    -0.379194
    8      H       1.026967     0.000000     4.510247
    9      H      -0.513164     0.889234     4.511378
   10      H      -0.513164    -0.889234     4.511378
 ----------------------------------------------------
 Nuclear Repulsion Energy =   100.3551874006 hartrees
 There are       15 alpha and       15 beta electrons

                       Distance Matrix (Angstroms)
             C (  1)   C (  2)   C (  3)   C (  4)   H (  5)   H (  6)
   C (  2)  1.450451
   C (  3)  2.646269  1.195818
   C (  4)  4.096720  2.646269  1.450451
   H (  5)  1.101635  2.112906  3.210904  4.608426
   H (  6)  1.100220  2.113370  3.211630  4.609427  1.778409
   H (  7)  1.100220  2.113370  3.211630  4.609427  1.778409  1.778467
   H (  8)  4.608649  3.210904  2.112906  1.100702  4.888311  5.202824
   H (  9)  4.609316  3.211630  2.113370  1.100686  5.202824  5.203907
   H ( 10)  4.609316  3.211630  2.113370  1.100686  5.202824  4.890572
             H (  7)   H (  8)   H (  9)
   H (  8)  5.202824
   H (  9)  4.890572  1.778409
   H ( 10)  5.203907  1.778409  1.778467
 
 Requested basis set is G3large
 There are 76 shells and 228 basis functions
 A cutoff of  1.0D-11 yielded   2625 shell pairs
 There are  23986 function pairs ( 29441 Cartesian)
Evaluating contribution to one-electron hamiltonian from nuclear
 Smallest overlap matrix eigenvalue = 2.68E-08

 Q-Chem warning in module mkSTV.C, line 194:

 Overlap eigenvalue is smaller than square root of threshold

 Linear dependence detected in AO basis
 Number of orthogonalized atomic orbitals = 227
 Maximum deviation from orthogonality = 5.848E-11
 Multipole matrices computed through 2nd order
 Guess MOs from SCF MO coefficient file
Reading MOs from coefficient file
Reading MOs from coefficient file
 A restricted hybrid HF-DFT SCF calculation will be
 performed using Pulay DIIS extrapolation
 Exchange:     1.0000 Hartree-Fock + 1.0000 BNL
 Correlation:  1.0000 LYP
 Using SG-1 standard quadrature grid
 SCF converges when DIIS error is below 1.0E-08
 ---------------------------------------
  Cycle       Energy         DIIS Error
 ---------------------------------------
    1    -154.0728962030      4.36E-05
    2    -154.0728941911      5.53E-06
    3    -154.0728944522      2.08E-06
    4    -154.0728944707      3.05E-07
    5    -154.0728944772      8.91E-08
    6    -154.0728944758      3.50E-08
    7    -154.0728944759      2.41E-08
    8    -154.0728944733      4.44E-09 Convergence criterion met
 ---------------------------------------
 One-Electron    Energy =  -406.5812715837
 Total Coulomb   Energy =   173.9764622331
 Alpha Exchange  Energy =    -2.6485972291
 Beta  Exchange  Energy =    -2.6485972291
 DFT   Exchange  Energy =   -15.5626366694
 DFT Correlation Energy =    -0.9634413957
 Nuclear Repu.   Energy =   100.3551874006
 Nuclear Attr.   Energy =  -559.7563637422
 Kinetic         Energy =   153.1750921585
 SCF time:  CPU 131.26 s  wall 132.74 s
 Final Alpha MO Eigenvalues
            1           2           3           4           5           6
    1  -9.9564458  -9.9564186  -9.9329145  -9.9306427  -0.8958151  -0.8561272
            7           8           9          10          11          12
    1  -0.7739711  -0.5835303  -0.5411371  -0.5401358  -0.5399725  -0.5206338
           13          14          15          16          17          18
    1  -0.5204282  -0.3523883  -0.3523080   0.0303452   0.0419578   0.0627964
           19          20
    1   0.0628326   0.0759315
 Analysis of SCF Wavefunction
 
 --------------------------------------------------------------
                    Orbital Energies (a.u.)
 --------------------------------------------------------------
 
 Alpha MOs
 -- Occupied --
 -9.956  -9.956  -9.933  -9.931  -0.896  -0.856  -0.774  -0.584
 -0.541  -0.540  -0.540  -0.521  -0.520  -0.352  -0.352
 -- Virtual --
  0.030   0.042   0.063   0.063   0.076   0.076   0.091   0.120
  0.136   0.136   0.144   0.144   0.155   0.155   0.165   0.168
  0.168   0.173   0.187   0.230   0.230   0.245   0.245   0.265
  0.290   0.290   0.292   0.334   0.351   0.354   0.455   0.517
  0.517   0.530   0.530   0.541   0.571   0.586   0.586   0.628
  0.628   0.654   0.654   0.707   0.708   0.711   0.711   0.729
  0.731   0.754   0.754   0.774   0.795   0.872   0.907   0.914
  0.914   0.956   0.956   0.983   1.027   1.027   1.102   1.102
  1.127   1.190   1.214   1.214   1.227   1.227   1.346   1.346
  1.352   1.352   1.374   1.431   1.439   1.486   1.486   1.507
  1.507   1.519   1.519   1.556   1.610   1.637   1.657   1.658
  1.816   1.817   2.205   2.250   2.423   2.424   2.632   2.632
  2.676   2.714   2.743   2.743   2.762   2.797   2.846   2.846
  2.856   2.960   2.960   2.998   3.031   3.037   3.045   3.055
  3.055   3.120   3.163   3.163   3.206   3.206   3.207   3.225
  3.226   3.230   3.254   3.254   3.343   3.343   3.465   3.465
  3.507   3.507   3.539   3.540   3.541   3.607   3.680   3.680
  3.699   3.699   3.714   3.885   3.886   3.933   3.934   3.938
  3.958   3.971   3.971   4.152   4.217   4.217   4.246   4.276
  4.277   4.383   4.384   4.446   4.446   4.449   4.471   4.482
  4.620   4.745   4.745   4.804   4.977   4.978   5.120   5.475
  5.686   5.687   5.709   5.711   5.992   5.992   6.366   6.882
 23.795  24.472  24.580  25.790  27.547  27.548  27.807  27.807
 28.011  28.142  28.143  28.176  28.177  28.204  28.790  29.711
 40.843  40.884  40.891  40.926  40.934  41.115  41.117  41.185
 41.192  41.198  41.224  41.249  41.252  41.280  41.290  41.310
 41.313  41.525  41.525  41.727
 --------------------------------------------------------------
 
          Ground-State Mulliken Net Atomic Charges

     Atom                 Charge (a.u.)
  ----------------------------------------
      1 C                    -0.832264
      2 C                     0.407340
      3 C                     0.407344
      4 C                    -0.832263
      5 H                     0.141489
      6 H                     0.141716
      7 H                     0.141716
      8 H                     0.141639
      9 H                     0.141641
     10 H                     0.141641
  ----------------------------------------
  Sum of atomic charges =     0.000000

 -----------------------------------------------------------------
                    Cartesian Multipole Moments
 -----------------------------------------------------------------
    Charge (ESU x 10^10)
                 0.0000
    Dipole Moment (Debye)
         X       0.0010      Y       0.0000      Z       0.0000
       Tot       0.0010
    Quadrupole Moments (Debye-Ang)
        XX     -26.2655     XY       0.0000     YY     -26.2618
        XZ       0.0027     YZ       0.0000     ZZ     -19.6265
    Octapole Moments (Debye-Ang^2)
       XXX       1.6448    XXY       0.0000    XYY      -1.5991
       YYY       0.0000    XXZ     -54.2633    XYZ       0.0000
       YYZ     -54.2629    XZZ       0.0072    YZZ       0.0000
       ZZZ    -121.6504
    Hexadecapole Moments (Debye-Ang^3)
      XXXX     -45.0752   XXXY       0.0000   XXYY     -15.0254
      XYYY       0.0000   YYYY     -45.0610   XXXZ       3.3732
      XXYZ       0.0000   XYYZ      -3.3122   YYYZ       0.0000
      XXZZ    -194.5822   XYZZ       0.0000   YYZZ    -194.5568
      XZZZ       0.0047   YZZZ       0.0000   ZZZZ    -972.0194
 -----------------------------------------------------------------
 Calculating analytic gradient of the SCF energy
 Gradient of AOints
            1           2           3           4           5           6
    1   0.0183264  -0.0135848   0.0042747   0.0035330  -2.8039494   1.3974383
    2   0.0000008  -0.0000013   0.0000015  -0.0000011   0.0000001   2.4302839
    3   4.0028516  14.1660837 -14.1660945  -4.0028422   1.4905272   1.4975837
            7           8           9          10
    1   1.3974383  -2.8046849   1.4006042   1.4006042
    2  -2.4302839   0.0000000  -2.4280412   2.4280412
    3   1.4975837  -1.4925674  -1.4965629  -1.4965629
 Gradient of XC Energy
            1           2           3           4           5           6
    1  -0.0005709   0.0003937  -0.0001114  -0.0001359   0.1505486  -0.0751256
    2  -0.0000000   0.0000000  -0.0000000   0.0000000  -0.0000000  -0.1305504
    3   0.0169635  -0.3423773   0.3423775  -0.0169633  -0.0603704  -0.0606946
            7           8           9          10
    1  -0.0751256   0.1506337  -0.0752533  -0.0752533
    2   0.1305504  -0.0000000   0.1304280  -0.1304280
    3  -0.0606946   0.0604809   0.0606391   0.0606391
 Gradient of SCF Energy
            1           2           3           4           5           6
    1  -0.0010233   0.0001496   0.0000108  -0.0000325   0.0005232   0.0001874
    2   0.0000000  -0.0000000  -0.0000000  -0.0000000  -0.0000000   0.0001888
    3  -0.0002461   0.0000386  -0.0000386   0.0002451  -0.0001172   0.0001294
            7           8           9          10
    1   0.0001874   0.0000017  -0.0000021  -0.0000021
    2  -0.0001888  -0.0000000   0.0000034  -0.0000034
    3   0.0001294  -0.0000482  -0.0000462  -0.0000463
 Max gradient component =       1.023E-03
 RMS gradient           =       2.355E-04
 Gradient time:  CPU 97.43 s  wall 98.16 s
 Writing REM_CC_EA           10
 ----------------------------------------------------
       Standard Nuclear Orientation (Angstroms)
    I     Atom         X            Y            Z
 ----------------------------------------------------
    1      C      -0.000112     0.001000     0.017732
    2      C      -0.000528     0.000000     1.468183
    3      C      -0.000528     0.000000     2.664001
    4      C      -0.000112     0.000000     4.114452
    5      H       1.026967     0.000000    -0.378064
    6      H      -0.513164    -0.889234    -0.379194
    7      H      -0.513164     0.889234    -0.379194
    8      H       1.026967     0.000000     4.510247
    9      H      -0.513164     0.889234     4.511378
   10      H      -0.513164    -0.889234     4.511378
 ----------------------------------------------------
 Nuclear Repulsion Energy =   100.3551866496 hartrees
 There are       15 alpha and       15 beta electrons

                       Distance Matrix (Angstroms)
             C (  1)   C (  2)   C (  3)   C (  4)   H (  5)   H (  6)
   C (  2)  1.450451
   C (  3)  2.646269  1.195818
   C (  4)  4.096720  2.646269  1.450451
   H (  5)  1.100703  2.112906  3.210904  4.608426
   H (  6)  1.101494  2.113370  3.211630  4.609427  1.778409
   H (  7)  1.099878  2.113370  3.211630  4.609427  1.778409  1.778467
   H (  8)  4.608426  3.210904  2.112906  1.100702  4.888311  5.202824
   H (  9)  4.609234  3.211630  2.113370  1.100686  5.202824  5.203907
   H ( 10)  4.609620  3.211630  2.113370  1.100686  5.202824  4.890572
             H (  7)   H (  8)   H (  9)
   H (  8)  5.202824
   H (  9)  4.890572  1.778409
   H ( 10)  5.203907  1.778409  1.778467
 
 Requested basis set is G3large
 There are 76 shells and 228 basis functions
 A cutoff of  1.0D-11 yielded   2625 shell pairs
 There are  23986 function pairs ( 29441 Cartesian)
Evaluating contribution to one-electron hamiltonian from nuclear
 Smallest overlap matrix eigenvalue = 2.68E-08

 Q-Chem warning in module mkSTV.C, line 194:

 Overlap eigenvalue is smaller than square root of threshold

 Linear dependence detected in AO basis
 Number of orthogonalized atomic orbitals = 227
 Maximum deviation from orthogonality = 4.180E-11
 Multipole matrices computed through 2nd order
 Guess MOs from SCF MO coefficient file
Reading MOs from coefficient file
Reading MOs from coefficient file
 A restricted hybrid HF-DFT SCF calculation will be
 performed using Pulay DIIS extrapolation
 Exchange:     1.0000 Hartree-Fock + 1.0000 BNL
 Correlation:  1.0000 LYP
 Using SG-1 standard quadrature grid
 SCF converges when DIIS error is below 1.0E-08
 ---------------------------------------
  Cycle       Energy         DIIS Error
 ---------------------------------------
    1    -154.0728965135      3.09E-05
    2    -154.0728943716      3.91E-06
    3    -154.0728945008      1.47E-06
    4    -154.0728945119      2.16E-07
    5    -154.0728945127      6.10E-08
    6    -154.0728945128      1.47E-08
    7    -154.0728945131      1.04E-08
    8    -154.0728945130      4.39E-09 Convergence criterion met
 ---------------------------------------
 One-Electron    Energy =  -406.5812702082
 Total Coulomb   Energy =   173.9764616764
 Alpha Exchange  Energy =    -2.6485972458
 Beta  Exchange  Energy =    -2.6485972458
 DFT   Exchange  Energy =   -15.5626367502
 DFT Correlation Energy =    -0.9634413889
 Nuclear Repu.   Energy =   100.3551866496
 Nuclear Attr.   Energy =  -559.7563628534
 Kinetic         Energy =   153.1750926451
 SCF time:  CPU 128.83 s  wall 130.01 s
 Final Alpha MO Eigenvalues
            1           2           3           4           5           6
    1  -9.9564458  -9.9564185  -9.9329145  -9.9306426  -0.8958151  -0.8561272
            7           8           9          10          11          12
    1  -0.7739711  -0.5835302  -0.5411352  -0.5401310  -0.5399793  -0.5206280
           13          14          15          16          17          18
    1  -0.5204341  -0.3523802  -0.3523161   0.0303452   0.0419578   0.0628017
           19          20
    1   0.0628273   0.0759338
 Analysis of SCF Wavefunction
 
 --------------------------------------------------------------
                    Orbital Energies (a.u.)
 --------------------------------------------------------------
 
 Alpha MOs
 -- Occupied --
 -9.956  -9.956  -9.933  -9.931  -0.896  -0.856  -0.774  -0.584
 -0.541  -0.540  -0.540  -0.521  -0.520  -0.352  -0.352
 -- Virtual --
  0.030   0.042   0.063   0.063   0.076   0.076   0.091   0.120
  0.136   0.136   0.144   0.144   0.155   0.155   0.165   0.168
  0.168   0.173   0.187   0.230   0.230   0.245   0.245   0.265
  0.290   0.290   0.292   0.334   0.351   0.354   0.455   0.517
  0.517   0.530   0.530   0.541   0.571   0.586   0.586   0.628
  0.628   0.654   0.654   0.707   0.708   0.711   0.711   0.729
  0.731   0.754   0.754   0.774   0.795   0.872   0.907   0.914
  0.914   0.956   0.956   0.983   1.027   1.028   1.102   1.102
  1.127   1.190   1.214   1.214   1.227   1.227   1.346   1.346
  1.352   1.352   1.374   1.430   1.439   1.486   1.486   1.507
  1.507   1.519   1.519   1.556   1.610   1.637   1.657   1.658
  1.816   1.817   2.205   2.250   2.423   2.424   2.632   2.632
  2.676   2.714   2.743   2.743   2.762   2.797   2.846   2.846
  2.856   2.960   2.960   2.998   3.031   3.037   3.045   3.055
  3.055   3.120   3.163   3.163   3.206   3.206   3.207   3.226
  3.226   3.230   3.254   3.254   3.343   3.343   3.465   3.465
  3.507   3.507   3.539   3.540   3.541   3.607   3.679   3.680
  3.699   3.699   3.714   3.885   3.886   3.934   3.934   3.938
  3.958   3.971   3.971   4.152   4.217   4.217   4.246   4.276
[...]
Order 1, Length 30
  -0.1015044  -0.2179333  -0.0742572   0.0030196   0.0034476  -0.0020443  -0.0004543   0.0001760   0.0014536   0.0000931  -0.0001015  -0.0002167   0.0010327   0.0009628   0.0014470   0.1099408   0.2315546   0.0817676  -0.0120230  -0.0180630  -0.0082462   0.0000102   0.0000122   0.0000624  -0.0000372  -0.0000297  -0.0000519  -0.0000802  -0.0000239   0.0000778
Order 1, Length 30
  -0.0431795  -0.0747677  -0.0738580  -0.0157118  -0.0272360  -0.0172670   0.0007047   0.0012190   0.0002549   0.0007666   0.0013293  -0.0003307   0.0039308   0.0096870   0.0035920   0.0471864   0.0817676   0.0844646   0.0064433   0.0082472   0.0035939   0.0000046  -0.0001147   0.0000440  -0.0001016  -0.0000522   0.0000435  -0.0000466  -0.0000793  -0.0005418
Order 1, Length 30
  -0.1005218   0.1015029  -0.0428492  -0.0000259  -0.0030332  -0.0011754   0.0007024   0.0004533   0.0008415  -0.0002073  -0.0000932  -0.0001223  -0.0117171   0.0230287  -0.0103776   0.0073146  -0.0120230   0.0064433   0.1043754  -0.1099406   0.0471866  -0.0000160   0.0000618  -0.0000962   0.0000666   0.0000793   0.0000453   0.0000296  -0.0000362   0.0001016
Order 1, Length 30
   0.1015030  -0.2179345   0.0742587  -0.0030192   0.0034477   0.0020481   0.0004539   0.0001758  -0.0014611  -0.0000924  -0.0000992   0.0002146  -0.0010323   0.0009591  -0.0014473   0.0120226  -0.0180630   0.0082472  -0.1099406   0.2315551  -0.0817661  -0.0000099   0.0000149  -0.0000616   0.0000802  -0.0000263  -0.0000795   0.0000361  -0.0000297   0.0000516
Order 1, Length 30
  -0.0431811   0.0747682  -0.0738592  -0.0157093   0.0272328  -0.0172618   0.0007050  -0.0012209   0.0002508   0.0007654  -0.0013246  -0.0003301   0.0039295  -0.0096857   0.0035932   0.0064429  -0.0082462   0.0035939   0.0471866  -0.0817661   0.0844636   0.0000067   0.0001123   0.0000441  -0.0000461   0.0000778  -0.0005418  -0.0001017   0.0000513   0.0000436
Order 1, Length 30
  -0.0000429  -0.0000019  -0.0002491  -0.0000789   0.0000030   0.0016868   0.0051618  -0.0000016  -0.0023714  -0.2767726   0.0000008  -0.0856997  -0.0000720   0.0000006   0.0000907  -0.0000160   0.0000102   0.0000046  -0.0000160  -0.0000099   0.0000067   0.2952708  -0.0000007   0.0943848  -0.0117161  -0.0010337  -0.0039311  -0.0117166   0.0010340  -0.0039301
Order 1, Length 30
   0.0000030  -0.0002576   0.0000021  -0.0000008   0.0009626   0.0000100  -0.0000026  -0.0017770  -0.0000050  -0.0000001  -0.0421183  -0.0000025   0.0000004   0.0001109  -0.0000013  -0.0000634   0.0000122  -0.0001147   0.0000618   0.0000149   0.0001123  -0.0000007   0.0411307   0.0000005   0.0230292   0.0009591   0.0096854  -0.0230270   0.0009627  -0.0096873
Order 1, Length 30
   0.0015352   0.0000012  -0.0003309   0.0014133   0.0000001   0.0002492  -0.0314427  -0.0000010  -0.0172334  -0.0863615  -0.0000009  -0.0740676  -0.0000914   0.0000005  -0.0005411  -0.0000954   0.0000624   0.0000440  -0.0000962  -0.0000616   0.0000441   0.0943848   0.0000005   0.0846454   0.0103779   0.0014471   0.0035920   0.0103770  -0.0014472   0.0035933
Order 1, Length 30
  -0.0002086  -0.0000926   0.0001257   0.0007027   0.0004540  -0.0008399  -0.0000263  -0.0030319   0.0011763  -0.1005219   0.1015012   0.0428485  -0.0000145   0.0000614   0.0000954   0.0000298  -0.0000372  -0.0001016   0.0000666   0.0000802  -0.0000461  -0.0117161   0.0230292   0.0103779   0.1043761  -0.1099417  -0.0471877   0.0073142  -0.0120228  -0.0064435
Order 1, Length 30
  -0.0000926  -0.0000993  -0.0002142   0.0004530   0.0001757   0.0014610  -0.0030192   0.0034477  -0.0020517   0.1015021  -0.2179346  -0.0742595  -0.0000102   0.0000149   0.0000612   0.0000348  -0.0000297  -0.0000522   0.0000793  -0.0000263   0.0000778  -0.0010337   0.0009591   0.0014471  -0.1099417   0.2315552   0.0817679   0.0120231  -0.0180630  -0.0082454
Order 1, Length 30
  -0.0007668   0.0013292  -0.0003308  -0.0007052   0.0012194   0.0002552   0.0157118  -0.0272364  -0.0172673   0.0431788  -0.0747684  -0.0738582  -0.0000057  -0.0001126   0.0000440   0.0001004  -0.0000519   0.0000435   0.0000453  -0.0000795  -0.0005418  -0.0039311   0.0096854   0.0035920  -0.0471877   0.0817679   0.0844648  -0.0064423   0.0082478   0.0035940
Order 1, Length 30
  -0.0002079   0.0000934   0.0001254   0.0007037  -0.0004552  -0.0008391  -0.0000238   0.0030317   0.0011737  -0.1005246  -0.1014989   0.0428485  -0.0000143  -0.0000631   0.0000949   0.0000654  -0.0000802  -0.0000466   0.0000296   0.0000361  -0.0001017  -0.0117166  -0.0230270   0.0103770   0.0073142   0.0120231  -0.0064423   0.1043760   0.1099419  -0.0471874
Order 1, Length 30
   0.0000933  -0.0001015   0.0002172  -0.0004534   0.0001760  -0.0014541   0.0030196   0.0034478   0.0020411  -0.1015035  -0.2179334   0.0742565   0.0000109   0.0000122  -0.0000628  -0.0000792  -0.0000239  -0.0000793  -0.0000362  -0.0000297   0.0000513   0.0010340   0.0009627  -0.0014472  -0.0120228  -0.0180630   0.0082478   0.1099419   0.2315547  -0.0817660
Order 1, Length 30
  -0.0007656  -0.0013247  -0.0003302  -0.0007056  -0.0012205   0.0002507   0.0157094   0.0272323  -0.0172617   0.0431799   0.0747677  -0.0738593  -0.0000064   0.0001144   0.0000441   0.0000450   0.0000778  -0.0005418   0.0001016   0.0000516   0.0000436  -0.0039301  -0.0096873   0.0035933  -0.0064435  -0.0082454   0.0035940  -0.0471874  -0.0817660   0.0844636


 # Finishing finite difference calculation for IDERIV #
 ######################################################
 ######################################################
 Requested basis set is G3large
 There are 76 shells and 228 basis functions
 **********************************************************************
 **                                                                  **
 **                       VIBRATIONAL ANALYSIS                       **
 **                       --------------------                       **
 **                                                                  **
 **        VIBRATIONAL FREQUENCIES (CM**-1) AND NORMAL MODES         **
 **     FORCE CONSTANTS (mDYN/ANGSTROM) AND REDUCED MASSES (AMU)     **
 **                  INFRARED INTENSITIES (KM/MOL)                   **
 **                                                                  **
 **********************************************************************
 

 Mode:                 1                      2                      3
 Frequency:        69.78                 205.87                 206.92
 Force Cnst:      0.0029                 0.0686                 0.0694
 Red. Mass:       1.0078                 2.7488                 2.7510
 IR Active:          YES                    YES                    YES
 IR Intens:        0.000                 13.734                 13.744
 Raman Active:       YES                    YES                    YES
               X      Y      Z        X      Y      Z        X      Y      Z
 C          0.000  0.000  0.000    0.003 -0.159  0.000   -0.159 -0.003  0.000
 C          0.000  0.000  0.000   -0.005  0.232  0.000    0.232  0.005  0.000
 C          0.000  0.000  0.000   -0.005  0.232  0.000    0.232  0.005  0.000
 C          0.000  0.000  0.000    0.003 -0.159  0.000   -0.159 -0.003  0.000
 H          0.000  0.408  0.000    0.006 -0.290  0.007   -0.289 -0.006 -0.334
 H          0.354 -0.204  0.000    0.007 -0.290  0.286   -0.291 -0.006  0.174
 H         -0.354 -0.204  0.000    0.005 -0.290 -0.294   -0.291 -0.007  0.161
 H          0.000 -0.408  0.000    0.006 -0.290 -0.007   -0.289 -0.006  0.334
 H          0.354  0.204  0.000    0.006 -0.290  0.294   -0.291 -0.007 -0.161
 H         -0.354  0.204  0.000    0.007 -0.290 -0.286   -0.291 -0.006 -0.174
 TransDip   0.000  0.000  0.000    0.003 -0.119  0.000   -0.119 -0.003  0.000

 Mode:                 4                      5                      6
 Frequency:       447.03                 447.55                 743.59
 Force Cnst:      0.4197                 0.4214                 1.0947
 Red. Mass:       3.5648                 3.5704                 3.3603
 IR Active:          YES                    YES                    YES
 IR Intens:        0.000                  0.000                  0.000
 Raman Active:       YES                    YES                    YES
               X      Y      Z        X      Y      Z        X      Y      Z
 C          0.000 -0.016  0.000   -0.016  0.000  0.000    0.000  0.000 -0.323
 C          0.002  0.341  0.000    0.341 -0.002  0.000    0.000  0.000 -0.050
 C         -0.002 -0.341  0.000   -0.341  0.002  0.000    0.000  0.000  0.050
 C          0.000  0.016  0.000    0.016  0.000  0.000    0.000  0.000  0.323
 H         -0.001 -0.194 -0.002   -0.183  0.001 -0.429   -0.012  0.000 -0.361
 H          0.003 -0.186  0.373   -0.192  0.005  0.213    0.006  0.010 -0.362
 H         -0.005 -0.186 -0.371   -0.192 -0.003  0.217    0.006 -0.010 -0.362
 H          0.001  0.194 -0.002    0.183 -0.001 -0.429   -0.012  0.000  0.361
 H          0.005  0.186 -0.371    0.192  0.003  0.217    0.006 -0.010  0.362
 H         -0.003  0.186  0.373    0.192 -0.005  0.213    0.006  0.010  0.362
 TransDip   0.000  0.000  0.000    0.000  0.000  0.000    0.000  0.000  0.000

 Mode:                 7                      8                      9
 Frequency:      1027.93                1027.93                1030.92
 Force Cnst:      0.9303                 0.9303                 0.8669
 Red. Mass:       1.4944                 1.4944                 1.3844
 IR Active:          YES                    YES                    YES
 IR Intens:        0.000                  0.000                  3.127
 Raman Active:       YES                    YES                    YES
               X      Y      Z        X      Y      Z        X      Y      Z
 C          0.074  0.084  0.000    0.084 -0.075  0.000    0.006  0.111  0.000
 C         -0.065 -0.073  0.000   -0.073  0.065  0.000   -0.004 -0.068  0.000
 C          0.065  0.073  0.000    0.073 -0.065  0.000   -0.003 -0.068  0.000
 C         -0.075 -0.084  0.000   -0.084  0.074  0.000    0.005  0.111  0.000
 H         -0.057 -0.196 -0.324   -0.064  0.176 -0.367   -0.005 -0.251 -0.026
 H         -0.089 -0.047  0.481   -0.216  0.145 -0.099    0.058 -0.127  0.446
 H         -0.202 -0.148 -0.154   -0.115  0.030  0.469   -0.081 -0.134 -0.420
 H          0.057  0.197 -0.327    0.064 -0.174 -0.365   -0.004 -0.251  0.023
 H          0.204  0.149 -0.154    0.114 -0.029  0.466   -0.079 -0.134  0.422
 H          0.091  0.047  0.484    0.215 -0.144 -0.098    0.060 -0.128 -0.445
 TransDip   0.000  0.000  0.000    0.000  0.000  0.000   -0.003 -0.057  0.000

 Mode:                10                     11                     12
 Frequency:      1031.04                1187.34                1376.35
 Force Cnst:      0.8671                 2.3890                 1.3877
 Red. Mass:       1.3845                 2.8762                 1.2433
 IR Active:          YES                    YES                    YES
 IR Intens:        3.183                  0.412                  0.002
 Raman Active:       YES                    YES                    YES
               X      Y      Z        X      Y      Z        X      Y      Z
 C         -0.112  0.005  0.000    0.000  0.000 -0.155    0.001  0.000  0.103
 C          0.068 -0.003  0.000    0.000  0.000  0.247    0.000  0.000  0.008
 C          0.068 -0.004  0.000    0.000  0.000  0.247    0.000  0.000 -0.008
 C         -0.111  0.006  0.000    0.000  0.000 -0.155    0.001  0.000 -0.103
 H          0.090 -0.011  0.498   -0.073  0.000 -0.366   -0.173  0.000 -0.364
 H          0.216 -0.076 -0.231    0.036  0.064 -0.364    0.083  0.153 -0.365
 H          0.210  0.064 -0.270    0.036 -0.064 -0.364    0.083 -0.153 -0.365
 H          0.090 -0.013 -0.498    0.073  0.000 -0.366   -0.173  0.000  0.364
 H          0.209  0.063  0.273   -0.036  0.064 -0.364    0.083 -0.153  0.365
 H          0.216 -0.077  0.228   -0.036 -0.064 -0.364    0.083  0.153  0.365
 TransDip   0.057 -0.003  0.000    0.000  0.000  0.021   -0.001  0.000  0.000

 Mode:                13                     14                     15
 Frequency:      1387.32                1432.12                1432.35
 Force Cnst:      1.7332                 1.2515                 1.2549
 Red. Mass:       1.5285                 1.0356                 1.0382
 IR Active:          YES                    YES                    YES
 IR Intens:        2.281                 23.306                  0.003
 Raman Active:       YES                    YES                    YES
               X      Y      Z        X      Y      Z        X      Y      Z
 C          0.001  0.000  0.144   -0.033  0.000  0.001    0.033  0.000 -0.001
 C          0.000  0.000 -0.055   -0.013  0.000  0.000    0.018  0.000  0.000
 C          0.000  0.000 -0.055   -0.013  0.000  0.000   -0.018  0.000  0.000
 C         -0.001  0.000  0.144   -0.033  0.000 -0.001   -0.032  0.000 -0.001
 H         -0.184  0.000 -0.351   -0.126 -0.002 -0.273    0.128 -0.003  0.277
 H          0.088  0.164 -0.354    0.340 -0.266  0.132   -0.337  0.266 -0.136
 H          0.088 -0.164 -0.354    0.338  0.266  0.134   -0.340 -0.267 -0.133
 H          0.184  0.000 -0.351   -0.127 -0.004  0.274   -0.127 -0.007  0.276
 H         -0.088  0.164 -0.354    0.338  0.267 -0.135    0.334  0.265 -0.137
 H         -0.088 -0.164 -0.354    0.342 -0.267 -0.131    0.341 -0.266 -0.130
 TransDip   0.000  0.000 -0.048    0.155 -0.001  0.000    0.000 -0.002  0.000

 Mode:                16                     17                     18
 Frequency:      1432.47                1432.68                2409.63
 Force Cnst:      1.2524                 1.2559                40.4875
 Red. Mass:       1.0359                 1.0385                11.8350
 IR Active:          YES                    YES                    YES
 IR Intens:       23.307                  0.000                  0.000
 Raman Active:       YES                    YES                    YES
               X      Y      Z        X      Y      Z        X      Y      Z
 C          0.000 -0.033  0.000    0.000  0.033  0.000    0.000  0.000  0.093
 C          0.000 -0.013  0.000    0.000  0.018  0.000    0.000  0.000 -0.696
 C          0.000 -0.013  0.000    0.000 -0.018  0.000    0.000  0.000  0.696
 C         -0.001 -0.033  0.000    0.000 -0.033  0.000    0.000  0.000 -0.093
 H          0.001  0.495  0.001    0.000 -0.492  0.001   -0.012  0.000  0.049
 H         -0.270  0.031  0.233    0.266 -0.028 -0.236    0.006  0.010  0.049
 H          0.267  0.029 -0.234   -0.268 -0.029  0.235    0.006 -0.010  0.049
 H         -0.002  0.493  0.004   -0.001  0.494  0.002   -0.011  0.000 -0.049
 H          0.273  0.034  0.231    0.270  0.030  0.235    0.006 -0.010 -0.049
 H         -0.262  0.026 -0.235   -0.266  0.027 -0.237    0.006  0.010 -0.049
 TransDip   0.001  0.155  0.000    0.000  0.000  0.000    0.000  0.000  0.000

 Mode:                19                     20                     21
 Frequency:      3007.40                3008.64                3081.40
 Force Cnst:      5.5235                 5.5314                 6.1688
 Red. Mass:       1.0365                 1.0371                 1.1027
 IR Active:          YES                    YES                    YES
 IR Intens:        0.000                 27.902                  3.770
 Raman Active:       YES                    YES                    YES
               X      Y      Z        X      Y      Z        X      Y      Z
 C          0.000  0.000  0.036    0.001  0.000  0.037    0.000 -0.066  0.000
 C          0.000  0.000  0.001    0.000  0.000 -0.001    0.000  0.000  0.000
 C          0.000  0.000 -0.001    0.000  0.000 -0.001    0.000  0.000  0.000
 C          0.000  0.000 -0.036    0.000  0.000  0.036    0.000 -0.065  0.000
 H          0.377  0.000 -0.139    0.379  0.000 -0.140   -0.003 -0.012  0.001
 H         -0.191 -0.332 -0.142   -0.193 -0.334 -0.142    0.238  0.399  0.179
 H         -0.191  0.332 -0.142   -0.193  0.334 -0.142   -0.239  0.402 -0.180
 H          0.379  0.000  0.140   -0.377  0.000 -0.139   -0.001 -0.012  0.000
 H         -0.193  0.334  0.143    0.191 -0.332 -0.141   -0.237  0.398  0.179
 H         -0.193 -0.334  0.143    0.191  0.332 -0.141    0.236  0.397 -0.178
 TransDip   0.000  0.000  0.000    0.000  0.000  0.169    0.000 -0.062  0.000

 Mode:                22                     23                     24
 Frequency:      3082.20                3082.23                3083.04
 Force Cnst:      6.1722                 6.1718                 6.1748
 Red. Mass:       1.1027                 1.1026                 1.1026
 IR Active:          YES                    YES                    YES
 IR Intens:        0.018                  3.748                  0.002
 Raman Active:       YES                    YES                    YES
               X      Y      Z        X      Y      Z        X      Y      Z
 C         -0.004  0.065  0.000   -0.066 -0.005  0.000    0.065  0.000  0.000
 C          0.000  0.000  0.000    0.000  0.000  0.000    0.000  0.000  0.000
 C          0.000  0.000  0.000    0.000  0.000  0.000    0.000  0.000  0.000
 C         -0.005 -0.066  0.000   -0.065  0.004  0.000   -0.066  0.000  0.000
 H          0.035  0.012 -0.013    0.540 -0.001 -0.208   -0.538  0.000  0.207
 H         -0.228 -0.381 -0.171    0.140  0.264  0.115   -0.122 -0.233 -0.102
 H          0.244 -0.412  0.185    0.106 -0.206  0.089   -0.123  0.235 -0.102
 H          0.039 -0.012  0.015    0.536  0.001  0.207    0.541  0.000  0.209
 H         -0.229  0.383  0.172    0.138 -0.260 -0.113    0.125 -0.238 -0.104
 H          0.247  0.417 -0.187    0.107  0.208 -0.090    0.122  0.233 -0.102
 TransDip  -0.004  0.000  0.000   -0.062  0.000  0.000    0.000  0.000 -0.001

 STANDARD THERMODYNAMIC QUANTITIES AT   298.18 K  AND     1.00 ATM

   This Molecule has  0 Imaginary Frequencies
   Zero point vibrational energy:       52.428 kcal/mol

   Atom    1 Element C  Has Mass   12.00000
   Atom    2 Element C  Has Mass   12.00000
   Atom    3 Element C  Has Mass   12.00000
   Atom    4 Element C  Has Mass   12.00000
   Atom    5 Element H  Has Mass    1.00783
   Atom    6 Element H  Has Mass    1.00783
   Atom    7 Element H  Has Mass    1.00783
   Atom    8 Element H  Has Mass    1.00783
   Atom    9 Element H  Has Mass    1.00783
   Atom   10 Element H  Has Mass    1.00783
   Molecular Mass:    54.046980 amu
   Principal axes and moments of inertia in atomic units:
                             1           2           3
    Eigenvalues --       22.76607   530.70431   530.70529
          X               0.00000    -0.00014     1.00000
          Y               0.00000     1.00000     0.00014
          Z               1.00000     0.00000     0.00000
   Rotational Symmetry Number is   1
   The Molecule is an Asymmetric Top
   Translational Enthalpy:        0.889 kcal/mol
   Rotational Enthalpy:           0.889 kcal/mol
   Vibrational Enthalpy:         54.132 kcal/mol
   gas constant (RT):             0.593 kcal/mol
   Translational Entropy:        37.884  cal/mol.K
   Rotational Entropy:           23.376  cal/mol.K
   Vibrational Entropy:          10.655  cal/mol.K

   Total Enthalpy:               56.502 kcal/mol
   Total Entropy:                71.916  cal/mol.K
 Total job time:  13549.94s(wall), 13456.21s(cpu) 
 Sat Apr 23 18:49:36 2011

        *************************************************************
        *                                                           *
        *  Thank you very much for using Q-Chem.  Have a nice day.  *
        *                                                           *
        *************************************************************


0 sent ACK to 0 
now end server 0 ... 
