Process 0 of 1 is on cl018.stfx.acenet.ca - thread support 1
initial socket setup ...start
initial socket setup ...done 
now start server 0 ... 

cmd = /usr/bin/ssh clhead /usr/local/qchem/bin/get_hostid 1504100125 > /scratch/tmp/6063521.1.short.q/qchem14103/lic.dat
                  Welcome to Q-Chem
     A Quantum Leap Into The Future Of Chemistry

 Y. Shao, L. Fusti-Molnar, Y. Jung, J. Kussmann, C. Ochsenfeld,
 S. T. Brown, A. T. B. Gilbert, L. V. Slipchenko,S. V. Levchenko,
 D. P. O'Neill, R. A. DiStasio Jr., R. C. Lochan, T. Wang,
 G. J. O. Beran, N. A. Besley, J. M. Herbert, C. Y. Lin,
 T. Van Voorhis, S. H. Chien, A. Sodt, R. P. Steele, 
 V. A. Rassolov, P. E. Maslen, P. P. Korambath, R. D. Adamson,
 B. Austin, J. Baker, E. F. C. Byrd, H. Dachsel, R. J. Doerksen,
 A. Dreuw, B. D. Dunietz, A. D. Dutoi, T. R. Furlani,
 S. R. Gwaltney, A. Heyden, S. Hirata, C.-P. Hsu, G. Kedziora,
 R. Z. Khaliullin, P. Klunzinger, A. M. Lee, M. S. Lee, W. Liang,
 I. Lotan, N. Nair, B. Peters, E. I. Proynov, P. A. Pieniazek, 
 Y. M. Rhee, J. Ritchie, E. Rosta, C. D. Sherrill, 
 A. C. Simmonett, J. E. Subotnik, H. L. Woodcock III,
 W. Zhang, A. T. Bell, A. K. Chakraborty, D. M. Chipman,
 F. J. Keil, A. Warshel, W. J. Hehre, H. F. Schaefer III,
 J. Kong, A. I. Krylov, P. M. W. Gill, M. Head-Gordon,
 Q-Chem, Version 3.1, Q-Chem, Inc., Pittsburgh, PA (2007).

 Additional authors for Version 3.1: 
 Z. Gan, Y. Zhao, N. E. Schultz, D. Truhlar, E. Epifanovsky and M. Oana.

 Additional authors for Version 3.2: 
 R. Baer, B. R. Brooks, D. Casanova, J.-D. Chai, C.-L. Cheng, 
 C. Cramer, D. Crittenden, A. Ghysels, G. Hawkins, E. G. Hohenstein, 
 C. Kelley, W. Kurlancheek, D. Liotard, E. Livshits, P. Manohar, 
 A. Marenich, D. Neuhauser, R. Olson, M. A. Rohrdanz, K. S. Thanthiriwatte, 
 A. J. W. Thom, V. Vanovschi, C. F. Williams, Q. Wu and Z.-Q. You. 


 Intel X86 Linux Version

 Q-chem begins on Sun Jul  7 08:37:51 2013  

 Parallel job on  1  processors
Processing $rem in /usr/local/qchem/config/preferences.

theFileMan(): MAXOPENFILES=974 MAX_SUB_FILE_NUM=16
Maximum size of a physical file is 2.0 GB, maximum size of a tmp-file is 32.0 GB


--------------------------------------------------------------
User input:
--------------------------------------------------------------

$molecule
-1,2
Si         0.00012        0.00000       -0.00018
F          0.00000        0.00000        1.54969
F          1.46108        0.00000       -0.51646
F         -0.73061       -1.26568       -0.51651
F         -0.73061        1.26568       -0.51651
$end

$comment
negative
$end

$xc_functional
C PBE   1.00
X wPBE  1.00
$end

$rem
SYMMETRY_DECOMPOSITION	0
exchange 		general
LRC_DFT                 true
BASIS                   g3large
omega			400
mem_static              760
max_scf_cycles          200
scf_final_print         1
sym_ignore              true
$end

--------------------------------------------------------------
 Writing REM_CC_EA            5
 ----------------------------------------------------
       Standard Nuclear Orientation (Angstroms)
    I     Atom         X            Y            Z
 ----------------------------------------------------
    1      Si      0.000120     0.000000    -0.000180
    2      F       0.000000     0.000000     1.549690
    3      F       1.461080     0.000000    -0.516460
    4      F      -0.730610    -1.265680    -0.516510
    5      F      -0.730610     1.265680    -0.516510
 ----------------------------------------------------
 Nuclear Repulsion Energy =   273.7019883780 hartrees
 There are       26 alpha and       25 beta electrons
 Requested basis set is G3large
 There are 59 shells and 234 basis functions

Total QAlloc Memory Limit   2000 MB
Mega-Array Size       743 MB
MEM_STATIC part       760 MB

                       Distance Matrix (Angstroms)
             Si(  1)   F (  2)   F (  3)   F (  4)
   F (  2)  1.549870
   F (  3)  1.549500  2.530559
   F (  4)  1.550003  2.530794  2.530899
   F (  5)  1.550003  2.530794  2.530899  2.531360
 
 A cutoff of  1.0D-08 yielded   1440 shell pairs
 There are  23327 function pairs ( 31304 Cartesian)
Evaluating contribution to one-electron hamiltonian from nuclear
 Smallest overlap matrix eigenvalue = 1.26E-04
 Multipole matrices computed through 2nd order

  Scale SEOQF with 1.000000e-01/1.000000e-01/1.000000e-01

 Standard Electronic Orientation quadrupole field applied
 Guess from superposition of atomic densities
 Warning:  Energy on first SCF cycle will be non-variational
 Long-range K will be added via erf
 Coulomb attenuation parameter = 0.4 bohr**(-1)
 An unrestricted Kohn-Sham SCF calculation will be
 performed using Pulay DIIS extrapolation
 Exchange:  wPBE + LR-HF      Correlation:  PBE
 Using SG-1 standard quadrature grid
 SCF converges when DIIS error is below 1.0E-05
 Requested basis set is G3large
 There are 59 shells and 234 basis functions
 A cutoff of  1.0D-08 yielded   1440 shell pairs
 There are  23327 function pairs ( 31304 Cartesian)
 Warning!  Inaccurate integrated density:
   Number of electrons =    51
   Numerical integral  =    50.000212189660
   Relative error      =    -1.9603682556 %
 ---------------------------------------
  Cycle       Energy         DIIS Error
 ---------------------------------------
    1    -689.4826349690      2.87E-02
    2    -688.7371684850      5.60E-03
    3    -688.7746127465      5.96E-03
    4    -688.8963142192      3.62E-04
    5    -688.9001277244      1.81E-04
    6    -688.9012524276      1.16E-04
    7    -688.9017844367      4.31E-05
    8    -688.9019554670      1.02E-05
    9    -688.9019640336      2.85E-06 Convergence criterion met
 ---------------------------------------
 One-Electron    Energy = -1512.2987168493
 Total Coulomb   Energy =   612.4977851073
 Alpha Exchange  Energy =    -5.3487807014
 Beta  Exchange  Energy =    -5.2704851135
 DFT   Exchange  Energy =   -50.3874813679
 DFT Correlation Energy =    -1.7962734868
 Nuclear Repu.   Energy =   273.7019883780
 Nuclear Attr.   Energy = -2200.2071890939
 Kinetic         Energy =   687.9084722445
 <S^2> = 0.7506
 SCF time:  CPU 183.63 s  wall 184.48 s
 Final Alpha MO Eigenvalues
            1           2           3           4           5           6
    1 -65.5677601 -24.3323480 -24.3323364 -24.3322964 -24.3322829  -5.2188737
            7           8           9          10          11          12
    1  -3.6216789  -3.6216521  -3.6216495  -1.2217586  -1.1806111  -1.1806011
           13          14          15          16          17          18
    1  -1.1805604  -0.5826622  -0.5115518  -0.5115354  -0.5115176  -0.4565263
           19          20          21          22          23          24
    1  -0.4565211  -0.4454002  -0.4453842  -0.4453689  -0.4036243  -0.4036212
           25          26          27          28          29          30
    1  -0.4036021   0.0374956   0.1637563   0.1637754   0.1637838   0.3313610
           31
    1   0.3387355
 Final Beta MO Eigenvalues
            1           2           3           4           5           6
    1 -65.5675376 -24.3319422 -24.3319318 -24.3318924 -24.3318768  -5.2185676
            7           8           9          10          11          12
    1  -3.6213538  -3.6213266  -3.6213244  -1.2204716  -1.1794095  -1.1794005
           13          14          15          16          17          18
    1  -1.1793606  -0.5811631  -0.5103673  -0.5103520  -0.5103379  -0.4558690
           19          20          21          22          23          24
    1  -0.4558619  -0.4436279  -0.4436121  -0.4435962  -0.4037468  -0.4037457
           25          26          27          28          29          30
    1  -0.4037262   0.1756635   0.1803806   0.1804120   0.1804216   0.3463354
 Analysis of SCF Wavefunction
 
 --------------------------------------------------------------
                    Orbital Energies (a.u.)
 --------------------------------------------------------------
 
 Alpha MOs
 -- Occupied --
-65.568 -24.332 -24.332 -24.332 -24.332  -5.219  -3.622  -3.622
 -3.622  -1.222  -1.181  -1.181  -1.181  -0.583  -0.512  -0.512
 -0.512  -0.457  -0.457  -0.445  -0.445  -0.445  -0.404  -0.404
 -0.404   0.037
 -- Virtual --
  0.164   0.164   0.164   0.331   0.339   0.339   0.339   0.416
  0.416   0.416   0.416   0.417   0.459   0.459   0.459   0.465
  0.521   0.521   0.521   0.577   0.604   0.604   0.604   0.613
  0.613   0.613   0.632   0.632   0.810   0.811   0.811   0.896
  0.929   0.929   0.929   0.974   0.974   0.974   1.068   1.068
  1.112   1.253   1.253   1.254   1.579   1.579   1.617   1.617
  1.617   1.634   1.634   1.634   1.662   1.681   1.681   1.682
  1.806   1.806   1.807   1.969   1.969   1.969   2.177   2.177
  2.177   2.257   2.257   2.325   2.325   2.325   2.335   2.335
  2.335   2.390   2.488   2.488   2.488   2.735   2.735   2.765
  2.938   2.938   2.939   3.161   3.161   3.161   3.420   3.421
  3.421   3.566   4.005   4.006   4.423   4.424   4.426   6.168
  6.361   6.361   6.469   6.469   6.469   6.488   6.488   6.488
  6.645   6.645   6.645   6.799   6.802   6.802   6.803   6.803
  6.804   6.831   6.840   6.840   6.840   6.848   6.848   6.848
  6.874   6.896   6.897   6.897   6.949   6.949   6.950   7.043
  7.044   7.167   7.167   7.167   7.372   7.373   7.373   7.792
  9.242   9.242   9.267   9.267   9.267   9.375   9.375   9.375
  9.543   9.544   9.544   9.626   9.626   9.626   9.666   9.667
  9.919   9.919   9.919  10.320  12.513  12.514  12.515  17.752
 17.816  17.956  18.019  18.095  22.311  22.316  22.320  22.325
 22.330  22.331  22.395  50.219  50.226  50.228  50.250  50.258
 50.277  50.295  50.307  50.352  50.360  50.366  50.372  50.374
 50.390  50.398  50.406  50.561  50.577  50.597  50.599  55.724
 55.724  55.786  55.786  55.786  55.825  55.826  55.826  56.014
 56.014  56.015  56.030  66.779  66.779  66.779  66.897 141.980
 
 Beta MOs
 -- Occupied --
-65.568 -24.332 -24.332 -24.332 -24.332  -5.219  -3.621  -3.621
 -3.621  -1.220  -1.179  -1.179  -1.179  -0.581  -0.510  -0.510
 -0.510  -0.456  -0.456  -0.444  -0.444  -0.444  -0.404  -0.404
 -0.404
 -- Virtual --
  0.176   0.180   0.180   0.180   0.346   0.346   0.347   0.352
  0.419   0.419   0.420   0.420   0.420   0.463   0.463   0.463
  0.465   0.519   0.520   0.520   0.580   0.605   0.606   0.606
  0.611   0.611   0.612   0.635   0.635   0.811   0.811   0.811
  0.898   0.931   0.931   0.931   0.975   0.975   0.975   1.069
  1.069   1.113   1.255   1.255   1.256   1.579   1.579   1.618
  1.618   1.618   1.634   1.634   1.634   1.662   1.684   1.684
  1.684   1.807   1.807   1.807   1.970   1.970   1.970   2.178
  2.178   2.178   2.257   2.257   2.326   2.326   2.326   2.335
  2.335   2.335   2.391   2.489   2.489   2.489   2.735   2.735
  2.769   2.940   2.940   2.940   3.163   3.163   3.163   3.421
  3.421   3.422   3.567   4.007   4.008   4.424   4.425   4.427
  6.169   6.361   6.361   6.469   6.469   6.469   6.488   6.489
  6.489   6.645   6.646   6.646   6.799   6.802   6.802   6.803
  6.803   6.804   6.831   6.840   6.840   6.840   6.848   6.848
  6.848   6.874   6.897   6.897   6.897   6.949   6.950   6.950
  7.044   7.044   7.167   7.168   7.168   7.373   7.374   7.374
  7.793   9.242   9.242   9.267   9.268   9.268   9.376   9.376
  9.376   9.544   9.544   9.545   9.627   9.627   9.627   9.667
  9.667   9.920   9.920   9.920  10.321  12.514  12.514  12.515
 17.753  17.816  17.956  18.020  18.095  22.312  22.316  22.321
 22.325  22.330  22.331  22.395  50.219  50.225  50.227  50.250
 50.257  50.277  50.294  50.306  50.352  50.360  50.366  50.371
 50.373  50.390  50.398  50.406  50.561  50.577  50.597  50.599
 55.724  55.724  55.786  55.787  55.787  55.826  55.826  55.826
 56.015  56.015  56.015  56.030  66.780  66.780  66.780  66.898
141.981
 --------------------------------------------------------------
 
          Ground-State Mulliken Net Atomic Charges

     Atom                 Charge (a.u.)    Spin (a.u.)
  --------------------------------------------------------
      1 Si                   -1.043419       3.151162
      2 F                     0.010519      -0.537709
      3 F                     0.011052      -0.537419
      4 F                     0.011221      -0.538352
      5 F                     0.010627      -0.537682
  --------------------------------------------------------
  Sum of atomic charges =    -1.000000
  Sum of spin   charges =     1.000000

 -----------------------------------------------------------------
                    Cartesian Multipole Moments
 -----------------------------------------------------------------
    Charge (ESU x 10^10)
                -4.8032
    Dipole Moment (Debye)
         X      -0.0438      Y      -0.0121      Z       0.0258
       Tot       0.0522
    Quadrupole Moments (Debye-Ang)
        XX     -50.0312     XY      -0.0014     YY     -50.0492
        XZ      -0.0051     YZ      -0.0013     ZZ     -50.0501
    Octapole Moments (Debye-Ang^2)
       XXX      -1.9061    XXY      -0.0411    XYY       1.3042
       YYY      -0.1233    XXZ       1.1148    XYZ       0.0003
       YYZ       1.1219    XZZ      -0.1511    YZZ      -0.0413
       ZZZ      -1.7931
    Hexadecapole Moments (Debye-Ang^3)
      XXXX    -276.9283   XXXY      -0.0037   XXYY     -92.3683
      XYYY      -0.0116   YYYY    -277.1280   XXXZ       1.4575
      XXYZ      -0.0031   XYYZ      -1.5107   YYYZ      -0.0094
      XXZZ     -91.2691   XYZZ      -0.0020   YYZZ     -91.2958
      XZZZ      -0.0037   YZZZ      -0.0028   ZZZZ    -278.1914
 -----------------------------------------------------------------
 Total job time:  184.87s(wall), 184.01s(cpu) 
 Sun Jul  7 08:40:56 2013

        *************************************************************
        *                                                           *
        *  Thank you very much for using Q-Chem.  Have a nice day.  *
        *                                                           *
        *************************************************************


0 sent ACK to 0 
now end server 0 ... 
 
**********************************************************************
Job 2 of 3 
**********************************************************************
 
Process 0 of 1 is on cl018.stfx.acenet.ca - thread support 1
initial socket setup ...start
initial socket setup ...done 
now start server 0 ... 

cmd = /usr/bin/ssh clhead /usr/local/qchem/bin/get_hostid 171139978 > /scratch/tmp/6063521.1.short.q/qchem14103/lic.dat
                  Welcome to Q-Chem
     A Quantum Leap Into The Future Of Chemistry

 Y. Shao, L. Fusti-Molnar, Y. Jung, J. Kussmann, C. Ochsenfeld,
 S. T. Brown, A. T. B. Gilbert, L. V. Slipchenko,S. V. Levchenko,
 D. P. O'Neill, R. A. DiStasio Jr., R. C. Lochan, T. Wang,
 G. J. O. Beran, N. A. Besley, J. M. Herbert, C. Y. Lin,
 T. Van Voorhis, S. H. Chien, A. Sodt, R. P. Steele, 
 V. A. Rassolov, P. E. Maslen, P. P. Korambath, R. D. Adamson,
 B. Austin, J. Baker, E. F. C. Byrd, H. Dachsel, R. J. Doerksen,
 A. Dreuw, B. D. Dunietz, A. D. Dutoi, T. R. Furlani,
 S. R. Gwaltney, A. Heyden, S. Hirata, C.-P. Hsu, G. Kedziora,
 R. Z. Khaliullin, P. Klunzinger, A. M. Lee, M. S. Lee, W. Liang,
 I. Lotan, N. Nair, B. Peters, E. I. Proynov, P. A. Pieniazek, 
 Y. M. Rhee, J. Ritchie, E. Rosta, C. D. Sherrill, 
 A. C. Simmonett, J. E. Subotnik, H. L. Woodcock III,
 W. Zhang, A. T. Bell, A. K. Chakraborty, D. M. Chipman,
 F. J. Keil, A. Warshel, W. J. Hehre, H. F. Schaefer III,
 J. Kong, A. I. Krylov, P. M. W. Gill, M. Head-Gordon,
 Q-Chem, Version 3.1, Q-Chem, Inc., Pittsburgh, PA (2007).

 Additional authors for Version 3.1: 
 Z. Gan, Y. Zhao, N. E. Schultz, D. Truhlar, E. Epifanovsky and M. Oana.

 Additional authors for Version 3.2: 
 R. Baer, B. R. Brooks, D. Casanova, J.-D. Chai, C.-L. Cheng, 
 C. Cramer, D. Crittenden, A. Ghysels, G. Hawkins, E. G. Hohenstein, 
 C. Kelley, W. Kurlancheek, D. Liotard, E. Livshits, P. Manohar, 
 A. Marenich, D. Neuhauser, R. Olson, M. A. Rohrdanz, K. S. Thanthiriwatte, 
 A. J. W. Thom, V. Vanovschi, C. F. Williams, Q. Wu and Z.-Q. You. 


 Intel X86 Linux Version

 Q-chem begins on Sun Jul  7 08:41:00 2013  

 Parallel job on  1  processors
Processing $rem in /usr/local/qchem/config/preferences.

theFileMan(): MAXOPENFILES=974 MAX_SUB_FILE_NUM=16
Maximum size of a physical file is 2.0 GB, maximum size of a tmp-file is 32.0 GB


--------------------------------------------------------------
User input:
--------------------------------------------------------------

$molecule
0,1
Si         0.00012        0.00000       -0.00018
F          0.00000        0.00000        1.54969
F          1.46108        0.00000       -0.51646
F         -0.73061       -1.26568       -0.51651
F         -0.73061        1.26568       -0.51651
$end

$comment
neutral
$end

$xc_functional
C PBE   1.00
X wPBE  1.00
$end


$rem
SYMMETRY_DECOMPOSITION	0
LRC_DFT                 true
exchange 		general
BASIS                   g3large
omega			400
mem_static              760
max_scf_cycles          200
scf_final_print         1
sym_ignore              true
$end

--------------------------------------------------------------
 Writing REM_CC_EA            5
 ----------------------------------------------------
       Standard Nuclear Orientation (Angstroms)
    I     Atom         X            Y            Z
 ----------------------------------------------------
    1      Si      0.000120     0.000000    -0.000180
    2      F       0.000000     0.000000     1.549690
    3      F       1.461080     0.000000    -0.516460
    4      F      -0.730610    -1.265680    -0.516510
    5      F      -0.730610     1.265680    -0.516510
 ----------------------------------------------------
 Nuclear Repulsion Energy =   273.7019883780 hartrees
 There are       25 alpha and       25 beta electrons
 Requested basis set is G3large
 There are 59 shells and 234 basis functions

Total QAlloc Memory Limit   2000 MB
Mega-Array Size       743 MB
MEM_STATIC part       760 MB

                       Distance Matrix (Angstroms)
             Si(  1)   F (  2)   F (  3)   F (  4)
   F (  2)  1.549870
   F (  3)  1.549500  2.530559
   F (  4)  1.550003  2.530794  2.530899
   F (  5)  1.550003  2.530794  2.530899  2.531360
 
 A cutoff of  1.0D-08 yielded   1440 shell pairs
 There are  23327 function pairs ( 31304 Cartesian)
Evaluating contribution to one-electron hamiltonian from nuclear
 Smallest overlap matrix eigenvalue = 1.26E-04
 Multipole matrices computed through 2nd order

  Scale SEOQF with 1.000000e-01/1.000000e-01/1.000000e-01

 Standard Electronic Orientation quadrupole field applied
 Guess from superposition of atomic densities
 Warning:  Energy on first SCF cycle will be non-variational
 Long-range K will be added via erf
 Coulomb attenuation parameter = 0.4 bohr**(-1)
 A restricted Kohn-Sham SCF calculation will be
 performed using Pulay DIIS extrapolation
 Exchange:  wPBE + LR-HF      Correlation:  PBE
 Using SG-1 standard quadrature grid
 SCF converges when DIIS error is below 1.0E-05
 Requested basis set is G3large
 There are 59 shells and 234 basis functions
 A cutoff of  1.0D-08 yielded   1440 shell pairs
 There are  23327 function pairs ( 31304 Cartesian)
 ---------------------------------------
  Cycle       Energy         DIIS Error
 ---------------------------------------
    1    -689.4826349690      2.87E-02
    2    -688.8245699810      5.22E-03
    3    -688.8533682282      5.15E-03
    4    -688.9428478400      3.07E-04
    5    -688.9432533519      9.82E-05
    6    -688.9432973655      5.57E-05
    7    -688.9433085860      1.02E-05
    8    -688.9433098337      1.73E-06 Convergence criterion met
 ---------------------------------------
 One-Electron    Energy = -1503.4712405978
 Total Coulomb   Energy =   603.5241742566
 Alpha Exchange  Energy =    -5.2717108292
 Beta  Exchange  Energy =    -5.2717108292
 DFT   Exchange  Energy =   -50.3687334953
 DFT Correlation Energy =    -1.7860767168
 Nuclear Repu.   Energy =   273.7019883780
 Nuclear Attr.   Energy = -2191.1715637750
 Kinetic         Energy =   687.7003231771
 SCF time:  CPU 130.00 s  wall 130.80 s
 Final Alpha MO Eigenvalues
            1           2           3           4           5           6
    1 -65.7507104 -24.5095790 -24.5094218 -24.5094150 -24.5094054  -5.4017295
            7           8           9          10          11          12
    1  -3.8045198  -3.8044909  -3.8044879  -1.3988065  -1.3570291  -1.3568550
           13          14          15          16          17          18
    1  -1.3568521  -0.7568960  -0.6863765  -0.6863266  -0.6863144  -0.6323892
           19          20          21          22          23          24
    1  -0.6323821  -0.6193930  -0.6193785  -0.6193634  -0.5797064  -0.5796896
           25          26          27          28          29          30
    1  -0.5796171   0.0452509   0.0659052   0.0659105   0.0659132   0.1904444
 Analysis of SCF Wavefunction
 
 --------------------------------------------------------------
                    Orbital Energies (a.u.)
 --------------------------------------------------------------
 
 Alpha MOs
 -- Occupied --
-65.751 -24.510 -24.509 -24.509 -24.509  -5.402  -3.805  -3.804
 -3.804  -1.399  -1.357  -1.357  -1.357  -0.757  -0.686  -0.686
 -0.686  -0.632  -0.632  -0.619  -0.619  -0.619  -0.580  -0.580
 -0.580
 -- Virtual --
  0.045   0.066   0.066   0.066   0.190   0.201   0.201   0.201
  0.276   0.276   0.277   0.277   0.277   0.307   0.307   0.307
  0.324   0.376   0.376   0.376   0.420   0.445   0.445   0.445
  0.465   0.465   0.470   0.470   0.470   0.656   0.656   0.656
  0.737   0.762   0.762   0.762   0.812   0.812   0.812   0.896
  0.896   0.947   1.076   1.076   1.077   1.412   1.412   1.453
  1.453   1.453   1.465   1.465   1.465   1.502   1.513   1.513
  1.513   1.638   1.638   1.638   1.792   1.792   1.792   2.003
  2.003   2.003   2.081   2.081   2.150   2.150   2.150   2.160
  2.160   2.160   2.216   2.314   2.314   2.314   2.559   2.559
  2.587   2.762   2.762   2.762   2.984   2.984   2.984   3.245
  3.245   3.246   3.392   3.825   3.826   4.245   4.246   4.248
  5.993   6.186   6.186   6.294   6.294   6.294   6.314   6.314
  6.314   6.470   6.470   6.470   6.623   6.626   6.626   6.627
  6.627   6.628   6.655   6.664   6.664   6.664   6.672   6.672
  6.672   6.698   6.720   6.721   6.721   6.773   6.774   6.774
  6.867   6.868   6.991   6.991   6.991   7.195   7.196   7.196
  7.614   9.066   9.066   9.091   9.091   9.092   9.199   9.200
  9.200   9.368   9.368   9.368   9.450   9.451   9.451   9.491
  9.491   9.744   9.744   9.744  10.145  12.332  12.333  12.334
 17.570  17.633  17.773  17.836  17.912  22.129  22.133  22.138
 22.142  22.147  22.148  22.212  50.042  50.049  50.051  50.073
 50.081  50.100  50.118  50.130  50.175  50.183  50.189  50.195
 50.196  50.213  50.221  50.229  50.384  50.400  50.420  50.422
 55.547  55.548  55.610  55.610  55.610  55.649  55.649  55.649
 55.837  55.838  55.838  55.853  66.602  66.602  66.602  66.720
141.798
 --------------------------------------------------------------
 
          Ground-State Mulliken Net Atomic Charges

     Atom                 Charge (a.u.)
  ----------------------------------------
      1 Si                    2.011670
      2 F                    -0.503018
      3 F                    -0.502719
      4 F                    -0.502973
      5 F                    -0.502960
  ----------------------------------------
  Sum of atomic charges =     0.000000

 -----------------------------------------------------------------
                    Cartesian Multipole Moments
 -----------------------------------------------------------------
    Charge (ESU x 10^10)
                 0.0000
    Dipole Moment (Debye)
         X       0.0027      Y       0.0001      Z      -0.0022
       Tot       0.0035
    Quadrupole Moments (Debye-Ang)
        XX     -32.4906     XY       0.0001     YY     -32.4965
        XZ      -0.0013     YZ      -0.0001     ZZ     -32.4927
    Octapole Moments (Debye-Ang^2)
       XXX      -3.3205    XXY       0.0001    XYY       3.3299
       YYY       0.0002    XXZ       2.3511    XYZ       0.0000
       YYZ       2.3538    XZZ       0.0015    YZZ       0.0001
       ZZZ      -4.7056
    Hexadecapole Moments (Debye-Ang^3)
      XXXX    -124.6806   XXXY       0.0002   XXYY     -41.5731
      XYYY       0.0002   YYYY    -124.7512   XXXZ       1.2229
      XXYZ      -0.0001   XYYZ      -1.2312   YYYZ      -0.0003
      XXZZ     -40.6918   XYZZ       0.0000   YYZZ     -40.7031
      XZZZ      -0.0048   YZZZ      -0.0003   ZZZZ    -125.5480
 -----------------------------------------------------------------
 Total job time:  131.29s(wall), 130.36s(cpu) 
 Sun Jul  7 08:43:11 2013

        *************************************************************
        *                                                           *
        *  Thank you very much for using Q-Chem.  Have a nice day.  *
        *                                                           *
        *************************************************************


0 sent ACK to 0 
now end server 0 ... 
 
**********************************************************************
Job 3 of 3 
**********************************************************************
 
Process 0 of 1 is on cl018.stfx.acenet.ca - thread support 1
initial socket setup ...start
initial socket setup ...done 
now start server 0 ... 

cmd = /usr/bin/ssh clhead /usr/local/qchem/bin/get_hostid 989940511 > /scratch/tmp/6063521.1.short.q/qchem14103/lic.dat
                  Welcome to Q-Chem
     A Quantum Leap Into The Future Of Chemistry

 Y. Shao, L. Fusti-Molnar, Y. Jung, J. Kussmann, C. Ochsenfeld,
 S. T. Brown, A. T. B. Gilbert, L. V. Slipchenko,S. V. Levchenko,
 D. P. O'Neill, R. A. DiStasio Jr., R. C. Lochan, T. Wang,
 G. J. O. Beran, N. A. Besley, J. M. Herbert, C. Y. Lin,
 T. Van Voorhis, S. H. Chien, A. Sodt, R. P. Steele, 
 V. A. Rassolov, P. E. Maslen, P. P. Korambath, R. D. Adamson,
 B. Austin, J. Baker, E. F. C. Byrd, H. Dachsel, R. J. Doerksen,
 A. Dreuw, B. D. Dunietz, A. D. Dutoi, T. R. Furlani,
 S. R. Gwaltney, A. Heyden, S. Hirata, C.-P. Hsu, G. Kedziora,
 R. Z. Khaliullin, P. Klunzinger, A. M. Lee, M. S. Lee, W. Liang,
 I. Lotan, N. Nair, B. Peters, E. I. Proynov, P. A. Pieniazek, 
 Y. M. Rhee, J. Ritchie, E. Rosta, C. D. Sherrill, 
 A. C. Simmonett, J. E. Subotnik, H. L. Woodcock III,
 W. Zhang, A. T. Bell, A. K. Chakraborty, D. M. Chipman,
 F. J. Keil, A. Warshel, W. J. Hehre, H. F. Schaefer III,
 J. Kong, A. I. Krylov, P. M. W. Gill, M. Head-Gordon,
 Q-Chem, Version 3.1, Q-Chem, Inc., Pittsburgh, PA (2007).

 Additional authors for Version 3.1: 
 Z. Gan, Y. Zhao, N. E. Schultz, D. Truhlar, E. Epifanovsky and M. Oana.

 Additional authors for Version 3.2: 
 R. Baer, B. R. Brooks, D. Casanova, J.-D. Chai, C.-L. Cheng, 
 C. Cramer, D. Crittenden, A. Ghysels, G. Hawkins, E. G. Hohenstein, 
 C. Kelley, W. Kurlancheek, D. Liotard, E. Livshits, P. Manohar, 
 A. Marenich, D. Neuhauser, R. Olson, M. A. Rohrdanz, K. S. Thanthiriwatte, 
 A. J. W. Thom, V. Vanovschi, C. F. Williams, Q. Wu and Z.-Q. You. 


 Intel X86 Linux Version

 Q-chem begins on Sun Jul  7 08:43:14 2013  

 Parallel job on  1  processors
Processing $rem in /usr/local/qchem/config/preferences.

theFileMan(): MAXOPENFILES=974 MAX_SUB_FILE_NUM=16
Maximum size of a physical file is 2.0 GB, maximum size of a tmp-file is 32.0 GB


--------------------------------------------------------------
User input:
--------------------------------------------------------------

$molecule
1,2
Si         0.00012        0.00000       -0.00018
F          0.00000        0.00000        1.54969
F          1.46108        0.00000       -0.51646
F         -0.73061       -1.26568       -0.51651
F         -0.73061        1.26568       -0.51651
$end

$comment
positive
$end

$xc_functional
C PBE   1.00
X wPBE  1.00
$end

$rem
SYMMETRY_DECOMPOSITION	0
LRC_DFT                 true
exchange 		general
BASIS                   g3large
omega			400
mem_static              760
max_scf_cycles          200
scf_final_print         1
sym_ignore              true
$end

--------------------------------------------------------------
 Writing REM_CC_EA            5
 ----------------------------------------------------
       Standard Nuclear Orientation (Angstroms)
    I     Atom         X            Y            Z
 ----------------------------------------------------
    1      Si      0.000120     0.000000    -0.000180
    2      F       0.000000     0.000000     1.549690
    3      F       1.461080     0.000000    -0.516460
    4      F      -0.730610    -1.265680    -0.516510
    5      F      -0.730610     1.265680    -0.516510
 ----------------------------------------------------
 Nuclear Repulsion Energy =   273.7019883780 hartrees
 There are       25 alpha and       24 beta electrons
 Requested basis set is G3large
 There are 59 shells and 234 basis functions

Total QAlloc Memory Limit   2000 MB
Mega-Array Size       743 MB
MEM_STATIC part       760 MB

                       Distance Matrix (Angstroms)
             Si(  1)   F (  2)   F (  3)   F (  4)
   F (  2)  1.549870
   F (  3)  1.549500  2.530559
   F (  4)  1.550003  2.530794  2.530899
   F (  5)  1.550003  2.530794  2.530899  2.531360
 
 A cutoff of  1.0D-08 yielded   1440 shell pairs
 There are  23327 function pairs ( 31304 Cartesian)
Evaluating contribution to one-electron hamiltonian from nuclear
 Smallest overlap matrix eigenvalue = 1.26E-04
 Multipole matrices computed through 2nd order

  Scale SEOQF with 1.000000e-01/1.000000e-01/1.000000e-01

 Standard Electronic Orientation quadrupole field applied
 Guess from superposition of atomic densities
 Warning:  Energy on first SCF cycle will be non-variational
 Long-range K will be added via erf
 Coulomb attenuation parameter = 0.4 bohr**(-1)
 An unrestricted Kohn-Sham SCF calculation will be
 performed using Pulay DIIS extrapolation
 Exchange:  wPBE + LR-HF      Correlation:  PBE
 Using SG-1 standard quadrature grid
 SCF converges when DIIS error is below 1.0E-05
 Requested basis set is G3large
 There are 59 shells and 234 basis functions
 A cutoff of  1.0D-08 yielded   1440 shell pairs
 There are  23327 function pairs ( 31304 Cartesian)
 Warning!  Inaccurate integrated density:
   Number of electrons =    49
   Numerical integral  =    50.000212189660
   Relative error      =     2.0412493667 %
 ---------------------------------------
  Cycle       Energy         DIIS Error
 ---------------------------------------
    1    -689.4826349690      2.87E-02
    2    -688.1011490202      6.29E-03
    3    -687.8119576044      1.14E-02
    4    -688.3339027892      1.09E-03
    5    -688.3391370188      9.88E-04
    6    -688.3433600657      4.93E-04
    7    -688.3449965079      3.55E-04
    8    -688.3463912239      2.82E-04
    9    -688.3479640641      1.42E-04
   10    -688.3484973690      6.50E-05
   11    -688.3487099975      3.26E-05
   12    -688.3487834325      2.33E-05
   13    -688.3488321077      1.73E-05
   14    -688.3488622462      1.13E-05
   15    -688.3488783441      9.98E-06 Convergence criterion met
 ---------------------------------------
 One-Electron    Energy = -1488.5477454362
 Total Coulomb   Energy =   588.6750774623
 Alpha Exchange  Energy =    -5.2908378546
 Beta  Exchange  Energy =    -5.0112933782
 DFT   Exchange  Energy =   -50.1310554362
 DFT Correlation Energy =    -1.7450120792
 Nuclear Repu.   Energy =   273.7019883780
 Nuclear Attr.   Energy = -2175.8102131799
 Kinetic         Energy =   687.2624677437
 <S^2> = 0.7571
 SCF time:  CPU 302.78 s  wall 304.10 s
 Final Alpha MO Eigenvalues
            1           2           3           4           5           6
    1 -66.0433815 -24.8450354 -24.8399198 -24.8248148 -24.8156367  -5.6939985
            7           8           9          10          11          12
    1  -4.0970072  -4.0967542  -4.0964813  -1.7063613  -1.6736665  -1.6631244
           13          14          15          16          17          18
    1  -1.6530973  -1.0482713  -0.9873092  -0.9853693  -0.9752022  -0.9491961
           19          20          21          22          23          24
    1  -0.9295525  -0.9265772  -0.9190620  -0.9124193  -0.9010244  -0.8791137
           25          26          27          28          29          30
    1  -0.8755379  -0.1574044  -0.0887270  -0.0886529  -0.0867555  -0.0321471
 Final Beta MO Eigenvalues
            1           2           3           4           5           6
    1 -66.0435939 -24.8363653 -24.8316557 -24.8178060 -24.8094209  -5.6943524
            7           8           9          10          11          12
    1  -4.0974684  -4.0972128  -4.0968466  -1.6898923  -1.6519576  -1.6440688
           13          14          15          16          17          18
    1  -1.6367909  -1.0415383  -0.9722399  -0.9646136  -0.9632691  -0.9181871
           19          20          21          22          23          24
    1  -0.9049860  -0.8900918  -0.8863656  -0.8718317  -0.8430939  -0.8405191
           25          26          27          28          29
    1  -0.6097962  -0.1568311  -0.0863751  -0.0848434  -0.0848040
 Analysis of SCF Wavefunction
 
 --------------------------------------------------------------
                    Orbital Energies (a.u.)
 --------------------------------------------------------------
 
 Alpha MOs
 -- Occupied --
-66.043 -24.845 -24.840 -24.825 -24.816  -5.694  -4.097  -4.097
 -4.096  -1.706  -1.674  -1.663  -1.653  -1.048  -0.987  -0.985
 -0.975  -0.949  -0.930  -0.927  -0.919  -0.912  -0.901  -0.879
 -0.876
 -- Virtual --
 -0.157  -0.089  -0.089  -0.087  -0.032  -0.023  -0.023  -0.021
  0.079   0.083   0.089   0.090   0.091   0.113   0.114   0.116
  0.135   0.186   0.190   0.191   0.210   0.211   0.216   0.219
  0.220   0.220   0.286   0.286   0.288   0.444   0.444   0.446
  0.515   0.526   0.528   0.528   0.585   0.585   0.587   0.641
  0.643   0.711   0.791   0.793   0.798   1.150   1.161   1.195
  1.202   1.207   1.208   1.210   1.214   1.257   1.258   1.262
  1.269   1.384   1.384   1.389   1.502   1.511   1.513   1.727
  1.728   1.733   1.792   1.793   1.868   1.872   1.874   1.876
  1.877   1.878   1.941   2.024   2.029   2.031   2.266   2.276
  2.299   2.473   2.473   2.478   2.693   2.701   2.703   2.954
  2.960   2.968   3.112   3.537   3.540   3.963   3.964   3.965
  5.706   5.865   5.887   5.966   5.987   5.993   6.008   6.010
  6.021   6.163   6.165   6.174   6.310   6.318   6.320   6.325
  6.328   6.335   6.342   6.345   6.352   6.354   6.365   6.366
  6.376   6.393   6.412   6.420   6.422   6.470   6.473   6.483
  6.560   6.574   6.679   6.694   6.698   6.892   6.893   6.901
  7.315   8.740   8.741   8.762   8.773   8.774   8.872   8.878
  8.885   9.040   9.059   9.063   9.130   9.134   9.147   9.173
  9.189   9.429   9.438   9.448   9.842  12.040  12.042  12.044
 17.278  17.341  17.482  17.545  17.620  21.836  21.841  21.845
 21.850  21.855  21.856  21.920  49.710  49.719  49.723  49.736
 49.762  49.770  49.781  49.807  49.838  49.848  49.867  49.874
 49.877  49.898  49.906  49.918  50.071  50.088  50.093  50.097
 55.215  55.228  55.271  55.288  55.292  55.322  55.325  55.336
 55.508  55.515  55.529  55.542  66.270  66.280  66.293  66.401
141.505
 
 Beta MOs
 -- Occupied --
-66.044 -24.836 -24.832 -24.818 -24.809  -5.694  -4.097  -4.097
 -4.097  -1.690  -1.652  -1.644  -1.637  -1.042  -0.972  -0.965
 -0.963  -0.918  -0.905  -0.890  -0.886  -0.872  -0.843  -0.841
 -- Virtual --
 -0.610  -0.157  -0.086  -0.085  -0.085  -0.031  -0.022  -0.019
 -0.019   0.083   0.084   0.089   0.090   0.091   0.114   0.114
  0.116   0.135   0.190   0.191   0.193   0.212   0.215   0.216
  0.219   0.220   0.221   0.288   0.288   0.288   0.444   0.445
  0.446   0.515   0.528   0.530   0.530   0.586   0.586   0.588
  0.640   0.642   0.711   0.793   0.796   0.799   1.165   1.166
  1.207   1.211   1.213   1.216   1.217   1.218   1.262   1.263
  1.263   1.274   1.388   1.390   1.392   1.511   1.513   1.516
  1.732   1.733   1.736   1.808   1.809   1.879   1.880   1.882
  1.887   1.891   1.893   1.947   2.039   2.042   2.046   2.279
  2.280   2.302   2.479   2.480   2.483   2.701   2.704   2.706
  2.961   2.966   2.973   3.117   3.538   3.540   3.964   3.965
  3.966   5.709   5.895   5.901   6.003   6.006   6.009   6.026
  6.030   6.032   6.177   6.180   6.183   6.332   6.334   6.335
  6.338   6.343   6.346   6.365   6.369   6.375   6.378   6.384
  6.387   6.394   6.413   6.429   6.434   6.437   6.480   6.485
  6.490   6.578   6.579   6.697   6.702   6.706   6.903   6.903
  6.905   7.320   8.773   8.774   8.796   8.801   8.803   8.904
  8.909   8.913   9.071   9.074   9.079   9.153   9.157   9.162
  9.197   9.201   9.444   9.450   9.459   9.853  12.041  12.042
 12.044  17.277  17.341  17.481  17.545  17.620  21.836  21.841
 21.845  21.849  21.855  21.856  21.919  49.734  49.739  49.744
 49.759  49.780  49.791  49.805  49.827  49.860  49.869  49.874
 49.881  49.889  49.910  49.918  49.924  50.079  50.098  50.103
 50.104  55.234  55.237  55.293  55.299  55.302  55.334  55.341
 55.344  55.514  55.521  55.533  55.547  66.279  66.288  66.300
 66.408 141.505
 --------------------------------------------------------------
 
          Ground-State Mulliken Net Atomic Charges

     Atom                 Charge (a.u.)    Spin (a.u.)
  --------------------------------------------------------
      1 Si                    1.953856      -0.125769
      2 F                    -0.248812       0.262964
      3 F                    -0.263220       0.235640
      4 F                    -0.216914       0.320712
      5 F                    -0.224909       0.306453
  --------------------------------------------------------
  Sum of atomic charges =     1.000000
  Sum of spin   charges =     1.000000

 -----------------------------------------------------------------
                    Cartesian Multipole Moments
 -----------------------------------------------------------------
    Charge (ESU x 10^10)
                 4.8032
    Dipole Moment (Debye)
         X      -0.3247      Y      -0.0536      Z      -0.1131
       Tot       0.3480
    Quadrupole Moments (Debye-Ang)
        XX     -26.3748     XY       0.1164     YY     -25.8516
        XZ       0.2746     YZ      -0.0591     ZZ     -26.3341
    Octapole Moments (Debye-Ang^2)
       XXX      -1.0451    XXY      -0.0434    XYY       0.0895
       YYY      -0.1166    XXZ       0.1325    XYZ       0.0037
       YYZ       0.1480    XZZ      -0.2422    YZZ      -0.0391
       ZZZ      -0.6950
    Hexadecapole Moments (Debye-Ang^3)
      XXXX    -105.8873   XXXY      -0.3459   XXYY     -35.1425
      XYYY       0.3148   YYYY    -103.6666   XXXZ       0.3396
      XXYZ      -0.1126   XYYZ       0.4745   YYYZ      -0.2405
      XXZZ     -35.1933   XYZZ       0.4615   YYZZ     -35.3452
      XZZZ       0.2567   YZZZ       0.1612   ZZZZ    -105.4863
 -----------------------------------------------------------------
 Total job time:  304.47s(wall), 303.13s(cpu) 
 Sun Jul  7 08:48:19 2013

        *************************************************************
        *                                                           *
        *  Thank you very much for using Q-Chem.  Have a nice day.  *
        *                                                           *
        *************************************************************


0 sent ACK to 0 
now end server 0 ... 
