Process 0 of 1 is on cl138.stfx.acenet.ca - thread support 1
initial socket setup ...start
initial socket setup ...done 
now start server 0 ... 

cmd = /usr/bin/ssh clhead /usr/local/qchem/bin/get_hostid 1304528854 > /scratch/tmp/4791572.1.medium.q/qchem16413/lic.dat
                  Welcome to Q-Chem
     A Quantum Leap Into The Future Of Chemistry

 Y. Shao, L. Fusti-Molnar, Y. Jung, J. Kussmann, C. Ochsenfeld,
 S. T. Brown, A. T. B. Gilbert, L. V. Slipchenko,S. V. Levchenko,
 D. P. O'Neill, R. A. DiStasio Jr., R. C. Lochan, T. Wang,
 G. J. O. Beran, N. A. Besley, J. M. Herbert, C. Y. Lin,
 T. Van Voorhis, S. H. Chien, A. Sodt, R. P. Steele, 
 V. A. Rassolov, P. E. Maslen, P. P. Korambath, R. D. Adamson,
 B. Austin, J. Baker, E. F. C. Byrd, H. Dachsel, R. J. Doerksen,
 A. Dreuw, B. D. Dunietz, A. D. Dutoi, T. R. Furlani,
 S. R. Gwaltney, A. Heyden, S. Hirata, C.-P. Hsu, G. Kedziora,
 R. Z. Khaliullin, P. Klunzinger, A. M. Lee, M. S. Lee, W. Liang,
 I. Lotan, N. Nair, B. Peters, E. I. Proynov, P. A. Pieniazek, 
 Y. M. Rhee, J. Ritchie, E. Rosta, C. D. Sherrill, 
 A. C. Simmonett, J. E. Subotnik, H. L. Woodcock III,
 W. Zhang, A. T. Bell, A. K. Chakraborty, D. M. Chipman,
 F. J. Keil, A. Warshel, W. J. Hehre, H. F. Schaefer III,
 J. Kong, A. I. Krylov, P. M. W. Gill, M. Head-Gordon,
 Q-Chem, Version 3.1, Q-Chem, Inc., Pittsburgh, PA (2007).

 Additional authors for Version 3.1: 
 Z. Gan, Y. Zhao, N. E. Schultz, D. Truhlar, E. Epifanovsky and M. Oana.

 Additional authors for Version 3.2: 
 R. Baer, B. R. Brooks, D. Casanova, J.-D. Chai, C.-L. Cheng, 
 C. Cramer, D. Crittenden, A. Ghysels, G. Hawkins, E. G. Hohenstein, 
 C. Kelley, W. Kurlancheek, D. Liotard, E. Livshits, P. Manohar, 
 A. Marenich, D. Neuhauser, R. Olson, M. A. Rohrdanz, K. S. Thanthiriwatte, 
 A. J. W. Thom, V. Vanovschi, C. F. Williams, Q. Wu and Z.-Q. You. 


 Intel X86 Linux Version

 Q-chem begins on Thu Nov 10 21:00:16 2011  

 Parallel job on  1  processors
Processing $rem in /usr/local/qchem/config/preferences.

theFileMan(): MAXOPENFILES=974 MAX_SUB_FILE_NUM=16
Maximum size of a physical file is 2.0 GB, maximum size of a tmp-file is 32.0 GB


--------------------------------------------------------------
User input:
--------------------------------------------------------------

$molecule
1,2
P
P,1,PP

PP=1.90449329

$end

$comment
negative
$end


$rem
   EXCHANGE B3LYP
   UNRESTRICTED TRUE
   BASIS G3large 
   SCF_PRINT 1
   PDB_PRINT 2
   INCDFT false
   VARTHRESH 0
   MAX_SCF_CYCLES 1000
   MEM_STATIC 256
   MEM_TOTAL 3000
   THRESH 140
   ITHRSH 14
   XC_GRID 75000302
   SCF_CONVERGENCE 6
$end

--------------------------------------------------------------
 Writing REM_CC_EA            0
 ----------------------------------------------------
       Standard Nuclear Orientation (Angstroms)
    I     Atom         X            Y            Z
 ----------------------------------------------------
    1      P       0.000000     0.000000    -0.952247
    2      P       0.000000     0.000000     0.952247
 ----------------------------------------------------
 Molecular Point Group                 D*h   NOp =***
 Largest Abelian Subgroup              D2h   NOp =  1
 Nuclear Repulsion Energy =    62.5178744683 hartrees
 There are       15 alpha and       14 beta electrons
 Requested basis set is G3large
 There are 38 shells and 132 basis functions

Total QAlloc Memory Limit   3000 MB
Mega-Array Size       251 MB
MEM_STATIC part       256 MB

                       Distance Matrix (Angstroms)
             P (  1)
   P (  2)  1.904493
 
 A cutoff of  1.0D-14 yielded    706 shell pairs
 There are   8703 function pairs ( 12510 Cartesian)
Evaluating contribution to one-electron hamiltonian from nuclear
 Smallest overlap matrix eigenvalue = 5.30E-04
 Multipole matrices computed through 2nd order

  Scale SEOQF with 1.000000e-01/1.000000e-01/1.000000e-01

 Standard Electronic Orientation quadrupole field applied
 Nucleus-field energy     =    -0.0000000029 hartrees
 Guess from superposition of atomic densities
 Warning:  Energy on first SCF cycle will be non-variational
 An unrestricted hybrid HF-DFT SCF calculation will be
 performed using Pulay DIIS extrapolation
 Exchange:     0.2000 Hartree-Fock + 0.0800 Slater + 0.7200 Becke88
 Correlation:  0.8100 LYP + 0.1900 VWN1RPA
 Using Euler-Maclaurin-Lebedev (75,302) quadrature formula
 SCF converges when DIIS error is below 1.0E-06
 Maximum number of SCF iterations = 1000

NRad = 75 NAng = 302
 Warning!  Inaccurate integrated density:
   Number of electrons =    29
   Numerical integral  =    29.999998833286
   Relative error      =     3.4482718389 %
 ---------------------------------------
  Cycle       Energy         DIIS Error
 ---------------------------------------
    1    -682.8578399655      2.54E-02

NRad = 75 NAng = 302
    2    -682.3546853138      1.73E-03

NRad = 75 NAng = 302
    3    -682.3666984268      8.84E-04

NRad = 75 NAng = 302
    4    -682.3681542570      2.40E-04

NRad = 75 NAng = 302
    5    -682.3682248713      4.54E-05

NRad = 75 NAng = 302
    6    -682.3682296516      1.18E-05

NRad = 75 NAng = 302
    7    -682.3682302296      9.43E-07 Convergence criterion met
 ---------------------------------------
 One-Electron    Energy = -1059.8121961451
 Total Coulomb   Energy =   361.1388719991
 Alpha Exchange  Energy =    -4.5347295397
 Beta  Exchange  Energy =    -4.4592268277
 DFT   Exchange  Energy =   -35.7198445221
 DFT Correlation Energy =    -1.4989796595
 Nuclear Repu.   Energy =    62.5178744654
 Nuclear Attr.   Energy = -1741.2619254457
 Kinetic         Energy =   681.4497293006
 <S^2> = 0.7528
 SCF time:  CPU 38.65 s  wall 39.07 s
 Analysis of SCF Wavefunction
 
 --------------------------------------------------------------
                    Orbital Energies (a.u.)
 --------------------------------------------------------------
 
 Alpha MOs
 -- Occupied --
-77.374 -77.374  -6.866  -6.866  -5.033  -5.033  -5.025  -5.025
 -5.022  -5.020  -0.984  -0.743  -0.585  -0.564  -0.556
 -- Virtual --
 -0.377  -0.355  -0.190  -0.176  -0.124  -0.116  -0.114  -0.113
 -0.101  -0.091  -0.063  -0.061  -0.057  -0.050  -0.013   0.027
  0.028   0.031   0.102   0.113   0.123   0.145   0.148   0.155
  0.215   0.225   0.293   0.315   0.388   0.388   0.424   0.425
  0.435   0.451   0.521   0.551   0.551   0.578   0.579   0.614
  0.614   0.629   0.643   0.655   0.712   0.775   0.776   0.836
  0.853   0.858   0.867   0.885   1.002   1.108   1.127   1.388
  1.403   1.496   1.608   2.407   2.423   2.442   2.553   2.553
  2.557   2.558   2.594   2.594   2.679   2.680   2.893   2.912
  2.991   3.643   3.650   3.651   3.655   3.703   3.703   3.749
  3.978   3.993   4.625   6.541   6.731  12.618  12.628  12.752
 12.762  12.842  13.027  21.081  21.081  21.081  21.087  21.104
 21.104  21.134  21.231  21.237  21.553  27.948  27.954  27.956
 27.958  27.960  27.960  27.961  27.963  27.964  27.972  27.972
 27.995  28.000  28.044 163.624 163.691
 
 Beta MOs
 -- Occupied --
-77.371 -77.371  -6.864  -6.864  -5.025  -5.025  -5.024  -5.023
 -5.021  -5.019  -0.954  -0.726  -0.558  -0.548
 -- Virtual --
 -0.479  -0.350  -0.336  -0.179  -0.171  -0.115  -0.114  -0.100
 -0.096  -0.094  -0.089  -0.057  -0.057  -0.049  -0.048  -0.012
  0.035   0.039   0.040   0.102   0.125   0.125   0.149   0.157
  0.158   0.225   0.226   0.301   0.325   0.402   0.402   0.437
  0.438   0.452   0.453   0.530   0.562   0.562   0.593   0.595
  0.629   0.630   0.631   0.654   0.654   0.720   0.782   0.783
  0.853   0.855   0.860   0.888   0.889   1.009   1.130   1.130
  1.402   1.404   1.506   1.612   2.418   2.442   2.444   2.573
  2.573   2.575   2.575   2.616   2.616   2.695   2.696   2.913
  2.914   2.997   3.650   3.655   3.657   3.658   3.710   3.710
  3.751   3.991   3.994   4.633   6.547   6.736  12.629  12.630
 12.763  12.764  12.845  13.029  21.086  21.086  21.086  21.088
 21.109  21.109  21.136  21.236  21.238  21.555  27.949  27.956
 27.958  27.959  27.961  27.962  27.962  27.965  27.965  27.974
 27.974  27.997  28.001  28.045 163.627 163.693
 --------------------------------------------------------------
 
          Ground-State Mulliken Net Atomic Charges

     Atom                 Charge (a.u.)    Spin (a.u.)
  --------------------------------------------------------
      1 P                     0.500000       0.500000
      2 P                     0.500000       0.500000
  --------------------------------------------------------
  Sum of atomic charges =     1.000000
  Sum of spin   charges =     1.000000

 -----------------------------------------------------------------
                    Cartesian Multipole Moments
 -----------------------------------------------------------------
    Charge (ESU x 10^10)
                 4.8032
    Dipole Moment (Debye)
         X       0.0000      Y       0.0000      Z       0.0000
       Tot       0.0000
    Quadrupole Moments (Debye-Ang)
        XX     -19.6610     XY       0.6450     YY     -22.0728
        XZ       0.0000     YZ       0.0000     ZZ     -16.1146
    Octapole Moments (Debye-Ang^2)
       XXX       0.0000    XXY       0.0000    XYY       0.0000
       YYY       0.0000    XXZ       0.0000    XYZ       0.0000
       YYZ       0.0000    XZZ       0.0000    YZZ       0.0000
       ZZZ       0.0000
    Hexadecapole Moments (Debye-Ang^3)
      XXXX     -24.0218   XXXY       0.8111   XXYY      -9.0182
      XYYY       0.8109   YYYY     -30.0870   XXXZ       0.0000
      XXYZ       0.0000   XYYZ       0.0000   YYYZ       0.0000
      XXZZ     -25.7741   XYZZ       0.5388   YYZZ     -27.7890
      XZZZ       0.0000   YZZZ       0.0000   ZZZZ    -142.3092
 -----------------------------------------------------------------
 Total job time:  39.47s(wall), 39.02s(cpu) 
 Thu Nov 10 21:00:56 2011

        *************************************************************
        *                                                           *
        *  Thank you very much for using Q-Chem.  Have a nice day.  *
        *                                                           *
        *************************************************************


0 sent ACK to 0 
now end server 0 ... 
