Process 0 of 1 is on cl008.stfx.acenet.ca - thread support 1
initial socket setup ...start
initial socket setup ...done 
now start server 0 ... 

cmd = /usr/bin/ssh clhead /usr/local/qchem/bin/get_hostid 1444801312 > /scratch/tmp/6022702.1.short.q/qchem9469/lic.dat
                  Welcome to Q-Chem
     A Quantum Leap Into The Future Of Chemistry

 Y. Shao, L. Fusti-Molnar, Y. Jung, J. Kussmann, C. Ochsenfeld,
 S. T. Brown, A. T. B. Gilbert, L. V. Slipchenko,S. V. Levchenko,
 D. P. O'Neill, R. A. DiStasio Jr., R. C. Lochan, T. Wang,
 G. J. O. Beran, N. A. Besley, J. M. Herbert, C. Y. Lin,
 T. Van Voorhis, S. H. Chien, A. Sodt, R. P. Steele, 
 V. A. Rassolov, P. E. Maslen, P. P. Korambath, R. D. Adamson,
 B. Austin, J. Baker, E. F. C. Byrd, H. Dachsel, R. J. Doerksen,
 A. Dreuw, B. D. Dunietz, A. D. Dutoi, T. R. Furlani,
 S. R. Gwaltney, A. Heyden, S. Hirata, C.-P. Hsu, G. Kedziora,
 R. Z. Khaliullin, P. Klunzinger, A. M. Lee, M. S. Lee, W. Liang,
 I. Lotan, N. Nair, B. Peters, E. I. Proynov, P. A. Pieniazek, 
 Y. M. Rhee, J. Ritchie, E. Rosta, C. D. Sherrill, 
 A. C. Simmonett, J. E. Subotnik, H. L. Woodcock III,
 W. Zhang, A. T. Bell, A. K. Chakraborty, D. M. Chipman,
 F. J. Keil, A. Warshel, W. J. Hehre, H. F. Schaefer III,
 J. Kong, A. I. Krylov, P. M. W. Gill, M. Head-Gordon,
 Q-Chem, Version 3.1, Q-Chem, Inc., Pittsburgh, PA (2007).

 Additional authors for Version 3.1: 
 Z. Gan, Y. Zhao, N. E. Schultz, D. Truhlar, E. Epifanovsky and M. Oana.

 Additional authors for Version 3.2: 
 R. Baer, B. R. Brooks, D. Casanova, J.-D. Chai, C.-L. Cheng, 
 C. Cramer, D. Crittenden, A. Ghysels, G. Hawkins, E. G. Hohenstein, 
 C. Kelley, W. Kurlancheek, D. Liotard, E. Livshits, P. Manohar, 
 A. Marenich, D. Neuhauser, R. Olson, M. A. Rohrdanz, K. S. Thanthiriwatte, 
 A. J. W. Thom, V. Vanovschi, C. F. Williams, Q. Wu and Z.-Q. You. 


 Intel X86 Linux Version

 Q-chem begins on Wed May 29 17:23:50 2013  

 Parallel job on  1  processors
Processing $rem in /usr/local/qchem/config/preferences.

theFileMan(): MAXOPENFILES=974 MAX_SUB_FILE_NUM=16
Maximum size of a physical file is 2.0 GB, maximum size of a tmp-file is 32.0 GB


--------------------------------------------------------------
User input:
--------------------------------------------------------------

$molecule
-1,2
C          0.00000        0.00000        0.00294
C          0.00000        0.00000        1.30744
H          0.94119        0.00000       -0.52378
H         -0.94119        0.00000       -0.52378
O          0.00000        0.00000        2.46255
$end

$comment
negative
$end

$xc_functional
C PBE   1.00
X wPBE  1.00
$end

$rem
SYMMETRY_DECOMPOSITION	0
exchange 		general
LRC_DFT                 true
BASIS                   g3large
omega			450
mem_static              760
max_scf_cycles          200
scf_final_print         1
sym_ignore              true
$end

--------------------------------------------------------------
 Writing REM_CC_EA            5
 ----------------------------------------------------
       Standard Nuclear Orientation (Angstroms)
    I     Atom         X            Y            Z
 ----------------------------------------------------
    1      C       0.000000     0.000000     0.002940
    2      C       0.000000     0.000000     1.307440
    3      H       0.941190     0.000000    -0.523780
    4      H      -0.941190     0.000000    -0.523780
    5      O       0.000000     0.000000     2.462550
 ----------------------------------------------------
 Nuclear Repulsion Energy =    58.8773479085 hartrees
 There are       12 alpha and       11 beta electrons
 Requested basis set is G3large
 There are 42 shells and 146 basis functions

Total QAlloc Memory Limit   2000 MB
Mega-Array Size       743 MB
MEM_STATIC part       760 MB

                       Distance Matrix (Angstroms)
             C (  1)   C (  2)   H (  3)   H (  4)
   C (  2)  1.304500
   H (  3)  1.078551  2.058933
   H (  4)  1.078551  2.058933  1.882380
   O (  5)  2.459610  1.155110  3.131135  3.131135
 
 A cutoff of  1.0D-08 yielded    845 shell pairs
 There are  10310 function pairs ( 13061 Cartesian)
Evaluating contribution to one-electron hamiltonian from nuclear
 Smallest overlap matrix eigenvalue = 5.07E-05

 Q-Chem warning in module mkSTV.C, line 194:

 Overlap eigenvalue is smaller than square root of threshold

 Multipole matrices computed through 2nd order

  Scale SEOQF with 1.000000e-01/1.000000e-01/1.000000e-01

 Standard Electronic Orientation quadrupole field applied
 Nucleus-field energy     =    -0.0000000063 hartrees
 Guess from superposition of atomic densities
 Warning:  Energy on first SCF cycle will be non-variational
 Long-range K will be added via erf
 Coulomb attenuation parameter = 0.45 bohr**(-1)
 An unrestricted Kohn-Sham SCF calculation will be
 performed using Pulay DIIS extrapolation
 Exchange:  wPBE + LR-HF      Correlation:  PBE
 Using SG-1 standard quadrature grid
 SCF converges when DIIS error is below 1.0E-05
 Requested basis set is G3large
 There are 42 shells and 146 basis functions
 A cutoff of  1.0D-08 yielded    845 shell pairs
 There are  10310 function pairs ( 13061 Cartesian)
 Warning!  Inaccurate integrated density:
   Number of electrons =    23
   Numerical integral  =    21.999931962882
   Relative error      =    -4.3481219005 %
 ---------------------------------------
  Cycle       Energy         DIIS Error
 ---------------------------------------
    1    -153.2346340620      3.99E-02
    2    -152.3757627767      6.23E-03
    3    -152.4143474873      6.27E-03
    4    -152.4876520050      9.76E-04
    5    -152.4908635276      3.76E-04
    6    -152.4921463334      1.09E-04
    7    -152.4926232806      6.34E-05
    8    -152.4929524036      3.63E-05
    9    -152.4930973963      2.32E-05
   10    -152.4931319255      1.42E-05
   11    -152.4931522074      1.12E-05
   12    -152.4931564633      7.68E-06 Convergence criterion met
 ---------------------------------------
 One-Electron    Energy =  -328.7110089906
 Total Coulomb   Energy =   137.6552393968
 Alpha Exchange  Energy =    -2.6014406469
 Beta  Exchange  Energy =    -2.4180511427
 DFT   Exchange  Energy =   -14.5508192503
 DFT Correlation Energy =    -0.7444237319
 Nuclear Repu.   Energy =    58.8773479022
 Nuclear Attr.   Energy =  -481.1134397586
 Kinetic         Energy =   152.4024307680
 <S^2> = 0.7573
 SCF time:  CPU 72.99 s  wall 74.60 s
 Final Alpha MO Eigenvalues
            1           2           3           4           5           6
    1 -18.7616803  -9.9403216  -9.8888119  -1.0044603  -0.6848339  -0.4366616
            7           8           9          10          11          12
    1  -0.3944809  -0.3716828  -0.3397225  -0.3019676  -0.1161721   0.0348172
           13          14          15          16          17
    1   0.1706618   0.1845510   0.2196622   0.2700877   0.2707087
 Final Beta MO Eigenvalues
            1           2           3           4           5           6
    1 -18.7561502  -9.9310748  -9.8908363  -0.9928424  -0.6720106  -0.4177520
            7           8           9          10          11          12
    1  -0.3627939  -0.3621305  -0.3311708  -0.2669701  -0.1163874   0.1754263
           13          14          15          16
    1   0.1809064   0.2205074   0.2690983   0.2708485
 Analysis of SCF Wavefunction
 
 --------------------------------------------------------------
                    Orbital Energies (a.u.)
 --------------------------------------------------------------
 
 Alpha MOs
 -- Occupied --
-18.762  -9.940  -9.889  -1.004  -0.685  -0.437  -0.394  -0.372
 -0.340  -0.302  -0.116   0.035
 -- Virtual --
  0.171   0.185   0.220   0.270   0.271   0.281   0.282   0.320
  0.349   0.351   0.413   0.418   0.499   0.500   0.519   0.537
  0.542   0.636   0.722   0.808   0.830   0.839   0.849   0.876
  0.912   0.916   0.967   0.970   1.046   1.047   1.072   1.154
  1.204   1.284   1.344   1.361   1.386   1.405   1.416   1.482
  1.505   1.650   1.687   1.748   1.772   1.826   1.890   1.965
  1.985   2.087   2.400   2.539   2.772   2.814   2.884   2.933
  3.028   3.037   3.071   3.075   3.086   3.113   3.121   3.241
  3.298   3.395   3.430   3.464   3.488   3.503   3.588   3.648
  3.657   3.664   3.683   3.905   3.939   4.005   4.068   4.148
  4.177   4.306   4.546   4.611   4.612   4.806   5.097   5.205
  5.367   5.395   5.398   5.469   5.576   5.643   5.652   5.899
  5.920   5.989   6.570   7.128   7.135   7.362   7.451   7.634
  7.706   7.723   8.372  24.680  25.088  27.571  27.734  27.785
 28.451  28.522  29.456  41.090  41.238  41.335  41.347  41.427
 41.479  41.497  41.532  41.610  41.657  43.946  44.008  44.181
 44.211  44.302  46.081  46.103  47.039  50.802
 
 Beta MOs
 -- Occupied --
-18.756  -9.931  -9.891  -0.993  -0.672  -0.418  -0.363  -0.362
 -0.331  -0.267  -0.116
 -- Virtual --
  0.175   0.181   0.221   0.269   0.271   0.283   0.283   0.322
  0.348   0.349   0.366   0.422   0.426   0.503   0.517   0.521
  0.543   0.552   0.644   0.736   0.815   0.841   0.841   0.867
  0.899   0.917   0.921   0.981   0.989   1.059   1.067   1.075
  1.157   1.213   1.294   1.350   1.368   1.403   1.408   1.421
  1.505   1.512   1.658   1.689   1.757   1.777   1.835   1.903
  1.978   2.001   2.096   2.413   2.542   2.787   2.822   2.891
  2.946   3.032   3.040   3.079   3.099   3.118   3.125   3.159
  3.261   3.297   3.419   3.436   3.479   3.509   3.510   3.620
  3.653   3.664   3.670   3.703   3.926   3.949   4.017   4.073
  4.158   4.180   4.315   4.555   4.620   4.621   4.821   5.101
  5.211   5.385   5.411   5.417   5.474   5.585   5.652   5.672
  5.911   5.927   6.001   6.578   7.153   7.158   7.366   7.471
  7.638   7.711   7.745   8.380  24.685  25.092  27.573  27.736
 27.811  28.449  28.520  29.462  41.108  41.236  41.337  41.365
 41.425  41.481  41.512  41.532  41.609  41.659  43.961  44.023
 44.182  44.224  44.308  46.085  46.120  47.042  50.807
 --------------------------------------------------------------
 
          Ground-State Mulliken Net Atomic Charges

     Atom                 Charge (a.u.)    Spin (a.u.)
  --------------------------------------------------------
      1 C                    -0.357794      -0.431346
      2 C                     0.303248       0.588864
      3 H                    -0.210797       0.335127
      4 H                    -0.180791       0.303978
      5 O                    -0.553866       0.203377
  --------------------------------------------------------
  Sum of atomic charges =    -1.000000
  Sum of spin   charges =     1.000000

 -----------------------------------------------------------------
                    Cartesian Multipole Moments
 -----------------------------------------------------------------
    Charge (ESU x 10^10)
                -4.8032
    Dipole Moment (Debye)
         X      -0.0676      Y       0.0001      Z      -4.3530
       Tot       4.3535
    Quadrupole Moments (Debye-Ang)
        XX     -25.5998     XY       0.0067     YY     -23.4537
        XZ       0.0817     YZ      -0.0001     ZZ     -38.9676
    Octapole Moments (Debye-Ang^2)
       XXX      -0.7727    XXY       0.0003    XYY      -0.1710
       YYY       0.0006    XXZ     -13.6472    XYZ      -0.0074
       YYZ     -18.2535    XZZ      -0.3044    YZZ       0.0003
       ZZZ     -99.0037
    Hexadecapole Moments (Debye-Ang^3)
      XXXX    -112.9153   XXXY       0.0362   XXYY     -23.8066
      XYYY       0.0308   YYYY     -41.8071   XXXZ       0.7175
      XXYZ      -0.0003   XYYZ       0.1727   YYYZ      -0.0007
      XXZZ     -81.4673   XYZZ       0.0174   YYZZ     -62.3574
      XZZZ       0.4289   YZZZ      -0.0005   ZZZZ    -452.4437
 -----------------------------------------------------------------
 Total job time:  74.79s(wall), 73.17s(cpu) 
 Wed May 29 17:25:05 2013

        *************************************************************
        *                                                           *
        *  Thank you very much for using Q-Chem.  Have a nice day.  *
        *                                                           *
        *************************************************************


0 sent ACK to 0 
now end server 0 ... 
 
**********************************************************************
Job 2 of 3 
**********************************************************************
 
Process 0 of 1 is on cl008.stfx.acenet.ca - thread support 1
initial socket setup ...start
initial socket setup ...done 
now start server 0 ... 

cmd = /usr/bin/ssh clhead /usr/local/qchem/bin/get_hostid 1342503037 > /scratch/tmp/6022702.1.short.q/qchem9469/lic.dat
                  Welcome to Q-Chem
     A Quantum Leap Into The Future Of Chemistry

 Y. Shao, L. Fusti-Molnar, Y. Jung, J. Kussmann, C. Ochsenfeld,
 S. T. Brown, A. T. B. Gilbert, L. V. Slipchenko,S. V. Levchenko,
 D. P. O'Neill, R. A. DiStasio Jr., R. C. Lochan, T. Wang,
 G. J. O. Beran, N. A. Besley, J. M. Herbert, C. Y. Lin,
 T. Van Voorhis, S. H. Chien, A. Sodt, R. P. Steele, 
 V. A. Rassolov, P. E. Maslen, P. P. Korambath, R. D. Adamson,
 B. Austin, J. Baker, E. F. C. Byrd, H. Dachsel, R. J. Doerksen,
 A. Dreuw, B. D. Dunietz, A. D. Dutoi, T. R. Furlani,
 S. R. Gwaltney, A. Heyden, S. Hirata, C.-P. Hsu, G. Kedziora,
 R. Z. Khaliullin, P. Klunzinger, A. M. Lee, M. S. Lee, W. Liang,
 I. Lotan, N. Nair, B. Peters, E. I. Proynov, P. A. Pieniazek, 
 Y. M. Rhee, J. Ritchie, E. Rosta, C. D. Sherrill, 
 A. C. Simmonett, J. E. Subotnik, H. L. Woodcock III,
 W. Zhang, A. T. Bell, A. K. Chakraborty, D. M. Chipman,
 F. J. Keil, A. Warshel, W. J. Hehre, H. F. Schaefer III,
 J. Kong, A. I. Krylov, P. M. W. Gill, M. Head-Gordon,
 Q-Chem, Version 3.1, Q-Chem, Inc., Pittsburgh, PA (2007).

 Additional authors for Version 3.1: 
 Z. Gan, Y. Zhao, N. E. Schultz, D. Truhlar, E. Epifanovsky and M. Oana.

 Additional authors for Version 3.2: 
 R. Baer, B. R. Brooks, D. Casanova, J.-D. Chai, C.-L. Cheng, 
 C. Cramer, D. Crittenden, A. Ghysels, G. Hawkins, E. G. Hohenstein, 
 C. Kelley, W. Kurlancheek, D. Liotard, E. Livshits, P. Manohar, 
 A. Marenich, D. Neuhauser, R. Olson, M. A. Rohrdanz, K. S. Thanthiriwatte, 
 A. J. W. Thom, V. Vanovschi, C. F. Williams, Q. Wu and Z.-Q. You. 


 Intel X86 Linux Version

 Q-chem begins on Wed May 29 17:25:07 2013  

 Parallel job on  1  processors
Processing $rem in /usr/local/qchem/config/preferences.

theFileMan(): MAXOPENFILES=974 MAX_SUB_FILE_NUM=16
Maximum size of a physical file is 2.0 GB, maximum size of a tmp-file is 32.0 GB


--------------------------------------------------------------
User input:
--------------------------------------------------------------

$molecule
0,1
C          0.00000        0.00000        0.00294
C          0.00000        0.00000        1.30744
H          0.94119        0.00000       -0.52378
H         -0.94119        0.00000       -0.52378
O          0.00000        0.00000        2.46255
$end

$comment
neutral
$end

$xc_functional
C PBE   1.00
X wPBE  1.00
$end


$rem
SYMMETRY_DECOMPOSITION	0
LRC_DFT                 true
exchange 		general
BASIS                   g3large
omega			450
mem_static              760
max_scf_cycles          200
scf_final_print         1
sym_ignore              true
$end

--------------------------------------------------------------
 Writing REM_CC_EA            5
 ----------------------------------------------------
       Standard Nuclear Orientation (Angstroms)
    I     Atom         X            Y            Z
 ----------------------------------------------------
    1      C       0.000000     0.000000     0.002940
    2      C       0.000000     0.000000     1.307440
    3      H       0.941190     0.000000    -0.523780
    4      H      -0.941190     0.000000    -0.523780
    5      O       0.000000     0.000000     2.462550
 ----------------------------------------------------
 Nuclear Repulsion Energy =    58.8773479085 hartrees
 There are       11 alpha and       11 beta electrons
 Requested basis set is G3large
 There are 42 shells and 146 basis functions

Total QAlloc Memory Limit   2000 MB
Mega-Array Size       743 MB
MEM_STATIC part       760 MB

                       Distance Matrix (Angstroms)
             C (  1)   C (  2)   H (  3)   H (  4)
   C (  2)  1.304500
   H (  3)  1.078551  2.058933
   H (  4)  1.078551  2.058933  1.882380
   O (  5)  2.459610  1.155110  3.131135  3.131135
 
 A cutoff of  1.0D-08 yielded    845 shell pairs
 There are  10310 function pairs ( 13061 Cartesian)
Evaluating contribution to one-electron hamiltonian from nuclear
 Smallest overlap matrix eigenvalue = 5.07E-05

 Q-Chem warning in module mkSTV.C, line 194:

 Overlap eigenvalue is smaller than square root of threshold

 Multipole matrices computed through 2nd order

  Scale SEOQF with 1.000000e-01/1.000000e-01/1.000000e-01

 Standard Electronic Orientation quadrupole field applied
 Nucleus-field energy     =    -0.0000000063 hartrees
 Guess from superposition of atomic densities
 Warning:  Energy on first SCF cycle will be non-variational
 Long-range K will be added via erf
 Coulomb attenuation parameter = 0.45 bohr**(-1)
 A restricted Kohn-Sham SCF calculation will be
 performed using Pulay DIIS extrapolation
 Exchange:  wPBE + LR-HF      Correlation:  PBE
 Using SG-1 standard quadrature grid
 SCF converges when DIIS error is below 1.0E-05
 Requested basis set is G3large
 There are 42 shells and 146 basis functions
 A cutoff of  1.0D-08 yielded    845 shell pairs
 There are  10310 function pairs ( 13061 Cartesian)
 ---------------------------------------
  Cycle       Energy         DIIS Error
 ---------------------------------------
    1    -153.2346340620      3.99E-02
    2    -152.4692376042      5.34E-03
    3    -152.4775323454      5.93E-03
    4    -152.5364680045      8.39E-04
    5    -152.5383913479      3.87E-04
    6    -152.5390649307      1.11E-04
    7    -152.5392103822      4.34E-05
    8    -152.5392470413      2.04E-05
    9    -152.5392584002      8.96E-06 Convergence criterion met
 ---------------------------------------
 One-Electron    Energy =  -322.8126504301
 Total Coulomb   Energy =   131.4218111783
 Alpha Exchange  Energy =    -2.4324826437
 Beta  Exchange  Energy =    -2.4324826437
 DFT   Exchange  Energy =   -14.4430838383
 DFT Correlation Energy =    -0.7177179246
 Nuclear Repu.   Energy =    58.8773479022
 Nuclear Attr.   Energy =  -474.8237009511
 Kinetic         Energy =   152.0110505209
 SCF time:  CPU 45.36 s  wall 45.90 s
 Final Alpha MO Eigenvalues
            1           2           3           4           5           6
    1 -19.0549292 -10.2650072 -10.1377368  -1.2844438  -0.9494524  -0.6883689
            7           8           9          10          11          12
    1  -0.6397464  -0.6324025  -0.6091996  -0.5429663  -0.3704951   0.0411035
           13          14          15          16
    1   0.0525625   0.0689519   0.0819034   0.1076244
 Analysis of SCF Wavefunction
 
 --------------------------------------------------------------
                    Orbital Energies (a.u.)
 --------------------------------------------------------------
 
 Alpha MOs
 -- Occupied --
-19.055 -10.265 -10.138  -1.284  -0.949  -0.688  -0.640  -0.632
 -0.609  -0.543  -0.370
 -- Virtual --
  0.041   0.053   0.069   0.082   0.108   0.128   0.132   0.135
  0.163   0.184   0.196   0.198   0.229   0.311   0.328   0.344
  0.364   0.375   0.422   0.505   0.591   0.596   0.619   0.636
  0.661   0.688   0.695   0.748   0.753   0.814   0.827   0.855
  0.918   0.988   1.027   1.120   1.133   1.163   1.184   1.195
  1.244   1.273   1.421   1.442   1.525   1.535   1.601   1.644
  1.720   1.737   1.849   2.149   2.288   2.522   2.573   2.628
  2.687   2.767   2.773   2.802   2.811   2.822   2.854   2.860
  2.974   3.046   3.126   3.177   3.205   3.222   3.250   3.319
  3.387   3.403   3.403   3.424   3.642   3.680   3.742   3.811
  3.893   3.914   4.058   4.301   4.360   4.365   4.544   4.827
  4.931   5.104   5.127   5.129   5.200   5.306   5.387   5.387
  5.627   5.672   5.721   6.299   6.857   6.864   7.089   7.175
  7.363   7.434   7.450   8.092  24.391  24.808  27.274  27.460
 27.467  28.202  28.267  29.141  40.767  40.981  41.025  41.051
 41.167  41.176  41.177  41.271  41.358  41.376  43.657  43.719
 43.890  43.920  44.011  45.790  45.813  46.746  50.511
 --------------------------------------------------------------
 
          Ground-State Mulliken Net Atomic Charges

     Atom                 Charge (a.u.)
  ----------------------------------------
      1 C                    -0.370323
      2 C                     0.417838
      3 H                     0.119462
      4 H                     0.119465
      5 O                    -0.286442
  ----------------------------------------
  Sum of atomic charges =     0.000000

 -----------------------------------------------------------------
                    Cartesian Multipole Moments
 -----------------------------------------------------------------
    Charge (ESU x 10^10)
                 0.0000
    Dipole Moment (Debye)
         X      -0.0001      Y       0.0000      Z      -1.5118
       Tot       1.5118
    Quadrupole Moments (Debye-Ang)
        XX     -15.2367     XY      -0.0004     YY     -18.9258
        XZ      -0.0002     YZ      -0.0001     ZZ     -21.6835
    Octapole Moments (Debye-Ang^2)
       XXX      -0.0001    XXY       0.0000    XYY       0.0000
       YYY       0.0000    XXZ     -18.8151    XYZ      -0.0016
       YYZ     -18.8474    XZZ      -0.0005    YZZ      -0.0002
       ZZZ     -72.7685
    Hexadecapole Moments (Debye-Ang^3)
      XXXX     -20.5081   XXXY      -0.0002   XXYY      -7.3956
      XYYY      -0.0005   YYYY     -20.8140   XXXZ      -0.0002
      XXYZ       0.0000   XYYZ      -0.0001   YYYZ      -0.0001
      XXZZ     -45.3005   XYZZ      -0.0027   YYZZ     -47.7500
      XZZZ      -0.0016   YZZZ      -0.0005   ZZZZ    -309.2212
 -----------------------------------------------------------------
 Total job time:  46.08s(wall), 45.52s(cpu) 
 Wed May 29 17:25:54 2013

        *************************************************************
        *                                                           *
        *  Thank you very much for using Q-Chem.  Have a nice day.  *
        *                                                           *
        *************************************************************


0 sent ACK to 0 
now end server 0 ... 
 
**********************************************************************
Job 3 of 3 
**********************************************************************
 
Process 0 of 1 is on cl008.stfx.acenet.ca - thread support 1
initial socket setup ...start
initial socket setup ...done 
now start server 0 ... 

cmd = /usr/bin/ssh clhead /usr/local/qchem/bin/get_hostid 408465488 > /scratch/tmp/6022702.1.short.q/qchem9469/lic.dat
                  Welcome to Q-Chem
     A Quantum Leap Into The Future Of Chemistry

 Y. Shao, L. Fusti-Molnar, Y. Jung, J. Kussmann, C. Ochsenfeld,
 S. T. Brown, A. T. B. Gilbert, L. V. Slipchenko,S. V. Levchenko,
 D. P. O'Neill, R. A. DiStasio Jr., R. C. Lochan, T. Wang,
 G. J. O. Beran, N. A. Besley, J. M. Herbert, C. Y. Lin,
 T. Van Voorhis, S. H. Chien, A. Sodt, R. P. Steele, 
 V. A. Rassolov, P. E. Maslen, P. P. Korambath, R. D. Adamson,
 B. Austin, J. Baker, E. F. C. Byrd, H. Dachsel, R. J. Doerksen,
 A. Dreuw, B. D. Dunietz, A. D. Dutoi, T. R. Furlani,
 S. R. Gwaltney, A. Heyden, S. Hirata, C.-P. Hsu, G. Kedziora,
 R. Z. Khaliullin, P. Klunzinger, A. M. Lee, M. S. Lee, W. Liang,
 I. Lotan, N. Nair, B. Peters, E. I. Proynov, P. A. Pieniazek, 
 Y. M. Rhee, J. Ritchie, E. Rosta, C. D. Sherrill, 
 A. C. Simmonett, J. E. Subotnik, H. L. Woodcock III,
 W. Zhang, A. T. Bell, A. K. Chakraborty, D. M. Chipman,
 F. J. Keil, A. Warshel, W. J. Hehre, H. F. Schaefer III,
 J. Kong, A. I. Krylov, P. M. W. Gill, M. Head-Gordon,
 Q-Chem, Version 3.1, Q-Chem, Inc., Pittsburgh, PA (2007).

 Additional authors for Version 3.1: 
 Z. Gan, Y. Zhao, N. E. Schultz, D. Truhlar, E. Epifanovsky and M. Oana.

 Additional authors for Version 3.2: 
 R. Baer, B. R. Brooks, D. Casanova, J.-D. Chai, C.-L. Cheng, 
 C. Cramer, D. Crittenden, A. Ghysels, G. Hawkins, E. G. Hohenstein, 
 C. Kelley, W. Kurlancheek, D. Liotard, E. Livshits, P. Manohar, 
 A. Marenich, D. Neuhauser, R. Olson, M. A. Rohrdanz, K. S. Thanthiriwatte, 
 A. J. W. Thom, V. Vanovschi, C. F. Williams, Q. Wu and Z.-Q. You. 


 Intel X86 Linux Version

 Q-chem begins on Wed May 29 17:25:56 2013  

 Parallel job on  1  processors
Processing $rem in /usr/local/qchem/config/preferences.

theFileMan(): MAXOPENFILES=974 MAX_SUB_FILE_NUM=16
Maximum size of a physical file is 2.0 GB, maximum size of a tmp-file is 32.0 GB


--------------------------------------------------------------
User input:
--------------------------------------------------------------

$molecule
1,2
C          0.00000        0.00000        0.00294
C          0.00000        0.00000        1.30744
H          0.94119        0.00000       -0.52378
H         -0.94119        0.00000       -0.52378
O          0.00000        0.00000        2.46255
$end

$comment
positive
$end

$xc_functional
C PBE   1.00
X wPBE  1.00
$end

$rem
SYMMETRY_DECOMPOSITION	0
LRC_DFT                 true
exchange 		general
BASIS                   g3large
omega			450
mem_static              760
max_scf_cycles          200
scf_final_print         1
sym_ignore              true
$end

--------------------------------------------------------------
 Writing REM_CC_EA            5
 ----------------------------------------------------
       Standard Nuclear Orientation (Angstroms)
    I     Atom         X            Y            Z
 ----------------------------------------------------
    1      C       0.000000     0.000000     0.002940
    2      C       0.000000     0.000000     1.307440
    3      H       0.941190     0.000000    -0.523780
    4      H      -0.941190     0.000000    -0.523780
    5      O       0.000000     0.000000     2.462550
 ----------------------------------------------------
 Nuclear Repulsion Energy =    58.8773479085 hartrees
 There are       11 alpha and       10 beta electrons
 Requested basis set is G3large
 There are 42 shells and 146 basis functions

Total QAlloc Memory Limit   2000 MB
Mega-Array Size       743 MB
MEM_STATIC part       760 MB

                       Distance Matrix (Angstroms)
             C (  1)   C (  2)   H (  3)   H (  4)
   C (  2)  1.304500
   H (  3)  1.078551  2.058933
   H (  4)  1.078551  2.058933  1.882380
   O (  5)  2.459610  1.155110  3.131135  3.131135
 
 A cutoff of  1.0D-08 yielded    845 shell pairs
 There are  10310 function pairs ( 13061 Cartesian)
Evaluating contribution to one-electron hamiltonian from nuclear
 Smallest overlap matrix eigenvalue = 5.07E-05

 Q-Chem warning in module mkSTV.C, line 194:

 Overlap eigenvalue is smaller than square root of threshold

 Multipole matrices computed through 2nd order

  Scale SEOQF with 1.000000e-01/1.000000e-01/1.000000e-01

 Standard Electronic Orientation quadrupole field applied
 Nucleus-field energy     =    -0.0000000063 hartrees
 Guess from superposition of atomic densities
 Warning:  Energy on first SCF cycle will be non-variational
 Long-range K will be added via erf
 Coulomb attenuation parameter = 0.45 bohr**(-1)
 An unrestricted Kohn-Sham SCF calculation will be
 performed using Pulay DIIS extrapolation
 Exchange:  wPBE + LR-HF      Correlation:  PBE
 Using SG-1 standard quadrature grid
 SCF converges when DIIS error is below 1.0E-05
 Requested basis set is G3large
 There are 42 shells and 146 basis functions
 A cutoff of  1.0D-08 yielded    845 shell pairs
 There are  10310 function pairs ( 13061 Cartesian)
 Warning!  Inaccurate integrated density:
   Number of electrons =    21
   Numerical integral  =    21.999931962882
   Relative error      =     4.7615807756 %
 ---------------------------------------
  Cycle       Energy         DIIS Error
 ---------------------------------------
    1    -153.2346340620      3.99E-02
    2    -152.0627960014      5.61E-03
    3    -152.0506520687      7.96E-03
    4    -152.1716192886      9.39E-04
    5    -152.1756400528      2.92E-04
    6    -152.1770360468      1.08E-04
    7    -152.1774711415      5.44E-05
    8    -152.1775911393      2.41E-05
    9    -152.1776250676      1.08E-05
   10    -152.1776306921      3.89E-06 Convergence criterion met
 ---------------------------------------
 One-Electron    Energy =  -315.8438395220
 Total Coulomb   Energy =   124.4865722002
 Alpha Exchange  Energy =    -2.4527816197
 Beta  Exchange  Energy =    -2.2353318027
 DFT   Exchange  Energy =   -14.3321115378
 DFT Correlation Energy =    -0.6774863123
 Nuclear Repu.   Energy =    58.8773479022
 Nuclear Attr.   Energy =  -467.5752462968
 Kinetic         Energy =   151.7314067748
 <S^2> = 0.7658
 SCF time:  CPU 60.50 s  wall 61.48 s
 Final Alpha MO Eigenvalues
            1           2           3           4           5           6
    1 -19.3945038 -10.5873511 -10.4981795  -1.5993143  -1.2988588  -0.9959726
            7           8           9          10          11          12
    1  -0.9491343  -0.9446667  -0.9322734  -0.8473411  -0.7299809  -0.2296887
           13          14          15          16
    1  -0.1611612  -0.1297410  -0.0839560  -0.0760349
 Final Beta MO Eigenvalues
            1           2           3           4           5           6
    1 -19.3867689 -10.5887033 -10.4869761  -1.5872908  -1.2587331  -0.9832835
            7           8           9          10          11          12
    1  -0.9425464  -0.9342611  -0.8788884  -0.8389092  -0.3521471  -0.2282154
           13          14          15
    1  -0.1265705  -0.1060146  -0.0831904
 Analysis of SCF Wavefunction
 
 --------------------------------------------------------------
                    Orbital Energies (a.u.)
 --------------------------------------------------------------
 
 Alpha MOs
 -- Occupied --
-19.395 -10.587 -10.498  -1.599  -1.299  -0.996  -0.949  -0.945
 -0.932  -0.847  -0.730
 -- Virtual --
 -0.230  -0.161  -0.130  -0.084  -0.076  -0.063  -0.030  -0.022
 -0.011  -0.010   0.006   0.031   0.037   0.084   0.125   0.159
  0.175   0.188   0.210   0.266   0.305   0.331   0.349   0.397
  0.410   0.425   0.430   0.495   0.512   0.540   0.577   0.619
  0.624   0.724   0.737   0.853   0.862   0.911   0.931   0.959
  0.975   0.990   1.148   1.151   1.261   1.264   1.332   1.366
  1.440   1.447   1.576   1.857   1.983   2.247   2.279   2.325
  2.392   2.427   2.462   2.484   2.493   2.504   2.526   2.561
  2.664   2.695   2.813   2.848   2.871   2.909   2.926   3.014
  3.068   3.078   3.099   3.099   3.344   3.354   3.397   3.491
  3.582   3.583   3.765   4.001   4.059   4.061   4.232   4.482
  4.603   4.792   4.814   4.822   4.868   4.996   5.072   5.077
  5.316   5.367   5.408   5.978   6.526   6.532   6.764   6.867
  7.037   7.131   7.144   7.774  24.057  24.464  26.936  27.103
 27.147  27.847  27.914  28.815  40.445  40.615  40.703  40.712
 40.810  40.839  40.854  40.907  41.005  41.032  43.312  43.374
 43.545  43.588  43.674  45.442  45.478  46.412  50.174
 
 Beta MOs
 -- Occupied --
-19.387 -10.589 -10.487  -1.587  -1.259  -0.983  -0.943  -0.934
 -0.879  -0.839
 -- Virtual --
 -0.352  -0.228  -0.127  -0.106  -0.083  -0.075  -0.051  -0.029
 -0.022  -0.007  -0.003   0.019   0.032   0.039   0.088   0.127
  0.164   0.176   0.192   0.212   0.269   0.330   0.355   0.375
  0.399   0.412   0.438   0.440   0.501   0.515   0.544   0.583
  0.628   0.649   0.736   0.740   0.866   0.876   0.914   0.947
  0.964   0.980   1.011   1.160   1.166   1.268   1.268   1.342
  1.370   1.453   1.465   1.590   1.868   2.007   2.250   2.288
  2.339   2.402   2.457   2.479   2.494   2.504   2.516   2.546
  2.561   2.666   2.746   2.824   2.881   2.897   2.919   2.951
  3.016   3.083   3.102   3.105   3.131   3.344   3.378   3.432
  3.505   3.590   3.609   3.766   4.011   4.065   4.072   4.236
  4.518   4.614   4.806   4.836   4.838   4.900   5.005   5.081
  5.086   5.330   5.372   5.424   5.988   6.559   6.566   6.784
  6.871   7.065   7.137   7.151   7.782  24.061  24.471  26.946
 27.124  27.145  27.855  27.921  28.815  40.443  40.642  40.701
 40.713  40.832  40.841  40.852  40.926  41.008  41.036  43.332
 43.393  43.564  43.591  43.683  45.464  45.484  46.417  50.181
 --------------------------------------------------------------
 
          Ground-State Mulliken Net Atomic Charges

     Atom                 Charge (a.u.)    Spin (a.u.)
  --------------------------------------------------------
      1 C                     0.107257       0.761332
      2 C                     0.496197      -0.015960
      3 H                     0.192569      -0.025322
      4 H                     0.192568      -0.025327
      5 O                     0.011409       0.305277
  --------------------------------------------------------
  Sum of atomic charges =     1.000000
  Sum of spin   charges =     1.000000

 -----------------------------------------------------------------
                    Cartesian Multipole Moments
 -----------------------------------------------------------------
    Charge (ESU x 10^10)
                 4.8032
    Dipole Moment (Debye)
         X       0.0000      Y       0.0000      Z       2.2737
       Tot       2.2737
    Quadrupole Moments (Debye-Ang)
        XX     -12.2633     XY       0.0001     YY     -14.7650
        XZ       0.0001     YZ       0.0000     ZZ      -9.2418
    Octapole Moments (Debye-Ang^2)
       XXX       0.0000    XXY       0.0000    XYY       0.0000
       YYY       0.0000    XXZ     -17.7997    XYZ      -0.0001
       YYZ     -16.3035    XZZ       0.0003    YZZ      -0.0001
       ZZZ     -42.8268
    Hexadecapole Moments (Debye-Ang^3)
      XXXX     -14.2086   XXXY       0.0001   XXYY      -5.0116
      XYYY       0.0001   YYYY     -12.1335   XXXZ       0.0001
      XXYZ       0.0000   XYYZ       0.0000   YYYZ       0.0000
      XXZZ     -39.3592   XYZZ      -0.0006   YYZZ     -39.6920
      XZZZ       0.0009   YZZZ      -0.0002   ZZZZ    -215.5793
 -----------------------------------------------------------------
 Total job time:  61.66s(wall), 60.67s(cpu) 
 Wed May 29 17:26:58 2013

        *************************************************************
        *                                                           *
        *  Thank you very much for using Q-Chem.  Have a nice day.  *
        *                                                           *
        *************************************************************


0 sent ACK to 0 
now end server 0 ... 
