Process 0 of 1 is on cl052.stfx.acenet.ca - thread support 1
initial socket setup ...start
initial socket setup ...done 
now start server 0 ... 

cmd = /usr/bin/ssh clhead /usr/local/qchem/bin/get_hostid 1168994888 > /scratch/tmp/6063407.1.short.q/qchem19554/lic.dat
                  Welcome to Q-Chem
     A Quantum Leap Into The Future Of Chemistry

 Y. Shao, L. Fusti-Molnar, Y. Jung, J. Kussmann, C. Ochsenfeld,
 S. T. Brown, A. T. B. Gilbert, L. V. Slipchenko,S. V. Levchenko,
 D. P. O'Neill, R. A. DiStasio Jr., R. C. Lochan, T. Wang,
 G. J. O. Beran, N. A. Besley, J. M. Herbert, C. Y. Lin,
 T. Van Voorhis, S. H. Chien, A. Sodt, R. P. Steele, 
 V. A. Rassolov, P. E. Maslen, P. P. Korambath, R. D. Adamson,
 B. Austin, J. Baker, E. F. C. Byrd, H. Dachsel, R. J. Doerksen,
 A. Dreuw, B. D. Dunietz, A. D. Dutoi, T. R. Furlani,
 S. R. Gwaltney, A. Heyden, S. Hirata, C.-P. Hsu, G. Kedziora,
 R. Z. Khaliullin, P. Klunzinger, A. M. Lee, M. S. Lee, W. Liang,
 I. Lotan, N. Nair, B. Peters, E. I. Proynov, P. A. Pieniazek, 
 Y. M. Rhee, J. Ritchie, E. Rosta, C. D. Sherrill, 
 A. C. Simmonett, J. E. Subotnik, H. L. Woodcock III,
 W. Zhang, A. T. Bell, A. K. Chakraborty, D. M. Chipman,
 F. J. Keil, A. Warshel, W. J. Hehre, H. F. Schaefer III,
 J. Kong, A. I. Krylov, P. M. W. Gill, M. Head-Gordon,
 Q-Chem, Version 3.1, Q-Chem, Inc., Pittsburgh, PA (2007).

 Additional authors for Version 3.1: 
 Z. Gan, Y. Zhao, N. E. Schultz, D. Truhlar, E. Epifanovsky and M. Oana.

 Additional authors for Version 3.2: 
 R. Baer, B. R. Brooks, D. Casanova, J.-D. Chai, C.-L. Cheng, 
 C. Cramer, D. Crittenden, A. Ghysels, G. Hawkins, E. G. Hohenstein, 
 C. Kelley, W. Kurlancheek, D. Liotard, E. Livshits, P. Manohar, 
 A. Marenich, D. Neuhauser, R. Olson, M. A. Rohrdanz, K. S. Thanthiriwatte, 
 A. J. W. Thom, V. Vanovschi, C. F. Williams, Q. Wu and Z.-Q. You. 


 Intel X86 Linux Version

 Q-chem begins on Sun Jul  7 08:37:38 2013  

 Parallel job on  1  processors
Processing $rem in /usr/local/qchem/config/preferences.

theFileMan(): MAXOPENFILES=974 MAX_SUB_FILE_NUM=16
Maximum size of a physical file is 2.0 GB, maximum size of a tmp-file is 32.0 GB


--------------------------------------------------------------
User input:
--------------------------------------------------------------

$molecule
-1,1
N          0.01789        0.00000        0.01445
H         -0.00566        0.00000        1.02303
H          0.99898        0.00000       -0.22054
$end

$comment
negative
$end

$xc_functional
C PBE   1.00
X wPBE  1.00
$end

$rem
SYMMETRY_DECOMPOSITION	0
exchange 		general
LRC_DFT                 true
BASIS                   g3large
omega			2000
mem_static              760
max_scf_cycles          200
scf_final_print         1
sym_ignore              true
$end

--------------------------------------------------------------
 Writing REM_CC_EA            3
 ----------------------------------------------------
       Standard Nuclear Orientation (Angstroms)
    I     Atom         X            Y            Z
 ----------------------------------------------------
    1      N       0.017890     0.000000     0.014450
    2      H      -0.005660     0.000000     1.023030
    3      H       0.998980     0.000000    -0.220540
 ----------------------------------------------------
 Nuclear Repulsion Energy =     7.6745195424 hartrees
 There are        5 alpha and        5 beta electrons
 Requested basis set is G3large
 There are 22 shells and 62 basis functions

Total QAlloc Memory Limit   2000 MB
Mega-Array Size       743 MB
MEM_STATIC part       760 MB

                       Distance Matrix (Angstroms)
             N (  1)   H (  2)
   H (  2)  1.008855
   H (  3)  1.008840  1.598677
 
 A cutoff of  1.0D-08 yielded    253 shell pairs
 There are   2043 function pairs (  2475 Cartesian)
Evaluating contribution to one-electron hamiltonian from nuclear
 Smallest overlap matrix eigenvalue = 2.74E-03
 Multipole matrices computed through 2nd order

  Scale SEOQF with 1.000000e-01/1.000000e-01/1.000000e-01

 Standard Electronic Orientation quadrupole field applied
 Guess from superposition of atomic densities
 Warning:  Energy on first SCF cycle will be non-variational
 Long-range K will be added via erf
 Coulomb attenuation parameter = 2 bohr**(-1)
 A restricted Kohn-Sham SCF calculation will be
 performed using Pulay DIIS extrapolation
 Exchange:  wPBE + LR-HF      Correlation:  PBE
 Using SG-1 standard quadrature grid
 SCF converges when DIIS error is below 1.0E-05
 Requested basis set is G3large
 There are 22 shells and 62 basis functions
 A cutoff of  1.0D-08 yielded    253 shell pairs
 There are   2043 function pairs (  2475 Cartesian)
 Warning!  Inaccurate integrated density:
   Number of electrons =    10
   Numerical integral  =     8.999981801189
   Relative error      =   -10.0001819881 %
 ---------------------------------------
  Cycle       Energy         DIIS Error
 ---------------------------------------
    1     -55.6402123066      4.57E-02
    2     -55.7444717012      1.43E-02
    3     -55.8169787462      9.24E-03
    4     -55.8502924789      5.91E-04
    5     -55.8506018170      2.20E-04
    6     -55.8506725089      6.31E-05
    7     -55.8506825119      2.03E-05
    8     -55.8506837355      4.92E-06 Convergence criterion met
 ---------------------------------------
 One-Electron    Energy =   -93.7263804165
 Total Coulomb   Energy =    37.9838102526
 Alpha Exchange  Energy =    -2.4471136459
 Beta  Exchange  Energy =    -2.4471136459
 DFT   Exchange  Energy =    -2.5793303989
 DFT Correlation Energy =    -0.3090754233
 Nuclear Repu.   Energy =     7.6745195423
 Nuclear Attr.   Energy =  -149.3376734358
 Kinetic         Energy =    55.6112930193
 SCF time:  CPU 6.17 s  wall 7.06 s
 Final Alpha MO Eigenvalues
            1           2           3           4           5           6
    1 -14.5828943  -0.7861256  -0.3260689  -0.1607390  -0.0769516   0.2038042
            7           8           9          10
    1   0.2154173   0.3777346   0.4061964   0.4163257
 Analysis of SCF Wavefunction
 
 --------------------------------------------------------------
                    Orbital Energies (a.u.)
 --------------------------------------------------------------
 
 Alpha MOs
 -- Occupied --
-14.583  -0.786  -0.326  -0.161  -0.077
 -- Virtual --
  0.204   0.215   0.378   0.406   0.416   0.454   0.508   0.520
  0.907   0.969   1.072   1.081   1.083   1.147   1.172   1.288
  1.406   1.485   1.760   1.784   1.854   1.880   2.046   2.232
  2.325   3.039   3.114   3.885   3.979   4.011   4.061   4.225
  4.360   4.472   4.502   4.560   4.574   5.064   5.086   5.213
  5.361   5.656   5.676   5.763   5.803   6.091   6.554   7.178
 36.512  38.314  38.793  39.223  41.610  41.626  41.632  41.668
 41.719
 --------------------------------------------------------------
 
          Ground-State Mulliken Net Atomic Charges

     Atom                 Charge (a.u.)
  ----------------------------------------
      1 N                    -1.168317
      2 H                     0.084159
      3 H                     0.084158
  ----------------------------------------
  Sum of atomic charges =    -1.000000

 -----------------------------------------------------------------
                    Cartesian Multipole Moments
 -----------------------------------------------------------------
    Charge (ESU x 10^10)
                -4.8032
    Dipole Moment (Debye)
         X       1.0177      Y       0.0000      Z       0.8221
       Tot       1.3083
    Quadrupole Moments (Debye-Ang)
        XX      -9.9693     XY       0.0000     YY     -13.0965
        XZ      -0.9259     YZ       0.0000     ZZ      -9.5712
    Octapole Moments (Debye-Ang^2)
       XXX      -1.3792    XXY       0.0000    XYY      -0.7305
       YYY       0.0000    XXZ      -0.7943    XYZ       0.0000
       YYZ      -0.5902    XZZ      -0.7105    YZZ       0.0000
       ZZZ      -0.8939
    Hexadecapole Moments (Debye-Ang^3)
      XXXX     -18.9842   XXXY       0.0000   XXYY      -7.5262
      XYYY       0.0000   YYYY     -24.9052   XXXZ      -1.0553
      XXYZ       0.0000   XYYZ      -0.2218   YYYZ       0.0000
      XXZZ      -6.4670   XYZZ       0.0000   YYZZ      -7.4309
      XZZZ      -0.8682   YZZZ       0.0000   ZZZZ     -18.1575
 -----------------------------------------------------------------
 Total job time:  7.16s(wall), 6.24s(cpu) 
 Sun Jul  7 08:37:45 2013

        *************************************************************
        *                                                           *
        *  Thank you very much for using Q-Chem.  Have a nice day.  *
        *                                                           *
        *************************************************************


0 sent ACK to 0 
now end server 0 ... 
 
**********************************************************************
Job 2 of 3 
**********************************************************************
 
Process 0 of 1 is on cl052.stfx.acenet.ca - thread support 1
initial socket setup ...start
initial socket setup ...done 
now start server 0 ... 

cmd = /usr/bin/ssh clhead /usr/local/qchem/bin/get_hostid 1655597090 > /scratch/tmp/6063407.1.short.q/qchem19554/lic.dat
                  Welcome to Q-Chem
     A Quantum Leap Into The Future Of Chemistry

 Y. Shao, L. Fusti-Molnar, Y. Jung, J. Kussmann, C. Ochsenfeld,
 S. T. Brown, A. T. B. Gilbert, L. V. Slipchenko,S. V. Levchenko,
 D. P. O'Neill, R. A. DiStasio Jr., R. C. Lochan, T. Wang,
 G. J. O. Beran, N. A. Besley, J. M. Herbert, C. Y. Lin,
 T. Van Voorhis, S. H. Chien, A. Sodt, R. P. Steele, 
 V. A. Rassolov, P. E. Maslen, P. P. Korambath, R. D. Adamson,
 B. Austin, J. Baker, E. F. C. Byrd, H. Dachsel, R. J. Doerksen,
 A. Dreuw, B. D. Dunietz, A. D. Dutoi, T. R. Furlani,
 S. R. Gwaltney, A. Heyden, S. Hirata, C.-P. Hsu, G. Kedziora,
 R. Z. Khaliullin, P. Klunzinger, A. M. Lee, M. S. Lee, W. Liang,
 I. Lotan, N. Nair, B. Peters, E. I. Proynov, P. A. Pieniazek, 
 Y. M. Rhee, J. Ritchie, E. Rosta, C. D. Sherrill, 
 A. C. Simmonett, J. E. Subotnik, H. L. Woodcock III,
 W. Zhang, A. T. Bell, A. K. Chakraborty, D. M. Chipman,
 F. J. Keil, A. Warshel, W. J. Hehre, H. F. Schaefer III,
 J. Kong, A. I. Krylov, P. M. W. Gill, M. Head-Gordon,
 Q-Chem, Version 3.1, Q-Chem, Inc., Pittsburgh, PA (2007).

 Additional authors for Version 3.1: 
 Z. Gan, Y. Zhao, N. E. Schultz, D. Truhlar, E. Epifanovsky and M. Oana.

 Additional authors for Version 3.2: 
 R. Baer, B. R. Brooks, D. Casanova, J.-D. Chai, C.-L. Cheng, 
 C. Cramer, D. Crittenden, A. Ghysels, G. Hawkins, E. G. Hohenstein, 
 C. Kelley, W. Kurlancheek, D. Liotard, E. Livshits, P. Manohar, 
 A. Marenich, D. Neuhauser, R. Olson, M. A. Rohrdanz, K. S. Thanthiriwatte, 
 A. J. W. Thom, V. Vanovschi, C. F. Williams, Q. Wu and Z.-Q. You. 


 Intel X86 Linux Version

 Q-chem begins on Sun Jul  7 08:37:47 2013  

 Parallel job on  1  processors
Processing $rem in /usr/local/qchem/config/preferences.

theFileMan(): MAXOPENFILES=974 MAX_SUB_FILE_NUM=16
Maximum size of a physical file is 2.0 GB, maximum size of a tmp-file is 32.0 GB


--------------------------------------------------------------
User input:
--------------------------------------------------------------

$molecule
0,2
N          0.01789        0.00000        0.01445
H         -0.00566        0.00000        1.02303
H          0.99898        0.00000       -0.22054
$end

$comment
neutral
$end

$xc_functional
C PBE   1.00
X wPBE  1.00
$end


$rem
SYMMETRY_DECOMPOSITION	0
LRC_DFT                 true
exchange 		general
BASIS                   g3large
omega			2000
mem_static              760
max_scf_cycles          200
scf_final_print         1
sym_ignore              true
$end

--------------------------------------------------------------
 Writing REM_CC_EA            3
 ----------------------------------------------------
       Standard Nuclear Orientation (Angstroms)
    I     Atom         X            Y            Z
 ----------------------------------------------------
    1      N       0.017890     0.000000     0.014450
    2      H      -0.005660     0.000000     1.023030
    3      H       0.998980     0.000000    -0.220540
 ----------------------------------------------------
 Nuclear Repulsion Energy =     7.6745195424 hartrees
 There are        5 alpha and        4 beta electrons
 Requested basis set is G3large
 There are 22 shells and 62 basis functions

Total QAlloc Memory Limit   2000 MB
Mega-Array Size       743 MB
MEM_STATIC part       760 MB

                       Distance Matrix (Angstroms)
             N (  1)   H (  2)
   H (  2)  1.008855
   H (  3)  1.008840  1.598677
 
 A cutoff of  1.0D-08 yielded    253 shell pairs
 There are   2043 function pairs (  2475 Cartesian)
Evaluating contribution to one-electron hamiltonian from nuclear
 Smallest overlap matrix eigenvalue = 2.74E-03
 Multipole matrices computed through 2nd order

  Scale SEOQF with 1.000000e-01/1.000000e-01/1.000000e-01

 Standard Electronic Orientation quadrupole field applied
 Guess from superposition of atomic densities
 Warning:  Energy on first SCF cycle will be non-variational
 Long-range K will be added via erf
 Coulomb attenuation parameter = 2 bohr**(-1)
 An unrestricted Kohn-Sham SCF calculation will be
 performed using Pulay DIIS extrapolation
 Exchange:  wPBE + LR-HF      Correlation:  PBE
 Using SG-1 standard quadrature grid
 SCF converges when DIIS error is below 1.0E-05
 Requested basis set is G3large
 There are 22 shells and 62 basis functions
 A cutoff of  1.0D-08 yielded    253 shell pairs
 There are   2043 function pairs (  2475 Cartesian)
 ---------------------------------------
  Cycle       Energy         DIIS Error
 ---------------------------------------
    1     -55.6402123066      4.57E-02
    2     -55.8395665714      4.67E-03
    3     -55.8543653654      9.63E-04
    4     -55.8554094593      3.27E-04
    5     -55.8556510431      9.87E-05
    6     -55.8556924370      4.38E-05
    7     -55.8557068323      8.63E-06 Convergence criterion met
 ---------------------------------------
 One-Electron    Energy =   -90.4873290598
 Total Coulomb   Energy =    34.5454969041
 Alpha Exchange  Energy =    -2.5999963263
 Beta  Exchange  Energy =    -2.1258695435
 DFT   Exchange  Energy =    -2.5884927484
 DFT Correlation Energy =    -0.2740356007
 Nuclear Repu.   Energy =     7.6745195423
 Nuclear Attr.   Energy =  -146.1269325347
 Kinetic         Energy =    55.6396034749
 <S^2> = 0.7564
 SCF time:  CPU 6.13 s  wall 6.91 s
 Final Alpha MO Eigenvalues
            1           2           3           4           5           6
    1 -14.9659572  -1.1965926  -0.6893665  -0.5425554  -0.5364869   0.0411917
            7           8           9          10
    1   0.0693257   0.1745136   0.1756440   0.2209118
 Final Beta MO Eigenvalues
            1           2           3           4           5           6
    1 -14.9433356  -1.0894915  -0.6695137  -0.4994165   0.0430555   0.0507763
            7           8           9
    1   0.0698976   0.1782876   0.2204302
 Analysis of SCF Wavefunction
 
 --------------------------------------------------------------
                    Orbital Energies (a.u.)
 --------------------------------------------------------------
 
 Alpha MOs
 -- Occupied --
-14.966  -1.197  -0.689  -0.543  -0.536
 -- Virtual --
  0.041   0.069   0.175   0.176   0.221   0.232   0.271   0.283
  0.622   0.677   0.766   0.770   0.790   0.852   0.861   0.923
  1.120   1.153   1.422   1.472   1.501   1.524   1.717   1.891
  2.008   2.712   2.776   3.523   3.609   3.674   3.699   3.837
  4.016   4.034   4.118   4.176   4.199   4.690   4.736   4.844
  5.015   5.240   5.259   5.366   5.440   5.735   6.189   6.823
 36.128  37.918  38.423  38.851  41.207  41.231  41.235  41.297
 41.349
 
 Beta MOs
 -- Occupied --
-14.943  -1.089  -0.670  -0.499
 -- Virtual --
  0.043   0.051   0.070   0.178   0.220   0.241   0.242   0.280
  0.288   0.624   0.681   0.786   0.796   0.811   0.871   0.888
  1.036   1.119   1.182   1.460   1.479   1.543   1.569   1.728
  1.916   2.015   2.713   2.783   3.542   3.637   3.675   3.716
  3.868   4.024   4.131   4.146   4.212   4.224   4.713   4.744
  4.859   5.020   5.310   5.329   5.419   5.454   5.746   6.210
  6.832  36.149  37.948  38.431  38.859  41.249  41.265  41.269
 41.307  41.357
 --------------------------------------------------------------
 
          Ground-State Mulliken Net Atomic Charges

     Atom                 Charge (a.u.)    Spin (a.u.)
  --------------------------------------------------------
      1 N                    -0.270444       1.077715
      2 H                     0.135227      -0.038858
      3 H                     0.135217      -0.038856
  --------------------------------------------------------
  Sum of atomic charges =     0.000000
  Sum of spin   charges =     1.000000

 -----------------------------------------------------------------
                    Cartesian Multipole Moments
 -----------------------------------------------------------------
    Charge (ESU x 10^10)
                 0.0000
    Dipole Moment (Debye)
         X       1.5403      Y       0.0000      Z       1.2444
       Tot       1.9801
    Quadrupole Moments (Debye-Ang)
        XX      -6.2000     XY       0.0000     YY      -6.9646
        XZ      -0.7869     YZ       0.0000     ZZ      -5.8617
    Octapole Moments (Debye-Ang^2)
       XXX      -0.0442    XXY       0.0000    XYY      -0.4943
       YYY       0.0000    XXZ      -0.8706    XYZ       0.0000
       YYZ      -0.3993    XZZ      -0.5239    YZZ       0.0000
       ZZZ       0.4117
    Hexadecapole Moments (Debye-Ang^3)
      XXXX      -8.4883   XXXY       0.0000   XXYY      -2.7637
      XYYY       0.0000   YYYY      -6.0742   XXXZ      -0.6412
      XXYZ       0.0000   XYYZ      -0.0325   YYYZ       0.0000
      XXZZ      -3.3737   XYZZ       0.0000   YYZZ      -2.7497
      XZZZ      -0.2310   YZZZ       0.0000   ZZZZ      -8.1134
 -----------------------------------------------------------------
 Total job time:  6.99s(wall), 6.21s(cpu) 
 Sun Jul  7 08:37:54 2013

        *************************************************************
        *                                                           *
        *  Thank you very much for using Q-Chem.  Have a nice day.  *
        *                                                           *
        *************************************************************


0 sent ACK to 0 
now end server 0 ... 
 
**********************************************************************
Job 3 of 3 
**********************************************************************
 
Process 0 of 1 is on cl052.stfx.acenet.ca - thread support 1
initial socket setup ...start
initial socket setup ...done 
now start server 0 ... 

cmd = /usr/bin/ssh clhead /usr/local/qchem/bin/get_hostid 1826373290 > /scratch/tmp/6063407.1.short.q/qchem19554/lic.dat
                  Welcome to Q-Chem
     A Quantum Leap Into The Future Of Chemistry

 Y. Shao, L. Fusti-Molnar, Y. Jung, J. Kussmann, C. Ochsenfeld,
 S. T. Brown, A. T. B. Gilbert, L. V. Slipchenko,S. V. Levchenko,
 D. P. O'Neill, R. A. DiStasio Jr., R. C. Lochan, T. Wang,
 G. J. O. Beran, N. A. Besley, J. M. Herbert, C. Y. Lin,
 T. Van Voorhis, S. H. Chien, A. Sodt, R. P. Steele, 
 V. A. Rassolov, P. E. Maslen, P. P. Korambath, R. D. Adamson,
 B. Austin, J. Baker, E. F. C. Byrd, H. Dachsel, R. J. Doerksen,
 A. Dreuw, B. D. Dunietz, A. D. Dutoi, T. R. Furlani,
 S. R. Gwaltney, A. Heyden, S. Hirata, C.-P. Hsu, G. Kedziora,
 R. Z. Khaliullin, P. Klunzinger, A. M. Lee, M. S. Lee, W. Liang,
 I. Lotan, N. Nair, B. Peters, E. I. Proynov, P. A. Pieniazek, 
 Y. M. Rhee, J. Ritchie, E. Rosta, C. D. Sherrill, 
 A. C. Simmonett, J. E. Subotnik, H. L. Woodcock III,
 W. Zhang, A. T. Bell, A. K. Chakraborty, D. M. Chipman,
 F. J. Keil, A. Warshel, W. J. Hehre, H. F. Schaefer III,
 J. Kong, A. I. Krylov, P. M. W. Gill, M. Head-Gordon,
 Q-Chem, Version 3.1, Q-Chem, Inc., Pittsburgh, PA (2007).

 Additional authors for Version 3.1: 
 Z. Gan, Y. Zhao, N. E. Schultz, D. Truhlar, E. Epifanovsky and M. Oana.

 Additional authors for Version 3.2: 
 R. Baer, B. R. Brooks, D. Casanova, J.-D. Chai, C.-L. Cheng, 
 C. Cramer, D. Crittenden, A. Ghysels, G. Hawkins, E. G. Hohenstein, 
 C. Kelley, W. Kurlancheek, D. Liotard, E. Livshits, P. Manohar, 
 A. Marenich, D. Neuhauser, R. Olson, M. A. Rohrdanz, K. S. Thanthiriwatte, 
 A. J. W. Thom, V. Vanovschi, C. F. Williams, Q. Wu and Z.-Q. You. 


 Intel X86 Linux Version

 Q-chem begins on Sun Jul  7 08:37:57 2013  

 Parallel job on  1  processors
Processing $rem in /usr/local/qchem/config/preferences.

theFileMan(): MAXOPENFILES=974 MAX_SUB_FILE_NUM=16
Maximum size of a physical file is 2.0 GB, maximum size of a tmp-file is 32.0 GB


--------------------------------------------------------------
User input:
--------------------------------------------------------------

$molecule
1,1
N          0.01789        0.00000        0.01445
H         -0.00566        0.00000        1.02303
H          0.99898        0.00000       -0.22054
$end

$comment
positive
$end

$xc_functional
C PBE   1.00
X wPBE  1.00
$end

$rem
SYMMETRY_DECOMPOSITION	0
LRC_DFT                 true
exchange 		general
BASIS                   g3large
omega			2000
mem_static              760
max_scf_cycles          200
scf_final_print         1
sym_ignore              true
$end

--------------------------------------------------------------
 Writing REM_CC_EA            3
 ----------------------------------------------------
       Standard Nuclear Orientation (Angstroms)
    I     Atom         X            Y            Z
 ----------------------------------------------------
    1      N       0.017890     0.000000     0.014450
    2      H      -0.005660     0.000000     1.023030
    3      H       0.998980     0.000000    -0.220540
 ----------------------------------------------------
 Nuclear Repulsion Energy =     7.6745195424 hartrees
 There are        4 alpha and        4 beta electrons
 Requested basis set is G3large
 There are 22 shells and 62 basis functions

Total QAlloc Memory Limit   2000 MB
Mega-Array Size       743 MB
MEM_STATIC part       760 MB

                       Distance Matrix (Angstroms)
             N (  1)   H (  2)
   H (  2)  1.008855
   H (  3)  1.008840  1.598677
 
 A cutoff of  1.0D-08 yielded    253 shell pairs
 There are   2043 function pairs (  2475 Cartesian)
Evaluating contribution to one-electron hamiltonian from nuclear
 Smallest overlap matrix eigenvalue = 2.74E-03
 Multipole matrices computed through 2nd order

  Scale SEOQF with 1.000000e-01/1.000000e-01/1.000000e-01

 Standard Electronic Orientation quadrupole field applied
 Guess from superposition of atomic densities
 Warning:  Energy on first SCF cycle will be non-variational
 Long-range K will be added via erf
 Coulomb attenuation parameter = 2 bohr**(-1)
 A restricted Kohn-Sham SCF calculation will be
 performed using Pulay DIIS extrapolation
 Exchange:  wPBE + LR-HF      Correlation:  PBE
 Using SG-1 standard quadrature grid
 SCF converges when DIIS error is below 1.0E-05
 Requested basis set is G3large
 There are 22 shells and 62 basis functions
 A cutoff of  1.0D-08 yielded    253 shell pairs
 There are   2043 function pairs (  2475 Cartesian)
 Warning!  Inaccurate integrated density:
   Number of electrons =     8
   Numerical integral  =     8.999981801189
   Relative error      =    12.4997725149 %
 ---------------------------------------
  Cycle       Energy         DIIS Error
 ---------------------------------------
    1     -55.6402123066      4.57E-02
    2     -55.3065801899      1.19E-02
    3     -55.3813794170      3.82E-03
    4     -55.3858021075      4.72E-04
    5     -55.3859521846      9.16E-05
    6     -55.3859611171      2.38E-05
    7     -55.3859618258      4.49E-06 Convergence criterion met
 ---------------------------------------
 One-Electron    Energy =   -86.3352224262
 Total Coulomb   Energy =    30.5018253009
 Alpha Exchange  Energy =    -2.2082573634
 Beta  Exchange  Energy =    -2.2082573634
 DFT   Exchange  Energy =    -2.5703583447
 DFT Correlation Energy =    -0.2402111713
 Nuclear Repu.   Energy =     7.6745195423
 Nuclear Attr.   Energy =  -141.6254141728
 Kinetic         Energy =    55.2901917466
 SCF time:  CPU 5.66 s  wall 7.59 s
 Final Alpha MO Eigenvalues
            1           2           3           4           5           6
    1 -15.4890788  -1.5913064  -1.1285816  -0.9746100  -0.4070982  -0.1620501
            7           8           9
    1  -0.1050462  -0.0397045  -0.0354541
 Analysis of SCF Wavefunction
 
 --------------------------------------------------------------
                    Orbital Energies (a.u.)
 --------------------------------------------------------------
 
 Alpha MOs
 -- Occupied --
-15.489  -1.591  -1.129  -0.975
 -- Virtual --
 -0.407  -0.162  -0.105  -0.040  -0.035  -0.012   0.004   0.024
  0.042   0.314   0.352   0.432   0.441   0.481   0.519   0.548
  0.616   0.796   0.798   1.068   1.119   1.137   1.158   1.342
  1.516   1.640   2.324   2.380   3.102   3.184   3.263   3.270
  3.390   3.582   3.597   3.668   3.718   3.776   4.257   4.309
  4.411   4.593   4.776   4.795   4.913   4.985   5.287   5.750
  6.380  35.606  37.382  37.904  38.331  40.678  40.703  40.707
 40.781  40.833
 --------------------------------------------------------------
 
          Ground-State Mulliken Net Atomic Charges

     Atom                 Charge (a.u.)
  ----------------------------------------
      1 N                     0.508656
      2 H                     0.245679
      3 H                     0.245665
  ----------------------------------------
  Sum of atomic charges =     1.000000

 -----------------------------------------------------------------
                    Cartesian Multipole Moments
 -----------------------------------------------------------------
    Charge (ESU x 10^10)
                 4.8032
    Dipole Moment (Debye)
         X       2.1779      Y       0.0000      Z       1.7595
       Tot       2.7999
    Quadrupole Moments (Debye-Ang)
        XX      -3.7170     XY       0.0000     YY      -4.0838
        XZ      -0.7761     YZ       0.0000     ZZ      -3.3832
    Octapole Moments (Debye-Ang^2)
       XXX       1.2102    XXY       0.0000    XYY      -0.3163
       YYY       0.0000    XXZ      -0.9438    XYZ       0.0000
       YYZ      -0.2555    XZZ      -0.3494    YZZ       0.0000
       ZZZ       1.6394
    Hexadecapole Moments (Debye-Ang^3)
      XXXX      -3.6510   XXXY       0.0000   XXYY      -1.4658
      XYYY       0.0000   YYYY      -2.2917   XXXZ      -0.6530
      XXYZ       0.0000   XYYZ       0.0171   YYYZ       0.0000
      XXZZ      -2.0449   XYZZ       0.0000   YYZZ      -1.4732
      XZZZ      -0.0587   YZZZ       0.0000   ZZZZ      -3.3449
 -----------------------------------------------------------------
 Total job time:  7.67s(wall), 5.73s(cpu) 
 Sun Jul  7 08:38:05 2013

        *************************************************************
        *                                                           *
        *  Thank you very much for using Q-Chem.  Have a nice day.  *
        *                                                           *
        *************************************************************


0 sent ACK to 0 
now end server 0 ... 
