Process 0 of 1 is on cl076.stfx.acenet.ca - thread support 1
initial socket setup ...start
initial socket setup ...done 
now start server 0 ... 

cmd = /usr/bin/ssh clhead /usr/local/qchem/bin/get_hostid 355712784 > /scratch/tmp/6067124.1.short.q/qchem28952/lic.dat
                  Welcome to Q-Chem
     A Quantum Leap Into The Future Of Chemistry

 Y. Shao, L. Fusti-Molnar, Y. Jung, J. Kussmann, C. Ochsenfeld,
 S. T. Brown, A. T. B. Gilbert, L. V. Slipchenko,S. V. Levchenko,
 D. P. O'Neill, R. A. DiStasio Jr., R. C. Lochan, T. Wang,
 G. J. O. Beran, N. A. Besley, J. M. Herbert, C. Y. Lin,
 T. Van Voorhis, S. H. Chien, A. Sodt, R. P. Steele, 
 V. A. Rassolov, P. E. Maslen, P. P. Korambath, R. D. Adamson,
 B. Austin, J. Baker, E. F. C. Byrd, H. Dachsel, R. J. Doerksen,
 A. Dreuw, B. D. Dunietz, A. D. Dutoi, T. R. Furlani,
 S. R. Gwaltney, A. Heyden, S. Hirata, C.-P. Hsu, G. Kedziora,
 R. Z. Khaliullin, P. Klunzinger, A. M. Lee, M. S. Lee, W. Liang,
 I. Lotan, N. Nair, B. Peters, E. I. Proynov, P. A. Pieniazek, 
 Y. M. Rhee, J. Ritchie, E. Rosta, C. D. Sherrill, 
 A. C. Simmonett, J. E. Subotnik, H. L. Woodcock III,
 W. Zhang, A. T. Bell, A. K. Chakraborty, D. M. Chipman,
 F. J. Keil, A. Warshel, W. J. Hehre, H. F. Schaefer III,
 J. Kong, A. I. Krylov, P. M. W. Gill, M. Head-Gordon,
 Q-Chem, Version 3.1, Q-Chem, Inc., Pittsburgh, PA (2007).

 Additional authors for Version 3.1: 
 Z. Gan, Y. Zhao, N. E. Schultz, D. Truhlar, E. Epifanovsky and M. Oana.

 Additional authors for Version 3.2: 
 R. Baer, B. R. Brooks, D. Casanova, J.-D. Chai, C.-L. Cheng, 
 C. Cramer, D. Crittenden, A. Ghysels, G. Hawkins, E. G. Hohenstein, 
 C. Kelley, W. Kurlancheek, D. Liotard, E. Livshits, P. Manohar, 
 A. Marenich, D. Neuhauser, R. Olson, M. A. Rohrdanz, K. S. Thanthiriwatte, 
 A. J. W. Thom, V. Vanovschi, C. F. Williams, Q. Wu and Z.-Q. You. 


 Intel X86 Linux Version

 Q-chem begins on Wed Jul 24 16:01:22 2013  

 Parallel job on  1  processors
Processing $rem in /usr/local/qchem/config/preferences.

theFileMan(): MAXOPENFILES=974 MAX_SUB_FILE_NUM=16
Maximum size of a physical file is 2.0 GB, maximum size of a tmp-file is 32.0 GB


--------------------------------------------------------------
User input:
--------------------------------------------------------------

$molecule
0,1
C
N,1,AB
H,1,AH3,2,H3AB
X,2,1.,1,ABH78,3,0.,0
H,2,BH7,4,H7BH8,1,90.,0
H,2,BH7,4,H7BH8,1,-90.,0
X,1,1.,2,BAH12,3,180.,0
H,1,AH1,7,H1AH2,2,90.,0
H,1,AH1,7,H1AH2,2,-90.,0

AB=1.46535367
AH1=1.09550333
AH3=1.10449986
BH7=1.01861268
BAH12=123.38826416
H3AB=115.7748966
ABH78=123.77663792
H1AH2=53.6000727
H7BH8=52.89335705

$end


$comment
b3lyp opt
$end

$rem
   EXCHANGE B3LYP
   UNRESTRICTED TRUE
   SYMMETRY_DECOMPOSITION	0
   BASIS                   g3large
   JOBTYPE                 opt
   mem_static              760
   max_scf_cycles          200
   scf_final_print         1
   sym_ignore              true
$end


--------------------------------------------------------------
 Writing REM_CC_EA            7
 ----------------------------------------------------
       Standard Nuclear Orientation (Angstroms)
    I     Atom         X            Y            Z
 ----------------------------------------------------
    1      C       0.000000     0.000000     0.000000
    2      N       0.000000     0.000000     1.465354
    3      H       0.994612     0.000000    -0.480277
    4      H       0.510804    -0.812358     1.807005
    5      H       0.510804     0.812358     1.807005
    6      H      -0.542801    -0.881765    -0.357752
    7      H      -0.542801     0.881765    -0.357752
 ----------------------------------------------------
 Nuclear Repulsion Energy =    41.8920620948 hartrees
 There are        9 alpha and        9 beta electrons
 Requested basis set is G3large
 There are 50 shells and 134 basis functions

Total QAlloc Memory Limit   2000 MB
Mega-Array Size       743 MB
MEM_STATIC part       760 MB
 A cutoff of  1.0D-11 yielded   1271 shell pairs
 There are   9167 function pairs ( 10914 Cartesian)
Evaluating contribution to one-electron hamiltonian from nuclear
 Smallest overlap matrix eigenvalue = 4.93E-04
 Multipole matrices computed through 2nd order

  Scale SEOQF with 1.000000e-01/1.000000e-01/1.000000e-01

 Standard Electronic Orientation quadrupole field applied
 Nucleus-field energy     =    -0.0000000021 hartrees
 Guess from superposition of atomic densities
 Warning:  Energy on first SCF cycle will be non-variational
 An unrestricted hybrid HF-DFT SCF calculation will be
 performed using Pulay DIIS extrapolation
 Exchange:     0.2000 Hartree-Fock + 0.0800 Slater + 0.7200 Becke88
 Correlation:  0.8100 LYP + 0.1900 VWN1RPA
 Using SG-1 standard quadrature grid
 SCF converges when DIIS error is below 1.0E-08
 ---------------------------------------
  Cycle       Energy         DIIS Error
 ---------------------------------------
    1     -96.0219203477      3.72E-02
    2     -95.8158661609      6.26E-03
    3     -95.7505812730      8.47E-03
    4     -95.8990636715      7.54E-04
    5     -95.8999405552      3.22E-04
    6     -95.9001370405      5.45E-05
    7     -95.9001425824      4.52E-06
    8     -95.9001425932      1.14E-06
    9     -95.9001425942      1.87E-07
   10     -95.9001425954      2.79E-08
   11     -95.9001425949      7.28E-09 Convergence criterion met
 ---------------------------------------
 One-Electron    Energy =  -211.3500323088
 Total Coulomb   Energy =    87.7751004764
 Alpha Exchange  Energy =    -1.3553740751
 Beta  Exchange  Energy =    -1.3553740751
 DFT   Exchange  Energy =   -10.7619478907
 DFT Correlation Energy =    -0.7445768142
 Nuclear Repu.   Energy =    41.8920620927
 Nuclear Attr.   Energy =  -306.7959532705
 Kinetic         Energy =    95.4459209616
 <S^2> = 0.0000
 SCF time:  CPU 42.62 s  wall 44.12 s
 Final Alpha MO Eigenvalues
            1           2           3           4           5           6
    1 -14.2952605 -10.1860058  -0.8787051  -0.6614732  -0.4923925  -0.4440541
            7           8           9          10          11          12
    1  -0.4045974  -0.3707384  -0.2476793  -0.0117416   0.0123026   0.0244847
           13          14
    1   0.0341446   0.0579900
 Final Beta MO Eigenvalues
            1           2           3           4           5           6
    1 -14.2952605 -10.1860058  -0.8787051  -0.6614732  -0.4923925  -0.4440541
            7           8           9          10          11          12
    1  -0.4045974  -0.3707384  -0.2476793  -0.0117416   0.0123026   0.0244847
           13          14
    1   0.0341446   0.0579900
 Analysis of SCF Wavefunction
 
 --------------------------------------------------------------
                    Orbital Energies (a.u.)
 --------------------------------------------------------------
 
 Alpha MOs
 -- Occupied --
-14.295 -10.186  -0.879  -0.661  -0.492  -0.444  -0.405  -0.371
 -0.248
 -- Virtual --
 -0.012   0.012   0.024   0.034   0.058   0.071   0.098   0.098
  0.119   0.135   0.156   0.166   0.181   0.183   0.195   0.206
  0.244   0.259   0.293   0.429   0.432   0.487   0.502   0.544
  0.565   0.578   0.584   0.603   0.630   0.640   0.669   0.735
  0.764   0.844   0.854   0.906   0.913   1.004   1.076   1.079
  1.132   1.166   1.190   1.223   1.264   1.277   1.318   1.381
  1.426   1.440   1.485   1.510   1.619   1.645   1.713   1.873
  1.876   2.349   2.378   2.474   2.654   2.702   2.926   3.001
  3.010   3.033   3.099   3.135   3.215   3.234   3.274   3.323
  3.355   3.430   3.458   3.655   3.664   3.686   3.760   3.768
  3.850   3.880   3.887   4.019   4.117   4.118   4.224   4.241
  4.292   4.325   4.444   4.611   4.656   4.764   4.765   4.850
  4.870   5.140   5.201   5.280   5.325   5.524   5.590   5.674
  5.765   6.083   6.418  24.307  28.069  28.096  28.118  35.691
 37.641  38.232  38.294  40.592  40.671  40.704  40.731  40.806
 40.977  41.080  41.186  41.228  41.271
 
 Beta MOs
 -- Occupied --
-14.295 -10.186  -0.879  -0.661  -0.492  -0.444  -0.405  -0.371
 -0.248
 -- Virtual --
 -0.012   0.012   0.024   0.034   0.058   0.071   0.098   0.098
  0.119   0.135   0.156   0.166   0.181   0.183   0.195   0.206
  0.244   0.259   0.293   0.429   0.432   0.487   0.502   0.544
  0.565   0.578   0.584   0.603   0.630   0.640   0.669   0.735
  0.764   0.844   0.854   0.906   0.913   1.004   1.076   1.079
  1.132   1.166   1.190   1.223   1.264   1.277   1.318   1.381
  1.426   1.440   1.485   1.510   1.619   1.645   1.713   1.873
  1.876   2.349   2.378   2.474   2.654   2.702   2.926   3.001
  3.010   3.033   3.099   3.135   3.215   3.234   3.274   3.323
  3.355   3.430   3.458   3.655   3.664   3.686   3.760   3.768
  3.850   3.880   3.887   4.019   4.117   4.118   4.224   4.241
  4.292   4.325   4.444   4.611   4.656   4.764   4.765   4.850
  4.870   5.140   5.201   5.280   5.325   5.524   5.590   5.674
  5.765   6.083   6.418  24.307  28.069  28.096  28.118  35.691
 37.641  38.232  38.294  40.592  40.671  40.704  40.731  40.806
 40.977  41.080  41.186  41.228  41.271
 --------------------------------------------------------------
 
          Ground-State Mulliken Net Atomic Charges

     Atom                 Charge (a.u.)    Spin (a.u.)
  --------------------------------------------------------
      1 C                    -0.310513       0.000000
      2 N                    -0.347003       0.000000
      3 H                     0.091082       0.000000
      4 H                     0.171680       0.000000
      5 H                     0.171680       0.000000
      6 H                     0.111537       0.000000
      7 H                     0.111537       0.000000
  --------------------------------------------------------
  Sum of atomic charges =     0.000000
  Sum of spin   charges =     0.000000

 -----------------------------------------------------------------
                    Cartesian Multipole Moments
 -----------------------------------------------------------------
    Charge (ESU x 10^10)
                 0.0000
    Dipole Moment (Debye)
         X       1.3340      Y       0.0000      Z      -0.4274
       Tot       1.4008
    Quadrupole Moments (Debye-Ang)
        XX     -15.1361     XY       0.0000     YY     -12.8289
        XZ       3.1457     YZ       0.0000     ZZ     -15.3408
    Octapole Moments (Debye-Ang^2)
       XXX      -0.8066    XXY       0.0000    XYY      -0.0887
       YYY       0.0000    XXZ     -10.9779    XYZ       0.0000
       YYZ      -7.1676    XZZ       5.6121    YZZ       0.0000
       ZZZ     -30.0355
    Hexadecapole Moments (Debye-Ang^3)
      XXXX     -27.3386   XXXY       0.0000   XXYY      -8.2879
      XYYY       0.0000   YYYY     -24.8096   XXXZ      -1.4320
      XXYZ       0.0000   XYYZ       1.5034   YYYZ       0.0000
      XXZZ     -26.1899   XYZZ       0.0000   YYZZ     -19.3985
      XZZZ       9.9192   YZZZ       0.0000   ZZZZ    -120.2286
 -----------------------------------------------------------------
 Calculating analytic gradient of the SCF energy
 Gradient of XC Energy
            1           2           3           4           5           6
    1   0.0253883  -0.2428643   0.1613079   0.1186289   0.1186289  -0.0905449
    2   0.0000000   0.0000000  -0.0000000  -0.1895435   0.1895435  -0.1491277
    3   0.0525798  -0.0151442  -0.0795956   0.0827135   0.0827135  -0.0616335
            7
    1  -0.0905449
    2   0.1491277
    3  -0.0616335
 Gradient of SCF Energy
            1           2           3           4           5           6
    1   0.0022807  -0.0091039   0.0035556   0.0032748   0.0032748  -0.0016409
    2  -0.0000000   0.0000000  -0.0000000  -0.0032367   0.0032367  -0.0028997
    3   0.0052173  -0.0008630  -0.0029411   0.0001493   0.0001493  -0.0008558
            7
    1  -0.0016409
    2   0.0028997
    3  -0.0008558
 Max gradient component =       9.104E-03
 RMS gradient           =       3.113E-03
 Gradient time:  CPU 13.01 s  wall 13.08 s
 Geometry Optimization Parameters
   NAtoms,    NIC,     NZ,  NCons,   NDum,   NFix, NCnnct, MaxDiis
        7      35       9       0       0       0       0       0


** GEOMETRY OPTIMIZATION IN DELOCALIZED INTERNAL COORDINATES **
   Searching for a Minimum

   Optimization Cycle:   1

                       Coordinates (Angstroms)
     ATOM              X           Y           Z
    1  C           0.000000    0.000000    0.000000
    2  N           0.000000    0.000000    1.465354
    3  H           0.994612    0.000000   -0.480277
    4  H           0.510804   -0.812358    1.807005
    5  H           0.510804    0.812358    1.807005
    6  H          -0.542801   -0.881765   -0.357752
    7  H          -0.542801    0.881765   -0.357752
   Point Group: c1    Number of degrees of freedom:  15


   Energy is    -95.900142595


 Attempting to Generate Delocalized Internal Coordinates

 13 Hessian modes will be used to form the next step
  Hessian Eigenvalues:
     0.044021    0.075352    0.160000    0.160000    0.160000    0.160000
     0.160000    0.331894    0.341843    0.341843    0.363021    0.445601
     0.445601

 Minimum Search - Taking Simple RFO Step
 Searching for Lamda that Minimizes Along All modes
 Value Taken    Lamda =  -0.00043733
 Step Taken.  Stepsize is  0.064123

                             Maximum     Tolerance    Cnvgd?
         Gradient           0.006112      0.000300      NO
         Displacement       0.044870      0.001200      NO
         Energy change     *********      0.000001      NO


 New Cartesian Coordinates Obtained by Inverse Iteration

 Displacement from previous Coordinates is:  0.044348
 Writing REM_CC_EA            7
 ----------------------------------------------------
       Standard Nuclear Orientation (Angstroms)
    I     Atom         X            Y            Z
 ----------------------------------------------------
    1      C      -0.001411     0.000000    -0.005589
    2      N       0.014639     0.000000     1.460518
    3      H       0.987617     0.000000    -0.481063
    4      H       0.507141    -0.811555     1.815570
    5      H       0.507141     0.811555     1.815570
    6      H      -0.542254    -0.877445    -0.360711
    7      H      -0.542254     0.877445    -0.360711
 ----------------------------------------------------
 Nuclear Repulsion Energy =    41.9605576230 hartrees
 There are        9 alpha and        9 beta electrons
 Applying Cartesian multipole field
    Component          Value
    ---------          -----
     (2,0,0)        1.00000E-11
     (0,2,0)        2.00000E-11
     (0,0,2)       -3.00000E-11
 Nucleus-field energy     =    -0.0000000021 hartrees
 Requested basis set is G3large
 There are 50 shells and 134 basis functions
 A cutoff of  1.0D-11 yielded   1271 shell pairs
 There are   9167 function pairs ( 10914 Cartesian)
Evaluating contribution to one-electron hamiltonian from nuclear
 Smallest overlap matrix eigenvalue = 4.98E-04
 Multipole matrices computed through 2nd order
 Guess MOs from SCF MO coefficient file
Reading MOs from coefficient file
Reading MOs from coefficient file
 An unrestricted hybrid HF-DFT SCF calculation will be
 performed using Pulay DIIS extrapolation
 Exchange:     0.2000 Hartree-Fock + 0.0800 Slater + 0.7200 Becke88
 Correlation:  0.8100 LYP + 0.1900 VWN1RPA
 Using SG-1 standard quadrature grid
 SCF converges when DIIS error is below 1.0E-08
 ---------------------------------------
  Cycle       Energy         DIIS Error
 ---------------------------------------
    1     -95.9073628421      4.20E-04
    2     -95.9003799261      6.06E-05
    3     -95.9003823363      5.33E-05
    4     -95.9003882397      1.09E-05
    5     -95.9003884686      1.87E-06
    6     -95.9003884793      5.72E-07
    7     -95.9003884889      2.90E-07
    8     -95.9003884861      2.90E-08
    9     -95.9003884860      3.57E-09 Convergence criterion met
 ---------------------------------------
 One-Electron    Energy =  -211.4826617541
 Total Coulomb   Energy =    87.8483826423
 Alpha Exchange  Energy =    -1.3563701731
 Beta  Exchange  Energy =    -1.3563701731
 DFT   Exchange  Energy =   -10.7689452505
 DFT Correlation Energy =    -0.7449813984
 Nuclear Repu.   Energy =    41.9605576209
 Nuclear Attr.   Energy =  -306.9567171699
 Kinetic         Energy =    95.4740554157
 <S^2> = 0.0000
 SCF time:  CPU 34.95 s  wall 35.51 s
 Final Alpha MO Eigenvalues
            1           2           3           4           5           6
    1 -14.2931523 -10.1844558  -0.8776704  -0.6637201  -0.4932264  -0.4439095
            7           8           9          10          11          12
    1  -0.4072084  -0.3725418  -0.2448592  -0.0112038   0.0124122   0.0247722
           13          14
    1   0.0344522   0.0583162
 Final Beta MO Eigenvalues
            1           2           3           4           5           6
    1 -14.2931523 -10.1844558  -0.8776704  -0.6637201  -0.4932264  -0.4439095
            7           8           9          10          11          12
    1  -0.4072084  -0.3725418  -0.2448592  -0.0112038   0.0124122   0.0247722
           13          14
    1   0.0344522   0.0583162
 Analysis of SCF Wavefunction
 
 --------------------------------------------------------------
                    Orbital Energies (a.u.)
 --------------------------------------------------------------
 
 Alpha MOs
 -- Occupied --
-14.293 -10.184  -0.878  -0.664  -0.493  -0.444  -0.407  -0.373
 -0.245
 -- Virtual --
 -0.011   0.012   0.025   0.034   0.058   0.071   0.098   0.098
  0.120   0.136   0.156   0.167   0.183   0.184   0.196   0.207
  0.243   0.258   0.294   0.429   0.433   0.490   0.503   0.545
  0.566   0.579   0.590   0.601   0.633   0.645   0.667   0.734
  0.765   0.845   0.856   0.909   0.919   1.007   1.077   1.080
  1.126   1.166   1.185   1.225   1.267   1.279   1.319   1.388
  1.430   1.442   1.480   1.515   1.624   1.647   1.721   1.873
  1.873   2.341   2.373   2.465   2.644   2.710   2.928   2.998
  3.012   3.030   3.100   3.132   3.219   3.242   3.273   3.334
  3.360   3.435   3.456   3.656   3.673   3.691   3.773   3.779
  3.864   3.879   3.898   4.033   4.117   4.123   4.229   4.247
  4.290   4.335   4.447   4.622   4.646   4.761   4.774   4.868
  4.877   5.144   5.201   5.278   5.340   5.523   5.617   5.693
  5.766   6.098   6.443  24.330  28.070  28.105  28.125  35.706
 37.629  38.242  38.311  40.596  40.675  40.706  40.734  40.813
 40.982  41.082  41.188  41.233  41.277
 
 Beta MOs
 -- Occupied --
-14.293 -10.184  -0.878  -0.664  -0.493  -0.444  -0.407  -0.373
 -0.245
 -- Virtual --
 -0.011   0.012   0.025   0.034   0.058   0.071   0.098   0.098
  0.120   0.136   0.156   0.167   0.183   0.184   0.196   0.207
  0.243   0.258   0.294   0.429   0.433   0.490   0.503   0.545
  0.566   0.579   0.590   0.601   0.633   0.645   0.667   0.734
  0.765   0.845   0.856   0.909   0.919   1.007   1.077   1.080
  1.126   1.166   1.185   1.225   1.267   1.279   1.319   1.388
  1.430   1.442   1.480   1.515   1.624   1.647   1.721   1.873
  1.873   2.341   2.373   2.465   2.644   2.710   2.928   2.998
  3.012   3.030   3.100   3.132   3.219   3.242   3.273   3.334
  3.360   3.435   3.456   3.656   3.673   3.691   3.773   3.779
  3.864   3.879   3.898   4.033   4.117   4.123   4.229   4.247
  4.290   4.335   4.447   4.622   4.646   4.761   4.774   4.868
  4.877   5.144   5.201   5.278   5.340   5.523   5.617   5.693
  5.766   6.098   6.443  24.330  28.070  28.105  28.125  35.706
 37.629  38.242  38.311  40.596  40.675  40.706  40.734  40.813
 40.982  41.082  41.188  41.233  41.277
 --------------------------------------------------------------
 
          Ground-State Mulliken Net Atomic Charges

     Atom                 Charge (a.u.)    Spin (a.u.)
  --------------------------------------------------------
      1 C                    -0.312473       0.000000
      2 N                    -0.351814       0.000000
      3 H                     0.093786       0.000000
      4 H                     0.171886       0.000000
      5 H                     0.171886       0.000000
      6 H                     0.113365       0.000000
      7 H                     0.113365       0.000000
  --------------------------------------------------------
  Sum of atomic charges =     0.000000
  Sum of spin   charges =     0.000000

 -----------------------------------------------------------------
                    Cartesian Multipole Moments
 -----------------------------------------------------------------
    Charge (ESU x 10^10)
                 0.0000
    Dipole Moment (Debye)
         X       1.2914      Y       0.0000      Z      -0.4136
       Tot       1.3560
    Quadrupole Moments (Debye-Ang)
        XX     -15.1407     XY       0.0000     YY     -12.7947
        XZ       3.1018     YZ       0.0000     ZZ     -15.1997
    Octapole Moments (Debye-Ang^2)
       XXX      -1.0643    XXY       0.0000    XYY      -0.1526
       YYY       0.0000    XXZ     -10.9581    XYZ       0.0000
       YYZ      -7.0804    XZZ       5.4791    YZZ       0.0000
       ZZZ     -29.5016
    Hexadecapole Moments (Debye-Ang^3)
      XXXX     -27.2251   XXXY       0.0000   XXYY      -8.2506
      XYYY       0.0000   YYYY     -24.6069   XXXZ      -1.8936
      XXYZ       0.0000   XYYZ       1.3842   YYYZ       0.0000
      XXZZ     -26.1294   XYZZ       0.0000   YYZZ     -19.1798
      XZZZ       9.5532   YZZZ       0.0000   ZZZZ    -118.8470
 -----------------------------------------------------------------
 Calculating analytic gradient of the SCF energy
 Gradient of XC Energy
            1           2           3           4           5           6
    1   0.0215548  -0.2333590   0.1622860   0.1157000   0.1157000  -0.0909408
    2  -0.0000000   0.0000000   0.0000000  -0.1915426   0.1915426  -0.1494523
    3   0.0517442  -0.0236585  -0.0785948   0.0877362   0.0877362  -0.0624816
            7
    1  -0.0909408
    2   0.1494523
    3  -0.0624816
 Gradient of SCF Energy
            1           2           3           4           5           6
    1  -0.0001734  -0.0021277   0.0001338   0.0010485   0.0010485   0.0000351
    2   0.0000000  -0.0000000  -0.0000000  -0.0004367   0.0004367  -0.0000964
    3  -0.0004829   0.0004405  -0.0001312   0.0004846   0.0004846  -0.0003978
            7
    1   0.0000351
    2   0.0000964
    3  -0.0003978
 Max gradient component =       2.128E-03
 RMS gradient           =       6.327E-04
 Gradient time:  CPU 13.10 s  wall 13.18 s
 Geometry Optimization Parameters
   NAtoms,    NIC,     NZ,  NCons,   NDum,   NFix, NCnnct, MaxDiis
        7      35       9       0       0       0       0       0

 Cartesian Hessian Update
 Hessian Updated using BFGS Update


** GEOMETRY OPTIMIZATION IN DELOCALIZED INTERNAL COORDINATES **
   Searching for a Minimum

   Optimization Cycle:   2

                       Coordinates (Angstroms)
     ATOM              X           Y           Z
    1  C          -0.001411    0.000000   -0.005589
    2  N           0.014639    0.000000    1.460518
    3  H           0.987617    0.000000   -0.481063
    4  H           0.507141   -0.811555    1.815570
    5  H           0.507141    0.811555    1.815570
    6  H          -0.542254   -0.877445   -0.360711
    7  H          -0.542254    0.877445   -0.360711
   Point Group: c1    Number of degrees of freedom:  15


   Energy is    -95.900388486

 Hessian Updated using BFGS Update

  8 Hessian modes will be used to form the next step
  Hessian Eigenvalues:
     0.036607    0.075945    0.157090    0.174291    0.323872    0.337238
     0.386855    0.423339

 Minimum Search - Taking Simple RFO Step
 Searching for Lamda that Minimizes Along All modes
 Value Taken    Lamda =  -0.00003765
 Step Taken.  Stepsize is  0.025974

                             Maximum     Tolerance    Cnvgd?
         Gradient           0.001268      0.000300      NO
         Displacement       0.015587      0.001200      NO
         Energy change     -0.000246      0.000001      NO


 New Cartesian Coordinates Obtained by Inverse Iteration

 Displacement from previous Coordinates is:  0.018380
 Writing REM_CC_EA            7
 ----------------------------------------------------
       Standard Nuclear Orientation (Angstroms)
    I     Atom         X            Y            Z
 ----------------------------------------------------
    1      C       0.000502     0.000000    -0.006262
    2      N       0.019147     0.000000     1.457530
    3      H       0.987866     0.000000    -0.483410
    4      H       0.503574    -0.813133     1.815071
    5      H       0.503574     0.813133     1.815071
    6      H      -0.542022    -0.877222    -0.357208
    7      H      -0.542022     0.877222    -0.357208
 ----------------------------------------------------
 Nuclear Repulsion Energy =    42.0134113402 hartrees
 There are        9 alpha and        9 beta electrons
 Applying Cartesian multipole field
    Component          Value
    ---------          -----
     (2,0,0)        1.00000E-11
     (0,2,0)        2.00000E-11
     (0,0,2)       -3.00000E-11
 Nucleus-field energy     =    -0.0000000021 hartrees
 Requested basis set is G3large
 There are 50 shells and 134 basis functions
 A cutoff of  1.0D-11 yielded   1271 shell pairs
 There are   9167 function pairs ( 10914 Cartesian)
Evaluating contribution to one-electron hamiltonian from nuclear
 Smallest overlap matrix eigenvalue = 4.97E-04
 Multipole matrices computed through 2nd order
 Guess MOs from SCF MO coefficient file
Reading MOs from coefficient file
Reading MOs from coefficient file
 An unrestricted hybrid HF-DFT SCF calculation will be
 performed using Pulay DIIS extrapolation
 Exchange:     0.2000 Hartree-Fock + 0.0800 Slater + 0.7200 Becke88
 Correlation:  0.8100 LYP + 0.1900 VWN1RPA
 Using SG-1 standard quadrature grid
 SCF converges when DIIS error is below 1.0E-08
 ---------------------------------------
  Cycle       Energy         DIIS Error
 ---------------------------------------
    1     -95.9023974093      1.35E-04
    2     -95.9004080337      1.83E-05
    3     -95.9004082185      1.69E-05
    4     -95.9004087779      4.92E-06
    5     -95.9004087524      1.22E-06
    6     -95.9004087486      3.23E-07
    7     -95.9004087532      3.29E-08
    8     -95.9004087530      7.48E-09 Convergence criterion met
 ---------------------------------------
 One-Electron    Energy =  -211.5860843850
 Total Coulomb   Energy =    87.9021109333
 Alpha Exchange  Energy =    -1.3567053074
 Beta  Exchange  Energy =    -1.3567053074
 DFT   Exchange  Energy =   -10.7712917070
 DFT Correlation Energy =    -0.7451443177
 Nuclear Repu.   Energy =    42.0134113381
 Nuclear Attr.   Energy =  -307.0704957759
 Kinetic         Energy =    95.4844113909
 <S^2> = 0.0000
 SCF time:  CPU 31.48 s  wall 31.77 s
 Final Alpha MO Eigenvalues
            1           2           3           4           5           6
    1 -14.2923880 -10.1839998  -0.8780497  -0.6637411  -0.4944859  -0.4440022
            7           8           9          10          11          12
    1  -0.4075937  -0.3728037  -0.2439798  -0.0110447   0.0125835   0.0247716
           13          14
    1   0.0344709   0.0584318
 Final Beta MO Eigenvalues
            1           2           3           4           5           6
    1 -14.2923880 -10.1839998  -0.8780497  -0.6637411  -0.4944859  -0.4440022
            7           8           9          10          11          12
    1  -0.4075937  -0.3728037  -0.2439798  -0.0110447   0.0125835   0.0247716
           13          14
    1   0.0344709   0.0584318
 Analysis of SCF Wavefunction
 
 --------------------------------------------------------------
                    Orbital Energies (a.u.)
 --------------------------------------------------------------
 
 Alpha MOs
 -- Occupied --
-14.292 -10.184  -0.878  -0.664  -0.494  -0.444  -0.408  -0.373
 -0.244
 -- Virtual --
 -0.011   0.013   0.025   0.034   0.058   0.071   0.098   0.098
  0.120   0.136   0.156   0.167   0.183   0.185   0.196   0.208
  0.243   0.257   0.295   0.429   0.433   0.491   0.504   0.545
  0.566   0.580   0.592   0.600   0.633   0.647   0.666   0.733
  0.766   0.845   0.856   0.911   0.921   1.008   1.077   1.080
  1.123   1.165   1.185   1.225   1.269   1.279   1.322   1.391
  1.430   1.443   1.478   1.516   1.628   1.646   1.722   1.871
  1.873   2.341   2.373   2.465   2.642   2.716   2.929   3.000
  3.014   3.030   3.099   3.130   3.220   3.244   3.273   3.336
  3.363   3.435   3.455   3.653   3.679   3.694   3.779   3.781
  3.867   3.882   3.901   4.037   4.118   4.125   4.230   4.246
  4.288   4.340   4.442   4.628   4.644   4.762   4.778   4.871
  4.892   5.146   5.201   5.277   5.347   5.521   5.620   5.697
  5.768   6.108   6.449  24.336  28.070  28.108  28.127  35.714
 37.626  38.246  38.318  40.598  40.677  40.707  40.734  40.815
 40.982  41.084  41.189  41.234  41.278
 
 Beta MOs
 -- Occupied --
-14.292 -10.184  -0.878  -0.664  -0.494  -0.444  -0.408  -0.373
 -0.244
 -- Virtual --
 -0.011   0.013   0.025   0.034   0.058   0.071   0.098   0.098
  0.120   0.136   0.156   0.167   0.183   0.185   0.196   0.208
  0.243   0.257   0.295   0.429   0.433   0.491   0.504   0.545
  0.566   0.580   0.592   0.600   0.633   0.647   0.666   0.733
  0.766   0.845   0.856   0.911   0.921   1.008   1.077   1.080
  1.123   1.165   1.185   1.225   1.269   1.279   1.322   1.391
  1.430   1.443   1.478   1.516   1.628   1.646   1.722   1.871
  1.873   2.341   2.373   2.465   2.642   2.716   2.929   3.000
  3.014   3.030   3.099   3.130   3.220   3.244   3.273   3.336
  3.363   3.435   3.455   3.653   3.679   3.694   3.779   3.781
  3.867   3.882   3.901   4.037   4.118   4.125   4.230   4.246
  4.288   4.340   4.442   4.628   4.644   4.762   4.778   4.871
  4.892   5.146   5.201   5.277   5.347   5.521   5.620   5.697
  5.768   6.108   6.449  24.336  28.070  28.108  28.127  35.714
 37.626  38.246  38.318  40.598  40.677  40.707  40.734  40.815
 40.982  41.084  41.189  41.234  41.278
 --------------------------------------------------------------
 
          Ground-State Mulliken Net Atomic Charges

     Atom                 Charge (a.u.)    Spin (a.u.)
  --------------------------------------------------------
      1 C                    -0.312584       0.000000
      2 N                    -0.351899       0.000000
      3 H                     0.093842       0.000000
      4 H                     0.172021       0.000000
      5 H                     0.172021       0.000000
      6 H                     0.113299       0.000000
      7 H                     0.113299       0.000000
  --------------------------------------------------------
  Sum of atomic charges =     0.000000
  Sum of spin   charges =     0.000000

 -----------------------------------------------------------------
                    Cartesian Multipole Moments
 -----------------------------------------------------------------
    Charge (ESU x 10^10)
                 0.0000
    Dipole Moment (Debye)
         X       1.2728      Y       0.0000      Z      -0.3991
       Tot       1.3339
    Quadrupole Moments (Debye-Ang)
        XX     -15.1496     XY       0.0000     YY     -12.7710
        XZ       3.0624     YZ       0.0000     ZZ     -15.1661
    Octapole Moments (Debye-Ang^2)
       XXX      -1.1873    XXY       0.0000    XYY      -0.1859
       YYY       0.0000    XXZ     -10.9558    XYZ       0.0000
       YYZ      -7.0181    XZZ       5.3772    YZZ       0.0000
       ZZZ     -29.3323
    Hexadecapole Moments (Debye-Ang^3)
      XXXX     -27.2148   XXXY       0.0000   XXYY      -8.2500
      XYYY       0.0000   YYYY     -24.5625   XXXZ      -2.0161
      XXYZ       0.0000   XYYZ       1.3511   YYYZ       0.0000
      XXZZ     -26.0979   XYZZ       0.0000   YYZZ     -19.0573
      XZZZ       9.3392   YZZZ       0.0000   ZZZZ    -118.2123
 -----------------------------------------------------------------
 Calculating analytic gradient of the SCF energy
 Gradient of XC Energy
            1           2           3           4           5           6
    1   0.0221432  -0.2296687   0.1623720   0.1139985   0.1139985  -0.0914217
    2   0.0000000  -0.0000000   0.0000000  -0.1931627   0.1931627  -0.1496130
    3   0.0498125  -0.0255640  -0.0787775   0.0886614   0.0886614  -0.0613969
            7
    1  -0.0914217
    2   0.1496130
    3  -0.0613969
 Gradient of SCF Energy
            1           2           3           4           5           6
    1   0.0001134  -0.0003267  -0.0002306   0.0000752   0.0000752   0.0001467
    2  -0.0000000  -0.0000000   0.0000000   0.0001084  -0.0001084   0.0001927
    3  -0.0007134   0.0002640   0.0002541  -0.0000741  -0.0000741   0.0001718
            7
    1   0.0001467
    2  -0.0001927
    3   0.0001718
 Max gradient component =       7.134E-04
 RMS gradient           =       2.223E-04
 Gradient time:  CPU 13.10 s  wall 13.15 s
 Geometry Optimization Parameters
   NAtoms,    NIC,     NZ,  NCons,   NDum,   NFix, NCnnct, MaxDiis
        7      35       9       0       0       0       0       0

 Cartesian Hessian Update
 Hessian Updated using BFGS Update


** GEOMETRY OPTIMIZATION IN DELOCALIZED INTERNAL COORDINATES **
   Searching for a Minimum

   Optimization Cycle:   3

                       Coordinates (Angstroms)
     ATOM              X           Y           Z
    1  C           0.000502    0.000000   -0.006262
    2  N           0.019147    0.000000    1.457530
    3  H           0.987866    0.000000   -0.483410
    4  H           0.503574   -0.813133    1.815071
    5  H           0.503574    0.813133    1.815071
    6  H          -0.542022   -0.877222   -0.357208
    7  H          -0.542022    0.877222   -0.357208
   Point Group: c1    Number of degrees of freedom:  15


   Energy is    -95.900408753

 Hessian Updated using BFGS Update

  9 Hessian modes will be used to form the next step
  Hessian Eigenvalues:
     0.028523    0.075916    0.159014    0.161937    0.184506    0.335156
     0.358375    0.372129    0.434838

 Minimum Search - Taking Simple RFO Step
 Searching for Lamda that Minimizes Along All modes
 Value Taken    Lamda =  -0.00000301
 Step Taken.  Stepsize is  0.008225

                             Maximum     Tolerance    Cnvgd?
         Gradient           0.000423      0.000300      NO
         Displacement       0.005128      0.001200      NO
         Energy change     -0.000020      0.000001      NO


 New Cartesian Coordinates Obtained by Inverse Iteration

 Displacement from previous Coordinates is:  0.006140
 Writing REM_CC_EA            7
 ----------------------------------------------------
       Standard Nuclear Orientation (Angstroms)
    I     Atom         X            Y            Z
 ----------------------------------------------------
    1      C       0.000836     0.000000    -0.006254
    2      N       0.020760     0.000000     1.457184
    3      H       0.987900     0.000000    -0.485099
    4      H       0.502781    -0.813808     1.816205
    5      H       0.502781     0.813808     1.816205
    6      H      -0.542220    -0.877317    -0.357329
    7      H      -0.542220     0.877317    -0.357329
 ----------------------------------------------------
 Nuclear Repulsion Energy =    42.0105525122 hartrees
 There are        9 alpha and        9 beta electrons
 Applying Cartesian multipole field
    Component          Value
    ---------          -----
     (2,0,0)        1.00000E-11
     (0,2,0)        2.00000E-11
     (0,0,2)       -3.00000E-11
 Nucleus-field energy     =    -0.0000000021 hartrees
 Requested basis set is G3large
 There are 50 shells and 134 basis functions
 A cutoff of  1.0D-11 yielded   1271 shell pairs
 There are   9167 function pairs ( 10914 Cartesian)
Evaluating contribution to one-electron hamiltonian from nuclear
 Smallest overlap matrix eigenvalue = 4.98E-04
 Multipole matrices computed through 2nd order
 Guess MOs from SCF MO coefficient file
Reading MOs from coefficient file
Reading MOs from coefficient file
 An unrestricted hybrid HF-DFT SCF calculation will be
 performed using Pulay DIIS extrapolation
 Exchange:     0.2000 Hartree-Fock + 0.0800 Slater + 0.7200 Becke88
 Correlation:  0.8100 LYP + 0.1900 VWN1RPA
 Using SG-1 standard quadrature grid
 SCF converges when DIIS error is below 1.0E-08
 ---------------------------------------
  Cycle       Energy         DIIS Error
 ---------------------------------------
    1     -95.9004397612      4.29E-05
    2     -95.9004104645      6.57E-06
    3     -95.9004105392      3.60E-06
    4     -95.9004105726      2.03E-06
    5     -95.9004105731      2.28E-07
    6     -95.9004105773      7.60E-08
    7     -95.9004105751      2.54E-08
    8     -95.9004105759      3.27E-09 Convergence criterion met
 ---------------------------------------
 One-Electron    Energy =  -211.5811000690
 Total Coulomb   Energy =    87.8996049421
 Alpha Exchange  Energy =    -1.3566663800
 Beta  Exchange  Energy =    -1.3566663800
 DFT   Exchange  Energy =   -10.7710052813
 DFT Correlation Energy =    -0.7451299178
 Nuclear Repu.   Energy =    42.0105525102
 Nuclear Attr.   Energy =  -307.0635851052
 Kinetic         Energy =    95.4824850362
 <S^2> = 0.0000
 SCF time:  CPU 30.68 s  wall 30.87 s
 Final Alpha MO Eigenvalues
            1           2           3           4           5           6
    1 -14.2923285 -10.1841134  -0.8779471  -0.6636730  -0.4946247  -0.4439602
            7           8           9          10          11          12
    1  -0.4076670  -0.3727679  -0.2437035  -0.0110139   0.0125673   0.0247606
           13          14
    1   0.0344815   0.0584371
 Final Beta MO Eigenvalues
            1           2           3           4           5           6
    1 -14.2923285 -10.1841134  -0.8779471  -0.6636730  -0.4946247  -0.4439602
            7           8           9          10          11          12
    1  -0.4076670  -0.3727679  -0.2437035  -0.0110139   0.0125673   0.0247606
           13          14
    1   0.0344815   0.0584371
 Analysis of SCF Wavefunction
 
 --------------------------------------------------------------
                    Orbital Energies (a.u.)
 --------------------------------------------------------------
 
 Alpha MOs
 -- Occupied --
-14.292 -10.184  -0.878  -0.664  -0.495  -0.444  -0.408  -0.373
 -0.244
 -- Virtual --
 -0.011   0.013   0.025   0.034   0.058   0.071   0.098   0.098
  0.120   0.136   0.156   0.167   0.183   0.185   0.196   0.208
  0.243   0.257   0.295   0.429   0.433   0.491   0.504   0.545
  0.566   0.580   0.592   0.600   0.633   0.648   0.666   0.733
  0.766   0.845   0.856   0.911   0.921   1.008   1.076   1.080
  1.122   1.164   1.184   1.226   1.269   1.279   1.322   1.391
  1.430   1.442   1.477   1.516   1.629   1.646   1.723   1.871
  1.873   2.341   2.373   2.465   2.640   2.717   2.929   3.000
  3.014   3.030   3.100   3.130   3.219   3.244   3.273   3.337
  3.364   3.435   3.455   3.652   3.681   3.694   3.780   3.781
  3.866   3.882   3.901   4.037   4.117   4.124   4.230   4.245
  4.286   4.339   4.440   4.628   4.641   4.762   4.779   4.872
  4.895   5.147   5.201   5.276   5.348   5.520   5.619   5.696
  5.768   6.109   6.448  24.335  28.070  28.107  28.126  35.714
 37.624  38.247  38.319  40.598  40.677  40.707  40.734  40.815
 40.982  41.084  41.189  41.234  41.278
 
 Beta MOs
 -- Occupied --
-14.292 -10.184  -0.878  -0.664  -0.495  -0.444  -0.408  -0.373
 -0.244
 -- Virtual --
 -0.011   0.013   0.025   0.034   0.058   0.071   0.098   0.098
  0.120   0.136   0.156   0.167   0.183   0.185   0.196   0.208
  0.243   0.257   0.295   0.429   0.433   0.491   0.504   0.545
  0.566   0.580   0.592   0.600   0.633   0.648   0.666   0.733
  0.766   0.845   0.856   0.911   0.921   1.008   1.076   1.080
  1.122   1.164   1.184   1.226   1.269   1.279   1.322   1.391
  1.430   1.442   1.477   1.516   1.629   1.646   1.723   1.871
  1.873   2.341   2.373   2.465   2.640   2.717   2.929   3.000
  3.014   3.030   3.100   3.130   3.219   3.244   3.273   3.337
  3.364   3.435   3.455   3.652   3.681   3.694   3.780   3.781
  3.866   3.882   3.901   4.037   4.117   4.124   4.230   4.245
  4.286   4.339   4.440   4.628   4.641   4.762   4.779   4.872
  4.895   5.147   5.201   5.276   5.348   5.520   5.619   5.696
  5.768   6.109   6.448  24.335  28.070  28.107  28.126  35.714
 37.624  38.247  38.319  40.598  40.677  40.707  40.734  40.815
 40.982  41.084  41.189  41.234  41.278
 --------------------------------------------------------------
 
          Ground-State Mulliken Net Atomic Charges

     Atom                 Charge (a.u.)    Spin (a.u.)
  --------------------------------------------------------
      1 C                    -0.312326       0.000000
      2 N                    -0.352108       0.000000
      3 H                     0.093708       0.000000
      4 H                     0.172151       0.000000
      5 H                     0.172151       0.000000
      6 H                     0.113211       0.000000
      7 H                     0.113211       0.000000
  --------------------------------------------------------
  Sum of atomic charges =     0.000000
  Sum of spin   charges =     0.000000

 -----------------------------------------------------------------
                    Cartesian Multipole Moments
 -----------------------------------------------------------------
    Charge (ESU x 10^10)
                 0.0000
    Dipole Moment (Debye)
         X       1.2660      Y       0.0000      Z      -0.3934
       Tot       1.3258
    Quadrupole Moments (Debye-Ang)
        XX     -15.1571     XY       0.0000     YY     -12.7676
        XZ       3.0528     YZ       0.0000     ZZ     -15.1471
    Octapole Moments (Debye-Ang^2)
       XXX      -1.2289    XXY       0.0000    XYY      -0.1959
       YYY       0.0000    XXZ     -10.9590    XYZ       0.0000
       YYZ      -7.0015    XZZ       5.3518    YZZ       0.0000
       ZZZ     -29.2685
    Hexadecapole Moments (Debye-Ang^3)
      XXXX     -27.2353   XXXY       0.0000   XXYY      -8.2562
      XYYY       0.0000   YYYY     -24.5686   XXXZ      -2.0681
      XXYZ       0.0000   XYYZ       1.3416   YYYZ       0.0000
      XXZZ     -26.1063   XYZZ       0.0000   YYZZ     -19.0289
      XZZZ       9.2833   YZZZ       0.0000   ZZZZ    -118.0733
 -----------------------------------------------------------------
 Calculating analytic gradient of the SCF energy
 Gradient of XC Energy
            1           2           3           4           5           6
    1   0.0221887  -0.2281832   0.1621846   0.1133742   0.1133742  -0.0914692
    2   0.0000000  -0.0000000   0.0000000  -0.1934995   0.1934995  -0.1495202
    3   0.0498649  -0.0261622  -0.0790410   0.0891076   0.0891076  -0.0614384
            7
    1  -0.0914692
    2   0.1495202
    3  -0.0614384
 Gradient of SCF Energy
            1           2           3           4           5           6
    1   0.0000491  -0.0000147  -0.0000260  -0.0000314  -0.0000314   0.0000272
    2   0.0000000  -0.0000000   0.0000000   0.0000089  -0.0000089   0.0000290
    3  -0.0003773   0.0002130   0.0000929  -0.0000030  -0.0000030   0.0000387
            7
    1   0.0000272
    2  -0.0000290
    3   0.0000387
 Max gradient component =       3.773E-04
 RMS gradient           =       9.951E-05
 Gradient time:  CPU 13.16 s  wall 13.35 s
 Geometry Optimization Parameters
   NAtoms,    NIC,     NZ,  NCons,   NDum,   NFix, NCnnct, MaxDiis
        7      35       9       0       0       0       0       0

 Cartesian Hessian Update
 Hessian Updated using BFGS Update


** GEOMETRY OPTIMIZATION IN DELOCALIZED INTERNAL COORDINATES **
   Searching for a Minimum

   Optimization Cycle:   4

                       Coordinates (Angstroms)
     ATOM              X           Y           Z
    1  C           0.000836    0.000000   -0.006254
    2  N           0.020760    0.000000    1.457184
    3  H           0.987900    0.000000   -0.485099
    4  H           0.502781   -0.813808    1.816205
    5  H           0.502781    0.813808    1.816205
    6  H          -0.542220   -0.877317   -0.357329
    7  H          -0.542220    0.877317   -0.357329
   Point Group: c1    Number of degrees of freedom:  15


   Energy is    -95.900410576

 Hessian Updated using BFGS Update

  9 Hessian modes will be used to form the next step
  Hessian Eigenvalues:
     0.028161    0.076041    0.152815    0.159309    0.175226    0.326072
     0.338308    0.391906    0.431261

 Minimum Search - Taking Simple RFO Step
 Searching for Lamda that Minimizes Along All modes
 Value Taken    Lamda =   0.00000000
 Step Taken.  Stepsize is  0.001515

                             Maximum     Tolerance    Cnvgd?
         Gradient           0.000167      0.000300     YES
         Displacement       0.001211      0.001200      NO
         Energy change     -0.000002      0.000001      NO


 New Cartesian Coordinates Obtained by Inverse Iteration

 Displacement from previous Coordinates is:  0.000921
 Writing REM_CC_EA            7
 ----------------------------------------------------
       Standard Nuclear Orientation (Angstroms)
    I     Atom         X            Y            Z
 ----------------------------------------------------
    1      C       0.000855     0.000000    -0.006000
    2      N       0.020952     0.000000     1.457067
    3      H       0.987849     0.000000    -0.485348
    4      H       0.502676    -0.813876     1.816306
    5      H       0.502676     0.813876     1.816306
    6      H      -0.542195    -0.877316    -0.357373
    7      H      -0.542195     0.877316    -0.357373
 ----------------------------------------------------
 Nuclear Repulsion Energy =    42.0136758267 hartrees
 There are        9 alpha and        9 beta electrons
 Applying Cartesian multipole field
    Component          Value
    ---------          -----
     (2,0,0)        1.00000E-11
     (0,2,0)        2.00000E-11
     (0,0,2)       -3.00000E-11
 Nucleus-field energy     =    -0.0000000021 hartrees
 Requested basis set is G3large
 There are 50 shells and 134 basis functions
 A cutoff of  1.0D-11 yielded   1271 shell pairs
 There are   9167 function pairs ( 10914 Cartesian)
Evaluating contribution to one-electron hamiltonian from nuclear
 Smallest overlap matrix eigenvalue = 4.98E-04
 Multipole matrices computed through 2nd order
 Guess MOs from SCF MO coefficient file
Reading MOs from coefficient file
Reading MOs from coefficient file
 An unrestricted hybrid HF-DFT SCF calculation will be
 performed using Pulay DIIS extrapolation
 Exchange:     0.2000 Hartree-Fock + 0.0800 Slater + 0.7200 Becke88
 Correlation:  0.8100 LYP + 0.1900 VWN1RPA
 Using SG-1 standard quadrature grid
 SCF converges when DIIS error is below 1.0E-08
 ---------------------------------------
  Cycle       Energy         DIIS Error
 ---------------------------------------
    1     -95.9004132904      1.52E-05
    2     -95.9004106746      2.52E-06
    3     -95.9004106459      2.95E-06
    4     -95.9004106854      5.27E-07
    5     -95.9004106817      2.99E-08
    6     -95.9004106821      7.84E-09 Convergence criterion met
 ---------------------------------------
 One-Electron    Energy =  -211.5871917465
 Total Coulomb   Energy =    87.9025991019
 Alpha Exchange  Energy =    -1.3566690627
 Beta  Exchange  Energy =    -1.3566690627
 DFT   Exchange  Energy =   -10.7710217731
 DFT Correlation Energy =    -0.7451339637
 Nuclear Repu.   Energy =    42.0136758247
 Nuclear Attr.   Energy =  -307.0697030983
 Kinetic         Energy =    95.4825113518
 <S^2> = 0.0000
 SCF time:  CPU 23.45 s  wall 23.69 s
 Final Alpha MO Eigenvalues
            1           2           3           4           5           6
    1 -14.2923245 -10.1841194  -0.8780134  -0.6636459  -0.4946738  -0.4440092
            7           8           9          10          11          12
    1  -0.4076871  -0.3727205  -0.2436636  -0.0110109   0.0125658   0.0247535
           13          14
    1   0.0344844   0.0584396
 Final Beta MO Eigenvalues
            1           2           3           4           5           6
    1 -14.2923245 -10.1841194  -0.8780134  -0.6636459  -0.4946738  -0.4440092
            7           8           9          10          11          12
    1  -0.4076871  -0.3727205  -0.2436636  -0.0110109   0.0125658   0.0247535
           13          14
    1   0.0344844   0.0584396
 Analysis of SCF Wavefunction
 
 --------------------------------------------------------------
                    Orbital Energies (a.u.)
 --------------------------------------------------------------
 
 Alpha MOs
 -- Occupied --
-14.292 -10.184  -0.878  -0.664  -0.495  -0.444  -0.408  -0.373
 -0.244
 -- Virtual --
 -0.011   0.013   0.025   0.034   0.058   0.071   0.098   0.098
  0.120   0.136   0.156   0.167   0.183   0.185   0.196   0.208
  0.243   0.257   0.295   0.429   0.433   0.491   0.504   0.545
  0.566   0.580   0.592   0.600   0.633   0.648   0.666   0.733
  0.766   0.845   0.856   0.911   0.921   1.008   1.076   1.080
  1.122   1.164   1.184   1.226   1.268   1.278   1.322   1.391
  1.430   1.442   1.477   1.516   1.629   1.646   1.723   1.871
  1.873   2.341   2.373   2.465   2.640   2.717   2.929   3.000
  3.014   3.030   3.100   3.130   3.219   3.244   3.273   3.337
  3.364   3.435   3.455   3.652   3.681   3.694   3.780   3.781
  3.866   3.882   3.901   4.037   4.117   4.124   4.230   4.245
  4.286   4.338   4.439   4.628   4.641   4.762   4.780   4.873
  4.895   5.147   5.201   5.276   5.349   5.520   5.619   5.696
  5.768   6.109   6.448  24.335  28.070  28.107  28.126  35.715
 37.624  38.247  38.319  40.598  40.677  40.707  40.734  40.815
 40.982  41.085  41.189  41.234  41.278
 
 Beta MOs
 -- Occupied --
-14.292 -10.184  -0.878  -0.664  -0.495  -0.444  -0.408  -0.373
 -0.244
 -- Virtual --
 -0.011   0.013   0.025   0.034   0.058   0.071   0.098   0.098
  0.120   0.136   0.156   0.167   0.183   0.185   0.196   0.208
  0.243   0.257   0.295   0.429   0.433   0.491   0.504   0.545
  0.566   0.580   0.592   0.600   0.633   0.648   0.666   0.733
  0.766   0.845   0.856   0.911   0.921   1.008   1.076   1.080
  1.122   1.164   1.184   1.226   1.268   1.278   1.322   1.391
  1.430   1.442   1.477   1.516   1.629   1.646   1.723   1.871
  1.873   2.341   2.373   2.465   2.640   2.717   2.929   3.000
  3.014   3.030   3.100   3.130   3.219   3.244   3.273   3.337
  3.364   3.435   3.455   3.652   3.681   3.694   3.780   3.781
  3.866   3.882   3.901   4.037   4.117   4.124   4.230   4.245
  4.286   4.338   4.439   4.628   4.641   4.762   4.780   4.873
  4.895   5.147   5.201   5.276   5.349   5.520   5.619   5.696
  5.768   6.109   6.448  24.335  28.070  28.107  28.126  35.715
 37.624  38.247  38.319  40.598  40.677  40.707  40.734  40.815
 40.982  41.085  41.189  41.234  41.278
 --------------------------------------------------------------
 
          Ground-State Mulliken Net Atomic Charges

     Atom                 Charge (a.u.)    Spin (a.u.)
  --------------------------------------------------------
      1 C                    -0.312345       0.000000
      2 N                    -0.351954       0.000000
      3 H                     0.093626       0.000000
      4 H                     0.172162       0.000000
      5 H                     0.172162       0.000000
      6 H                     0.113175       0.000000
      7 H                     0.113175       0.000000
  --------------------------------------------------------
  Sum of atomic charges =     0.000000
  Sum of spin   charges =     0.000000

 -----------------------------------------------------------------
                    Cartesian Multipole Moments
 -----------------------------------------------------------------
    Charge (ESU x 10^10)
                 0.0000
    Dipole Moment (Debye)
         X       1.2651      Y       0.0000      Z      -0.3919
       Tot       1.3244
    Quadrupole Moments (Debye-Ang)
        XX     -15.1586     XY       0.0000     YY     -12.7674
        XZ       3.0519     YZ       0.0000     ZZ     -15.1432
    Octapole Moments (Debye-Ang^2)
       XXX      -1.2342    XXY       0.0000    XYY      -0.1967
       YYY       0.0000    XXZ     -10.9585    XYZ       0.0000
       YYZ      -6.9997    XZZ       5.3485    YZZ       0.0000
       ZZZ     -29.2596
    Hexadecapole Moments (Debye-Ang^3)
      XXXX     -27.2391   XXXY       0.0000   XXYY      -8.2574
      XYYY       0.0000   YYYY     -24.5703   XXXZ      -2.0732
      XXYZ       0.0000   XYYZ       1.3406   YYYZ       0.0000
      XXZZ     -26.1043   XYZZ       0.0000   YYZZ     -19.0233
      XZZZ       9.2766   YZZZ       0.0000   ZZZZ    -118.0403
 -----------------------------------------------------------------
 Calculating analytic gradient of the SCF energy
 Gradient of XC Energy
            1           2           3           4           5           6
    1   0.0221885  -0.2280076   0.1620993   0.1133009   0.1133009  -0.0914410
    2   0.0000000  -0.0000000   0.0000000  -0.1935399   0.1935399  -0.1494863
    3   0.0499835  -0.0262082  -0.0791222   0.0891771   0.0891771  -0.0615036
            7
    1  -0.0914410
    2   0.1494863
    3  -0.0615037
 Gradient of SCF Energy
            1           2           3           4           5           6
    1   0.0000223   0.0000040   0.0000238  -0.0000380  -0.0000380   0.0000129
    2   0.0000000  -0.0000000   0.0000000  -0.0000022   0.0000022  -0.0000051
    3  -0.0000845   0.0000597   0.0000337   0.0000008   0.0000008  -0.0000053
            7
    1   0.0000129
    2   0.0000051
    3  -0.0000053
 Max gradient component =       8.446E-05
 RMS gradient           =       2.782E-05
 Gradient time:  CPU 13.63 s  wall 13.70 s
 Geometry Optimization Parameters
   NAtoms,    NIC,     NZ,  NCons,   NDum,   NFix, NCnnct, MaxDiis
        7      35       9       0       0       0       0       0

 Cartesian Hessian Update
 Hessian Updated using BFGS Update


** GEOMETRY OPTIMIZATION IN DELOCALIZED INTERNAL COORDINATES **
   Searching for a Minimum

   Optimization Cycle:   5

                       Coordinates (Angstroms)
     ATOM              X           Y           Z
    1  C           0.000855    0.000000   -0.006000
    2  N           0.020952    0.000000    1.457067
    3  H           0.987849    0.000000   -0.485348
    4  H           0.502676   -0.813876    1.816306
    5  H           0.502676    0.813876    1.816306
    6  H          -0.542195   -0.877316   -0.357373
    7  H          -0.542195    0.877316   -0.357373
   Point Group: c1    Number of degrees of freedom:  15


   Energy is    -95.900410682

 Hessian Updated using BFGS Update

 10 Hessian modes will be used to form the next step
  Hessian Eigenvalues:
     0.029874    0.075928    0.124931    0.159928    0.171552    0.322658
     0.339291    0.375520    0.430478    0.445601

 Minimum Search - Taking Simple RFO Step
 Searching for Lamda that Minimizes Along All modes
 Value Taken    Lamda =   0.00000000
 Step Taken.  Stepsize is  0.000395

                             Maximum     Tolerance    Cnvgd?
         Gradient           0.000046      0.000300     YES
         Displacement       0.000313      0.001200     YES
         Energy change      0.000000      0.000001     YES


                       Distance Matrix (Angstroms)
             C (  1)   N (  2)   H (  3)   H (  4)   H (  5)   H (  6)
   N (  2)  1.463204
   H (  3)  1.097239  2.169762
   H (  4)  2.057916  1.011685  2.489057
   H (  5)  2.057916  1.011685  2.489057  1.627753
   H (  6)  1.089977  2.092609  1.768360  2.412605  2.945636
   H (  7)  1.089977  2.092609  1.768360  2.945636  2.412605  1.754632

 


 ******************************
 **  OPTIMIZATION CONVERGED  **
 ******************************
 Analysis of SCF Wavefunction
 
 --------------------------------------------------------------
                    Orbital Energies (a.u.)
 --------------------------------------------------------------
 
 Alpha MOs
 -- Occupied --
-14.292 -10.184  -0.878  -0.664  -0.495  -0.444  -0.408  -0.373
 -0.244
 -- Virtual --
 -0.011   0.013   0.025   0.034   0.058   0.071   0.098   0.098
  0.120   0.136   0.156   0.167   0.183   0.185   0.196   0.208
  0.243   0.257   0.295   0.429   0.433   0.491   0.504   0.545
  0.566   0.580   0.592   0.600   0.633   0.648   0.666   0.733
  0.766   0.845   0.856   0.911   0.921   1.008   1.076   1.080
  1.122   1.164   1.184   1.226   1.268   1.278   1.322   1.391
  1.430   1.442   1.477   1.516   1.629   1.646   1.723   1.871
  1.873   2.341   2.373   2.465   2.640   2.717   2.929   3.000
  3.014   3.030   3.100   3.130   3.219   3.244   3.273   3.337
  3.364   3.435   3.455   3.652   3.681   3.694   3.780   3.781
  3.866   3.882   3.901   4.037   4.117   4.124   4.230   4.245
  4.286   4.338   4.439   4.628   4.641   4.762   4.780   4.873
  4.895   5.147   5.201   5.276   5.349   5.520   5.619   5.696
  5.768   6.109   6.448  24.335  28.070  28.107  28.126  35.715
 37.624  38.247  38.319  40.598  40.677  40.707  40.734  40.815
 40.982  41.085  41.189  41.234  41.278
 
 Beta MOs
 -- Occupied --
-14.292 -10.184  -0.878  -0.664  -0.495  -0.444  -0.408  -0.373
 -0.244
 -- Virtual --
 -0.011   0.013   0.025   0.034   0.058   0.071   0.098   0.098
  0.120   0.136   0.156   0.167   0.183   0.185   0.196   0.208
  0.243   0.257   0.295   0.429   0.433   0.491   0.504   0.545
  0.566   0.580   0.592   0.600   0.633   0.648   0.666   0.733
  0.766   0.845   0.856   0.911   0.921   1.008   1.076   1.080
  1.122   1.164   1.184   1.226   1.268   1.278   1.322   1.391
  1.430   1.442   1.477   1.516   1.629   1.646   1.723   1.871
  1.873   2.341   2.373   2.465   2.640   2.717   2.929   3.000
  3.014   3.030   3.100   3.130   3.219   3.244   3.273   3.337
  3.364   3.435   3.455   3.652   3.681   3.694   3.780   3.781
  3.866   3.882   3.901   4.037   4.117   4.124   4.230   4.245
  4.286   4.338   4.439   4.628   4.641   4.762   4.780   4.873
  4.895   5.147   5.201   5.276   5.349   5.520   5.619   5.696
  5.768   6.109   6.448  24.335  28.070  28.107  28.126  35.715
 37.624  38.247  38.319  40.598  40.677  40.707  40.734  40.815
 40.982  41.085  41.189  41.234  41.278
 --------------------------------------------------------------
 
          Ground-State Mulliken Net Atomic Charges

     Atom                 Charge (a.u.)    Spin (a.u.)
  --------------------------------------------------------
      1 C                    -0.312345       0.000000
      2 N                    -0.351954       0.000000
      3 H                     0.093626       0.000000
      4 H                     0.172162       0.000000
      5 H                     0.172162       0.000000
      6 H                     0.113175       0.000000
      7 H                     0.113175       0.000000
  --------------------------------------------------------
  Sum of atomic charges =     0.000000
  Sum of spin   charges =     0.000000

 -----------------------------------------------------------------
                    Cartesian Multipole Moments
 -----------------------------------------------------------------
    Charge (ESU x 10^10)
                 0.0000
    Dipole Moment (Debye)
         X       1.2651      Y       0.0000      Z      -0.3919
       Tot       1.3244
    Quadrupole Moments (Debye-Ang)
        XX     -15.1586     XY       0.0000     YY     -12.7674
        XZ       3.0519     YZ       0.0000     ZZ     -15.1432
    Octapole Moments (Debye-Ang^2)
       XXX      -1.2342    XXY       0.0000    XYY      -0.1967
       YYY       0.0000    XXZ     -10.9585    XYZ       0.0000
       YYZ      -6.9997    XZZ       5.3485    YZZ       0.0000
       ZZZ     -29.2596
    Hexadecapole Moments (Debye-Ang^3)
      XXXX     -27.2391   XXXY       0.0000   XXYY      -8.2574
      XYYY       0.0000   YYYY     -24.5703   XXXZ      -2.0732
      XXYZ       0.0000   XYYZ       1.3406   YYYZ       0.0000
      XXZZ     -26.1043   XYZZ       0.0000   YYZZ     -19.0233
      XZZZ       9.2766   YZZZ       0.0000   ZZZZ    -118.0403
 -----------------------------------------------------------------
 Total job time:  232.99s(wall), 229.71s(cpu) 
 Wed Jul 24 16:05:15 2013

        *************************************************************
        *                                                           *
        *  Thank you very much for using Q-Chem.  Have a nice day.  *
        *                                                           *
        *************************************************************


0 sent ACK to 0 
now end server 0 ... 
 
**********************************************************************
Job 2 of 2 
**********************************************************************
 
Process 0 of 1 is on cl076.stfx.acenet.ca - thread support 1
initial socket setup ...start
initial socket setup ...done 
now start server 0 ... 

cmd = /usr/bin/ssh clhead /usr/local/qchem/bin/get_hostid 520570722 > /scratch/tmp/6067124.1.short.q/qchem28952/lic.dat
                  Welcome to Q-Chem
     A Quantum Leap Into The Future Of Chemistry

 Y. Shao, L. Fusti-Molnar, Y. Jung, J. Kussmann, C. Ochsenfeld,
 S. T. Brown, A. T. B. Gilbert, L. V. Slipchenko,S. V. Levchenko,
 D. P. O'Neill, R. A. DiStasio Jr., R. C. Lochan, T. Wang,
 G. J. O. Beran, N. A. Besley, J. M. Herbert, C. Y. Lin,
 T. Van Voorhis, S. H. Chien, A. Sodt, R. P. Steele, 
 V. A. Rassolov, P. E. Maslen, P. P. Korambath, R. D. Adamson,
 B. Austin, J. Baker, E. F. C. Byrd, H. Dachsel, R. J. Doerksen,
 A. Dreuw, B. D. Dunietz, A. D. Dutoi, T. R. Furlani,
 S. R. Gwaltney, A. Heyden, S. Hirata, C.-P. Hsu, G. Kedziora,
 R. Z. Khaliullin, P. Klunzinger, A. M. Lee, M. S. Lee, W. Liang,
 I. Lotan, N. Nair, B. Peters, E. I. Proynov, P. A. Pieniazek, 
 Y. M. Rhee, J. Ritchie, E. Rosta, C. D. Sherrill, 
 A. C. Simmonett, J. E. Subotnik, H. L. Woodcock III,
 W. Zhang, A. T. Bell, A. K. Chakraborty, D. M. Chipman,
 F. J. Keil, A. Warshel, W. J. Hehre, H. F. Schaefer III,
 J. Kong, A. I. Krylov, P. M. W. Gill, M. Head-Gordon,
 Q-Chem, Version 3.1, Q-Chem, Inc., Pittsburgh, PA (2007).

 Additional authors for Version 3.1: 
 Z. Gan, Y. Zhao, N. E. Schultz, D. Truhlar, E. Epifanovsky and M. Oana.

 Additional authors for Version 3.2: 
 R. Baer, B. R. Brooks, D. Casanova, J.-D. Chai, C.-L. Cheng, 
 C. Cramer, D. Crittenden, A. Ghysels, G. Hawkins, E. G. Hohenstein, 
 C. Kelley, W. Kurlancheek, D. Liotard, E. Livshits, P. Manohar, 
 A. Marenich, D. Neuhauser, R. Olson, M. A. Rohrdanz, K. S. Thanthiriwatte, 
 A. J. W. Thom, V. Vanovschi, C. F. Williams, Q. Wu and Z.-Q. You. 


 Intel X86 Linux Version

 Q-chem begins on Wed Jul 24 16:05:18 2013  

 Parallel job on  1  processors
Processing $rem in /usr/local/qchem/config/preferences.

theFileMan(): MAXOPENFILES=974 MAX_SUB_FILE_NUM=16
Maximum size of a physical file is 2.0 GB, maximum size of a tmp-file is 32.0 GB


--------------------------------------------------------------
User input:
--------------------------------------------------------------

$molecule 
READ 
$end 

$rem
   EXCHANGE B3LYP
   UNRESTRICTED TRUE
   SYMMETRY_DECOMPOSITION       0
   BASIS                   g3large
   JOBTYPE                 freq
   mem_static              760
   max_scf_cycles          200
   scf_final_print         1
   sym_ignore              true
   JOBTYPE                 freq
   IDERIV 1
   SCF_GUESS READ
$end
--------------------------------------------------------------
 Writing REM_CC_EA            7
 ----------------------------------------------------
       Standard Nuclear Orientation (Angstroms)
    I     Atom         X            Y            Z
 ----------------------------------------------------
    1      C       0.000855     0.000000    -0.006000
    2      N       0.020952     0.000000     1.457067
    3      H       0.987849     0.000000    -0.485348
    4      H       0.502676    -0.813876     1.816306
    5      H       0.502676     0.813876     1.816306
    6      H      -0.542195    -0.877316    -0.357373
    7      H      -0.542195     0.877316    -0.357373
 ----------------------------------------------------
 Nuclear Repulsion Energy =    42.0136758267 hartrees
 There are        9 alpha and        9 beta electrons
 Requested basis set is G3large
 There are 50 shells and 134 basis functions

Total QAlloc Memory Limit   2000 MB
Mega-Array Size       759 MB
MEM_STATIC part       760 MB

                       Distance Matrix (Angstroms)
             C (  1)   N (  2)   H (  3)   H (  4)   H (  5)   H (  6)
   N (  2)  1.463204
   H (  3)  1.097239  2.169762
   H (  4)  2.057916  1.011685  2.489057
   H (  5)  2.057916  1.011685  2.489057  1.627753
   H (  6)  1.089977  2.092609  1.768360  2.412605  2.945636
   H (  7)  1.089977  2.092609  1.768360  2.945636  2.412605  1.754632

 
 A cutoff of  1.0D-11 yielded   1271 shell pairs
 There are   9167 function pairs ( 10914 Cartesian)
Evaluating contribution to one-electron hamiltonian from nuclear
 Smallest overlap matrix eigenvalue = 4.98E-04
 Multipole matrices computed through 2nd order
 Guess MOs from SCF MO coefficient file
Reading MOs from coefficient file
Reading MOs from coefficient file
 An unrestricted hybrid HF-DFT SCF calculation will be
 performed using Pulay DIIS extrapolation
 Exchange:     0.2000 Hartree-Fock + 0.0800 Slater + 0.7200 Becke88
 Correlation:  0.8100 LYP + 0.1900 VWN1RPA
 Using SG-1 standard quadrature grid
 SCF converges when DIIS error is below 1.0E-08
 ---------------------------------------
  Cycle       Energy         DIIS Error
 ---------------------------------------
    1     -95.9004107083      1.98E-09
    2     -95.9004107079      2.02E-09 Convergence criterion met
 ---------------------------------------
 One-Electron    Energy =  -211.5871921169
 Total Coulomb   Energy =    87.9025995108
 Alpha Exchange  Energy =    -1.3566690665
 Beta  Exchange  Energy =    -1.3566690665
 DFT   Exchange  Energy =   -10.7710218275
 DFT Correlation Energy =    -0.7451339680
 Nuclear Repu.   Energy =    42.0136758267
 Nuclear Attr.   Energy =  -307.0697037078
 Kinetic         Energy =    95.4825115910
 <S^2> = 0.0000
 SCF time:  CPU 7.82 s  wall 7.90 s
 Final Alpha MO Eigenvalues
            1           2           3           4           5           6
    1 -14.2923245 -10.1841194  -0.8780133  -0.6636458  -0.4946738  -0.4440091
            7           8           9          10          11          12
    1  -0.4076871  -0.3727204  -0.2436635  -0.0110109   0.0125658   0.0247535
           13          14
    1   0.0344844   0.0584396
 Final Beta MO Eigenvalues
            1           2           3           4           5           6
    1 -14.2923245 -10.1841194  -0.8780133  -0.6636458  -0.4946738  -0.4440091
            7           8           9          10          11          12
    1  -0.4076871  -0.3727204  -0.2436635  -0.0110109   0.0125658   0.0247535
           13          14
    1   0.0344844   0.0584396
 Analysis of SCF Wavefunction
 
 --------------------------------------------------------------
                    Orbital Energies (a.u.)
 --------------------------------------------------------------
 
 Alpha MOs
 -- Occupied --
-14.292 -10.184  -0.878  -0.664  -0.495  -0.444  -0.408  -0.373
 -0.244
 -- Virtual --
 -0.011   0.013   0.025   0.034   0.058   0.071   0.098   0.098
  0.120   0.136   0.156   0.167   0.183   0.185   0.196   0.208
  0.243   0.257   0.295   0.429   0.433   0.491   0.504   0.545
  0.566   0.580   0.592   0.600   0.633   0.648   0.666   0.733
  0.766   0.845   0.856   0.911   0.921   1.008   1.076   1.080
  1.122   1.164   1.184   1.226   1.268   1.278   1.322   1.391
  1.430   1.442   1.477   1.516   1.629   1.646   1.723   1.871
  1.873   2.341   2.373   2.465   2.640   2.717   2.929   3.000
  3.014   3.030   3.100   3.130   3.219   3.244   3.273   3.337
  3.364   3.435   3.455   3.652   3.681   3.694   3.780   3.781
  3.866   3.882   3.901   4.037   4.117   4.124   4.230   4.245
  4.286   4.338   4.439   4.628   4.641   4.762   4.780   4.873
  4.895   5.147   5.201   5.276   5.349   5.520   5.619   5.696
  5.768   6.109   6.448  24.335  28.070  28.107  28.126  35.715
 37.624  38.247  38.319  40.598  40.677  40.707  40.734  40.815
 40.982  41.085  41.189  41.234  41.278
 
 Beta MOs
 -- Occupied --
-14.292 -10.184  -0.878  -0.664  -0.495  -0.444  -0.408  -0.373
 -0.244
 -- Virtual --
 -0.011   0.013   0.025   0.034   0.058   0.071   0.098   0.098
  0.120   0.136   0.156   0.167   0.183   0.185   0.196   0.208
  0.243   0.257   0.295   0.429   0.433   0.491   0.504   0.545
  0.566   0.580   0.592   0.600   0.633   0.648   0.666   0.733
  0.766   0.845   0.856   0.911   0.921   1.008   1.076   1.080
  1.122   1.164   1.184   1.226   1.268   1.278   1.322   1.391
  1.430   1.442   1.477   1.516   1.629   1.646   1.723   1.871
  1.873   2.341   2.373   2.465   2.640   2.717   2.929   3.000
  3.014   3.030   3.100   3.130   3.219   3.244   3.273   3.337
  3.364   3.435   3.455   3.652   3.681   3.694   3.780   3.781
  3.866   3.882   3.901   4.037   4.117   4.124   4.230   4.245
  4.286   4.338   4.439   4.628   4.641   4.762   4.780   4.873
  4.895   5.147   5.201   5.276   5.349   5.520   5.619   5.696
  5.768   6.109   6.448  24.335  28.070  28.107  28.126  35.715
 37.624  38.247  38.319  40.598  40.677  40.707  40.734  40.815
 40.982  41.085  41.189  41.234  41.278
 --------------------------------------------------------------
 
          Ground-State Mulliken Net Atomic Charges

     Atom                 Charge (a.u.)    Spin (a.u.)
  --------------------------------------------------------
      1 C                    -0.312345       0.000000
      2 N                    -0.351954       0.000000
      3 H                     0.093626       0.000000
      4 H                     0.172162       0.000000
      5 H                     0.172162       0.000000
      6 H                     0.113175       0.000000
      7 H                     0.113175       0.000000
  --------------------------------------------------------
  Sum of atomic charges =     0.000000
  Sum of spin   charges =     0.000000

 -----------------------------------------------------------------
                    Cartesian Multipole Moments
 -----------------------------------------------------------------
    Charge (ESU x 10^10)
                 0.0000
    Dipole Moment (Debye)
         X       1.2651      Y       0.0000      Z      -0.3919
       Tot       1.3244
    Quadrupole Moments (Debye-Ang)
        XX     -15.1586     XY       0.0000     YY     -12.7675
        XZ       3.0519     YZ       0.0000     ZZ     -15.1432
    Octapole Moments (Debye-Ang^2)
       XXX      -1.2342    XXY       0.0000    XYY      -0.1967
       YYY       0.0000    XXZ     -10.9585    XYZ       0.0000
       YYZ      -6.9997    XZZ       5.3485    YZZ       0.0000
       ZZZ     -29.2596
    Hexadecapole Moments (Debye-Ang^3)
      XXXX     -27.2391   XXXY       0.0000   XXYY      -8.2574
      XYYY       0.0000   YYYY     -24.5703   XXXZ      -2.0732
      XXYZ       0.0000   XYYZ       1.3406   YYYZ       0.0000
      XXZZ     -26.1043   XYZZ       0.0000   YYZZ     -19.0233
      XZZZ       9.2766   YZZZ       0.0000   ZZZZ    -118.0403
 -----------------------------------------------------------------
 Calculating analytic gradient of the SCF energy
 Gradient of XC Energy
            1           2           3           4           5           6
    1   0.0221885  -0.2280076   0.1620993   0.1133009   0.1133009  -0.0914410
    2   0.0000000  -0.0000000   0.0000000  -0.1935399   0.1935399  -0.1494863
    3   0.0499835  -0.0262082  -0.0791222   0.0891771   0.0891771  -0.0615036
            7
    1  -0.0914410
    2   0.1494863
    3  -0.0615036
 Gradient of SCF Energy
            1           2           3           4           5           6
    1   0.0000223   0.0000040   0.0000238  -0.0000380  -0.0000380   0.0000129
    2   0.0000000  -0.0000000   0.0000000  -0.0000022   0.0000022  -0.0000051
    3  -0.0000845   0.0000597   0.0000337   0.0000008   0.0000008  -0.0000053
            7
    1   0.0000129
    2   0.0000051
    3  -0.0000053
 Max gradient component =       8.447E-05
 RMS gradient           =       2.782E-05
 Gradient time:  CPU 13.15 s  wall 13.42 s
 ######################################################
 ######################################################
 # Starting finite difference calculation for IDERIV  #
 Finite diff step size: 1.89e-03 a.u.
 Writing REM_CC_EA            7
 ----------------------------------------------------
       Standard Nuclear Orientation (Angstroms)
    I     Atom         X            Y            Z
 ----------------------------------------------------
    1      C       0.001855     0.000000    -0.006000
    2      N       0.020952     0.000000     1.457067
    3      H       0.987849     0.000000    -0.485348
    4      H       0.502676    -0.813876     1.816306
    5      H       0.502676     0.813876     1.816306
    6      H      -0.542195    -0.877316    -0.357373
    7      H      -0.542195     0.877316    -0.357373
 ----------------------------------------------------
 Nuclear Repulsion Energy =    42.0138905637 hartrees
 There are        9 alpha and        9 beta electrons

                       Distance Matrix (Angstroms)
             C (  1)   N (  2)   H (  3)   H (  4)   H (  5)   H (  6)
   N (  2)  1.463191
   H (  3)  1.096339  2.169762
   H (  4)  2.057672  1.011685  2.489057
   H (  5)  2.057672  1.011685  2.489057  1.627753
   H (  6)  1.090476  2.092609  1.768360  2.412605  2.945636
   H (  7)  1.090476  2.092609  1.768360  2.945636  2.412605  1.754632

 
 Requested basis set is G3large
 There are 50 shells and 134 basis functions
 A cutoff of  1.0D-11 yielded   1271 shell pairs
 There are   9167 function pairs ( 10914 Cartesian)
Evaluating contribution to one-electron hamiltonian from nuclear
 Smallest overlap matrix eigenvalue = 4.98E-04
 Multipole matrices computed through 2nd order
 Guess MOs from SCF MO coefficient file
Reading MOs from coefficient file
Reading MOs from coefficient file
 An unrestricted hybrid HF-DFT SCF calculation will be
 performed using Pulay DIIS extrapolation
 Exchange:     0.2000 Hartree-Fock + 0.0800 Slater + 0.7200 Becke88
 Correlation:  0.8100 LYP + 0.1900 VWN1RPA
 Using SG-1 standard quadrature grid
 SCF converges when DIIS error is below 1.0E-08
 ---------------------------------------
  Cycle       Energy         DIIS Error
 ---------------------------------------
    1     -95.9003633773      3.08E-05
    2     -95.9004094952      5.36E-06
    3     -95.9004095952      3.25E-06
    4     -95.9004095744      8.77E-07
    5     -95.9004095890      1.54E-07
    6     -95.9004095885      4.64E-08
    7     -95.9004095871      1.95E-08
    8     -95.9004095876      9.88E-10 Convergence criterion met
 ---------------------------------------
 One-Electron    Energy =  -211.5876429730
 Total Coulomb   Energy =    87.9028175843
 Alpha Exchange  Energy =    -1.3566669161
 Beta  Exchange  Energy =    -1.3566669161
 DFT   Exchange  Energy =   -10.7710069070
 DFT Correlation Energy =    -0.7451340233
 Nuclear Repu.   Energy =    42.0138905637
 Nuclear Attr.   Energy =  -307.0701735225
 Kinetic         Energy =    95.4825305495
 <S^2> = 0.0000
 SCF time:  CPU 30.03 s  wall 30.49 s
 Final Alpha MO Eigenvalues
            1           2           3           4           5           6
    1 -14.2923387 -10.1841129  -0.8780381  -0.6636228  -0.4946391  -0.4441495
            7           8           9          10          11          12
    1  -0.4076838  -0.3725203  -0.2437459  -0.0110092   0.0125651   0.0247569
           13          14
    1   0.0344794   0.0584311
 Final Beta MO Eigenvalues
            1           2           3           4           5           6
    1 -14.2923387 -10.1841129  -0.8780381  -0.6636228  -0.4946391  -0.4441495
            7           8           9          10          11          12
    1  -0.4076838  -0.3725203  -0.2437459  -0.0110092   0.0125651   0.0247569
           13          14
    1   0.0344794   0.0584311
 Analysis of SCF Wavefunction
 
 --------------------------------------------------------------
                    Orbital Energies (a.u.)
 --------------------------------------------------------------
 
 Alpha MOs
 -- Occupied --
-14.292 -10.184  -0.878  -0.664  -0.495  -0.444  -0.408  -0.373
 -0.244
 -- Virtual --
 -0.011   0.013   0.025   0.034   0.058   0.071   0.098   0.098
  0.120   0.136   0.156   0.167   0.183   0.185   0.196   0.208
  0.243   0.257   0.295   0.429   0.434   0.491   0.504   0.545
  0.566   0.580   0.592   0.600   0.633   0.648   0.666   0.733
  0.766   0.845   0.856   0.911   0.921   1.008   1.076   1.079
  1.122   1.164   1.185   1.226   1.269   1.278   1.322   1.391
  1.430   1.442   1.477   1.516   1.629   1.646   1.723   1.871
  1.873   2.341   2.373   2.465   2.640   2.717   2.929   3.000
  3.015   3.030   3.100   3.130   3.219   3.244   3.274   3.337
  3.364   3.435   3.456   3.652   3.681   3.694   3.780   3.781
  3.865   3.883   3.901   4.037   4.117   4.124   4.230   4.245
  4.286   4.339   4.439   4.628   4.641   4.762   4.779   4.874
  4.895   5.147   5.201   5.276   5.349   5.520   5.620   5.695
  5.768   6.110   6.448  24.335  28.070  28.108  28.125  35.715
 37.624  38.247  38.319  40.598  40.677  40.707  40.734  40.815
 40.982  41.085  41.189  41.234  41.277
 
 Beta MOs
 -- Occupied --
-14.292 -10.184  -0.878  -0.664  -0.495  -0.444  -0.408  -0.373
 -0.244
 -- Virtual --
 -0.011   0.013   0.025   0.034   0.058   0.071   0.098   0.098
  0.120   0.136   0.156   0.167   0.183   0.185   0.196   0.208
  0.243   0.257   0.295   0.429   0.434   0.491   0.504   0.545
  0.566   0.580   0.592   0.600   0.633   0.648   0.666   0.733
  0.766   0.845   0.856   0.911   0.921   1.008   1.076   1.079
  1.122   1.164   1.185   1.226   1.269   1.278   1.322   1.391
  1.430   1.442   1.477   1.516   1.629   1.646   1.723   1.871
  1.873   2.341   2.373   2.465   2.640   2.717   2.929   3.000
  3.015   3.030   3.100   3.130   3.219   3.244   3.274   3.337
  3.364   3.435   3.456   3.652   3.681   3.694   3.780   3.781
  3.865   3.883   3.901   4.037   4.117   4.124   4.230   4.245
  4.286   4.339   4.439   4.628   4.641   4.762   4.779   4.874
  4.895   5.147   5.201   5.276   5.349   5.520   5.620   5.695
  5.768   6.110   6.448  24.335  28.070  28.108  28.125  35.715
 37.624  38.247  38.319  40.598  40.677  40.707  40.734  40.815
 40.982  41.085  41.189  41.234  41.277
 --------------------------------------------------------------
 
          Ground-State Mulliken Net Atomic Charges

     Atom                 Charge (a.u.)    Spin (a.u.)
  --------------------------------------------------------
      1 C                    -0.312325       0.000000
      2 N                    -0.351972       0.000000
      3 H                     0.093942       0.000000
      4 H                     0.172161       0.000000
      5 H                     0.172161       0.000000
      6 H                     0.113016       0.000000
      7 H                     0.113016       0.000000
  --------------------------------------------------------
  Sum of atomic charges =     0.000000
  Sum of spin   charges =     0.000000

 -----------------------------------------------------------------
                    Cartesian Multipole Moments
 -----------------------------------------------------------------
    Charge (ESU x 10^10)
                 0.0000
    Dipole Moment (Debye)
         X       1.2665      Y       0.0000      Z      -0.3918
       Tot       1.3257
    Quadrupole Moments (Debye-Ang)
        XX     -15.1568     XY       0.0000     YY     -12.7699
        XZ       3.0496     YZ       0.0000     ZZ     -15.1418
    Octapole Moments (Debye-Ang^2)
       XXX      -1.2455    XXY       0.0000    XYY      -0.2005
[...]
    1  -0.0034714  -0.0008485  -0.0198354  -0.1153390  -0.1058374  -0.0356028
    2   0.0007066   0.0030352  -0.0335555  -0.1070018  -0.2214900  -0.0565017
    3   0.0067123   0.0022820  -0.0161886  -0.0386162  -0.0639200  -0.0682526
    4  -0.1123765  -0.1327129  -0.0669864   0.0020091   0.0014258  -0.0159225
    5  -0.1737439  -0.2976030  -0.0861374   0.0009377   0.0027289  -0.0328497
    6  -0.0911692  -0.0988686  -0.0908630  -0.0021046  -0.0011441  -0.0193013
    7   0.0013010   0.0004761   0.0006691  -0.0155448   0.0002667   0.0051511
    8   0.0011879  -0.0000286  -0.0006300  -0.0252835   0.0009980   0.0101827
    9   0.0003750   0.0008087   0.0010821  -0.0077202   0.0011303   0.0048571
   10   0.0052438  -0.0197303   0.0080923  -0.0002132   0.0002141  -0.0006382
   11   0.0197303  -0.0266423   0.0119044  -0.0001682   0.0004001   0.0000761
   12   0.0080913  -0.0119056   0.0051311  -0.0003922  -0.0005211   0.0013159
   13   0.1089560   0.1518865   0.0781500   0.0005612   0.0004474  -0.0015182
   14   0.1518865   0.3186846   0.1069418   0.0007610   0.0021543   0.0008238
   15   0.0781500   0.1069418   0.1068030   0.0003016   0.0009587  -0.0072784
   16   0.0005612   0.0007610   0.0003016   0.1192831   0.1171215   0.0424175
   17   0.0004474   0.0021543   0.0009587   0.1171215   0.2358721   0.0708839
   18  -0.0015182   0.0008238  -0.0072784   0.0424175   0.0708839   0.0851910
   19  -0.0002132   0.0001677  -0.0003907   0.0092460  -0.0136342   0.0061153
   20  -0.0002153   0.0003986   0.0005176   0.0136331  -0.0206629   0.0073852
   21  -0.0006387  -0.0000772   0.0013166   0.0061152  -0.0073856   0.0034702
           19          20          21
    1  -0.1153380   0.1058386  -0.0356024
    2   0.1070022  -0.2214907   0.0565020
    3  -0.0386165   0.0639225  -0.0682521
    4   0.0020084  -0.0014245  -0.0159221
    5  -0.0009364   0.0027287   0.0328517
    6  -0.0021036   0.0011441  -0.0193013
    7  -0.0155450  -0.0002669   0.0051508
    8   0.0252838   0.0009971  -0.0101822
    9  -0.0077201  -0.0011310   0.0048571
   10   0.0005614  -0.0004473  -0.0015180
   11  -0.0007614   0.0021556  -0.0008243
   12   0.0003014  -0.0009595  -0.0072787
   13  -0.0002132  -0.0002153  -0.0006387
   14   0.0001677   0.0003986  -0.0000772
   15  -0.0003907   0.0005176   0.0013166
   16   0.0092460   0.0136331   0.0061152
   17  -0.0136342  -0.0206629  -0.0073856
   18   0.0061153   0.0073852   0.0034702
   19   0.1192825  -0.1171213   0.0424171
   20  -0.1171213   0.2358731  -0.0708841
   21   0.0424171  -0.0708841   0.0851911
 Writing REM_CC_EA            7
 ----------------------------------------------------
       Standard Nuclear Orientation (Angstroms)
    I     Atom         X            Y            Z
 ----------------------------------------------------
    1      C       0.000855     0.000000    -0.006000
    2      N       0.020952     0.000000     1.457067
    3      H       0.987849     0.000000    -0.485348
    4      H       0.502676    -0.813876     1.816306
    5      H       0.502676     0.813876     1.816306
    6      H      -0.542195    -0.877316    -0.357373
    7      H      -0.542195     0.877316    -0.357373
 ----------------------------------------------------
 Nuclear Repulsion Energy =    42.0136758267 hartrees
 There are        9 alpha and        9 beta electrons
 old dipole drv.
            1           2           3           4           5           6
    1   0.2820090   0.0000141  -0.0559211  -0.4812152  -0.0000044   0.1354324
    2  -0.0000001   0.1591576  -0.0000081  -0.0000008  -0.2582052  -0.0000062
    3   0.0055590   0.0000131   0.5862932   0.1153172   0.0000189  -0.6686531
            7           8           9          10          11          12
    1  -0.1654161  -0.0000050   0.0962168   0.1694101   0.0936709  -0.0609684
    2   0.0000007   0.0593513  -0.0000126   0.1189670   0.0947369  -0.0110444
    3   0.1700668   0.0000113  -0.1537242  -0.1100848   0.0082703   0.1279078
           13          14          15          16          17          18
    1   0.1694057  -0.0936725  -0.0609399   0.0129361  -0.0856767  -0.0268524
    2  -0.1189577   0.0947484   0.0109869  -0.0911106  -0.0748935  -0.0316494
    3  -0.1100909  -0.0082729   0.1279508  -0.0353354  -0.0897789  -0.0097540
           19          20          21
    1   0.0129034   0.0856676  -0.0268467
    2   0.0911101  -0.0749168   0.0316400
    3  -0.0353297   0.0897380  -0.0097635
 New transposed dipole drv.
            1           2           3
    1   0.2820090  -0.0000001   0.0055590
    2   0.0000141   0.1591576   0.0000131
    3  -0.0559211  -0.0000081   0.5862932
    4  -0.4812152  -0.0000008   0.1153172
    5  -0.0000044  -0.2582052   0.0000189
    6   0.1354324  -0.0000062  -0.6686531
    7  -0.1654161   0.0000007   0.1700668
    8  -0.0000050   0.0593513   0.0000113
    9   0.0962168  -0.0000126  -0.1537242
   10   0.1694101   0.1189670  -0.1100848
   11   0.0936709   0.0947369   0.0082703
   12  -0.0609684  -0.0110444   0.1279078
   13   0.1694057  -0.1189577  -0.1100909
   14  -0.0936725   0.0947484  -0.0082729
   15  -0.0609399   0.0109869   0.1279508
   16   0.0129361  -0.0911106  -0.0353354
   17  -0.0856767  -0.0748935  -0.0897789
   18  -0.0268524  -0.0316494  -0.0097540
   19   0.0129034   0.0911101  -0.0353297
   20   0.0856676  -0.0749168   0.0897380
   21  -0.0268467   0.0316400  -0.0097635
FINAL TENSOR RESULT:
Order 2, Length 21
Order 1, Length 21
   0.5496755  -0.0000004   0.0111155  -0.0604952  -0.0000010   0.0175409  -0.2515615  -0.0000001   0.0822187  -0.0034716   0.0008492  -0.0198357  -0.0034714  -0.0008485  -0.0198354  -0.1153390  -0.1058374  -0.0356028  -0.1153380   0.1058386  -0.0356024
Order 1, Length 21
  -0.0000004   0.5916047  -0.0000003  -0.0000003  -0.1011679  -0.0000007  -0.0000001  -0.0535255   0.0000006  -0.0007065   0.0030344   0.0335587   0.0007066   0.0030352  -0.0335555  -0.1070018  -0.2214900  -0.0565017   0.1070022  -0.2214907   0.0565020
Order 1, Length 21
   0.0111155  -0.0000003   0.4673767  -0.0288632   0.0000000  -0.2152765   0.0815527  -0.0000009  -0.0832269   0.0067122  -0.0022824  -0.0161880   0.0067123   0.0022820  -0.0161886  -0.0386162  -0.0639200  -0.0682526  -0.0386165   0.0639225  -0.0682521
Order 1, Length 21
  -0.0604952  -0.0000003  -0.0288632   0.2718890   0.0000005   0.1653325   0.0093402  -0.0000002   0.0293409  -0.1123766   0.1327122  -0.0669853  -0.1123765  -0.1327129  -0.0669864   0.0020091   0.0014258  -0.0159225   0.0020084  -0.0014245  -0.0159221
Order 1, Length 21
  -0.0000010  -0.1011679   0.0000000   0.0000005   0.6874439  -0.0000025  -0.0000008   0.0034722   0.0000013   0.1737436  -0.2976017   0.0861389  -0.1737439  -0.2976030  -0.0861374   0.0009377   0.0027289  -0.0328497  -0.0009364   0.0027287   0.0328517
Order 1, Length 21
   0.0175409  -0.0000007  -0.2152765   0.1653325  -0.0000025   0.4658052   0.0036693  -0.0000006  -0.0302088  -0.0911688   0.0988706  -0.0908603  -0.0911692  -0.0988686  -0.0908630  -0.0021046  -0.0011441  -0.0193013  -0.0021036   0.0011441  -0.0193013
Order 1, Length 21
  -0.2515615  -0.0000001   0.0815527   0.0093402  -0.0000008   0.0036693   0.2707054  -0.0000003  -0.0968678   0.0013012  -0.0004758   0.0006711   0.0013010   0.0004761   0.0006691  -0.0155448   0.0002667   0.0051511  -0.0155450  -0.0002669   0.0051508
Order 1, Length 21
  -0.0000001  -0.0535255  -0.0000009  -0.0000002   0.0034722  -0.0000006  -0.0000003   0.0481156   0.0000003  -0.0011876  -0.0000291   0.0006305   0.0011879  -0.0000286  -0.0006300  -0.0252835   0.0009980   0.0101827   0.0252838   0.0009971  -0.0101822
Order 1, Length 21
   0.0822187   0.0000006  -0.0832269   0.0293409   0.0000013  -0.0302088  -0.0968678   0.0000003   0.1015609   0.0003755  -0.0008096   0.0010813   0.0003750   0.0008087   0.0010821  -0.0077202   0.0011303   0.0048571  -0.0077201  -0.0011310   0.0048571
Order 1, Length 21
  -0.0034716  -0.0007065   0.0067122  -0.1123766   0.1737436  -0.0911688   0.0013012  -0.0011876   0.0003755   0.1089559  -0.1518856   0.0781496   0.0052438  -0.0197303   0.0080923  -0.0002132   0.0002141  -0.0006382   0.0005614  -0.0004473  -0.0015180
Order 1, Length 21
   0.0008492   0.0030344  -0.0022824   0.1327122  -0.2976017   0.0988706  -0.0004758  -0.0000291  -0.0008096  -0.1518856   0.3186834  -0.1069420   0.0197303  -0.0266423   0.0119044  -0.0001682   0.0004001   0.0000761  -0.0007614   0.0021556  -0.0008243
Order 1, Length 21
  -0.0198357   0.0335587  -0.0161880  -0.0669853   0.0861389  -0.0908603   0.0006711   0.0006305   0.0010813   0.0781496  -0.1069420   0.1068027   0.0080913  -0.0119056   0.0051311  -0.0003922  -0.0005211   0.0013159   0.0003014  -0.0009595  -0.0072787
Order 1, Length 21
  -0.0034714   0.0007066   0.0067123  -0.1123765  -0.1737439  -0.0911692   0.0013010   0.0011879   0.0003750   0.0052438   0.0197303   0.0080913   0.1089560   0.1518865   0.0781500   0.0005612   0.0004474  -0.0015182  -0.0002132  -0.0002153  -0.0006387
Order 1, Length 21
  -0.0008485   0.0030352   0.0022820  -0.1327129  -0.2976030  -0.0988686   0.0004761  -0.0000286   0.0008087  -0.0197303  -0.0266423  -0.0119056   0.1518865   0.3186846   0.1069418   0.0007610   0.0021543   0.0008238   0.0001677   0.0003986  -0.0000772
Order 1, Length 21
  -0.0198354  -0.0335555  -0.0161886  -0.0669864  -0.0861374  -0.0908630   0.0006691  -0.0006300   0.0010821   0.0080923   0.0119044   0.0051311   0.0781500   0.1069418   0.1068030   0.0003016   0.0009587  -0.0072784  -0.0003907   0.0005176   0.0013166
Order 1, Length 21
  -0.1153390  -0.1070018  -0.0386162   0.0020091   0.0009377  -0.0021046  -0.0155448  -0.0252835  -0.0077202  -0.0002132  -0.0001682  -0.0003922   0.0005612   0.0007610   0.0003016   0.1192831   0.1171215   0.0424175   0.0092460   0.0136331   0.0061152
Order 1, Length 21
  -0.1058374  -0.2214900  -0.0639200   0.0014258   0.0027289  -0.0011441   0.0002667   0.0009980   0.0011303   0.0002141   0.0004001  -0.0005211   0.0004474   0.0021543   0.0009587   0.1171215   0.2358721   0.0708839  -0.0136342  -0.0206629  -0.0073856
Order 1, Length 21
  -0.0356028  -0.0565017  -0.0682526  -0.0159225  -0.0328497  -0.0193013   0.0051511   0.0101827   0.0048571  -0.0006382   0.0000761   0.0013159  -0.0015182   0.0008238  -0.0072784   0.0424175   0.0708839   0.0851910   0.0061153   0.0073852   0.0034702
Order 1, Length 21
  -0.1153380   0.1070022  -0.0386165   0.0020084  -0.0009364  -0.0021036  -0.0155450   0.0252838  -0.0077201   0.0005614  -0.0007614   0.0003014  -0.0002132   0.0001677  -0.0003907   0.0092460  -0.0136342   0.0061153   0.1192825  -0.1171213   0.0424171
Order 1, Length 21
   0.1058386  -0.2214907   0.0639225  -0.0014245   0.0027287   0.0011441  -0.0002669   0.0009971  -0.0011310  -0.0004473   0.0021556  -0.0009595  -0.0002153   0.0003986   0.0005176   0.0136331  -0.0206629   0.0073852  -0.1171213   0.2358731  -0.0708841
Order 1, Length 21
  -0.0356024   0.0565020  -0.0682521  -0.0159221   0.0328517  -0.0193013   0.0051508  -0.0101822   0.0048571  -0.0015180  -0.0008243  -0.0072787  -0.0006387  -0.0000772   0.0013166   0.0061152  -0.0073856   0.0034702   0.0424171  -0.0708841   0.0851911


 # Finishing finite difference calculation for IDERIV #
 ######################################################
 ######################################################
 Requested basis set is G3large
 There are 50 shells and 134 basis functions
 **********************************************************************
 **                                                                  **
 **                       VIBRATIONAL ANALYSIS                       **
 **                       --------------------                       **
 **                                                                  **
 **        VIBRATIONAL FREQUENCIES (CM**-1) AND NORMAL MODES         **
 **     FORCE CONSTANTS (mDYN/ANGSTROM) AND REDUCED MASSES (AMU)     **
 **                  INFRARED INTENSITIES (KM/MOL)                   **
 **                                                                  **
 **********************************************************************
 

 Mode:                 1                      2                      3
 Frequency:       298.03                 814.89                 972.90
 Force Cnst:      0.0539                 0.4813                 0.5848
 Red. Mass:       1.0292                 1.2301                 1.0486
 IR Active:          YES                    YES                    YES
 IR Intens:       33.298                159.920                  0.112
 Raman Active:       YES                    YES                    YES
               X      Y      Z        X      Y      Z        X      Y      Z
 C          0.000  0.003  0.000   -0.009  0.000 -0.036    0.000 -0.060  0.000
 N          0.000  0.040  0.000   -0.088  0.000  0.091    0.000 -0.008  0.000
 H          0.000  0.307  0.000    0.106  0.000  0.220    0.000  0.270  0.000
 H         -0.502 -0.252  0.010    0.518  0.106 -0.394   -0.105  0.130  0.449
 H          0.502 -0.252 -0.010    0.518 -0.106 -0.394    0.105  0.130 -0.449
 H          0.306 -0.202  0.047    0.093 -0.019 -0.134   -0.035  0.151 -0.457
 H         -0.306 -0.202 -0.047    0.093  0.019 -0.134    0.035  0.151  0.457
 TransDip   0.000 -0.185  0.000    0.283  0.000 -0.290    0.000  0.011  0.000

 Mode:                 4                      5                      6
 Frequency:      1055.20                1165.08                1343.06
 Force Cnst:      2.4058                 1.0981                 1.4389
 Red. Mass:       3.6672                 1.3730                 1.3539
 IR Active:          YES                    YES                    YES
 IR Intens:       12.636                  5.689                  0.019
 Raman Active:       YES                    YES                    YES
               X      Y      Z        X      Y      Z        X      Y      Z
 C         -0.030  0.000  0.357   -0.142  0.000 -0.034    0.000  0.139  0.000
 N         -0.010  0.000 -0.310    0.097  0.000  0.025    0.000 -0.102  0.000
 H          0.107  0.000  0.592    0.176  0.000  0.630    0.000 -0.300  0.000
 H          0.073  0.014 -0.410   -0.142 -0.076  0.121   -0.049  0.108  0.534
 H          0.073 -0.014 -0.410   -0.142  0.076  0.121    0.049  0.108 -0.534
 H          0.120 -0.012  0.138    0.232 -0.078 -0.413    0.122 -0.077  0.347
 H          0.120  0.011  0.137    0.232  0.078 -0.413   -0.121 -0.077 -0.347
 TransDip   0.025  0.000  0.111   -0.073  0.000 -0.023    0.000 -0.004  0.000

 Mode:                 7                      8                      9
 Frequency:      1461.39                1502.14                1521.39
 Force Cnst:      1.4599                 1.3978                 1.4105
 Red. Mass:       1.1602                 1.0514                 1.0343
 IR Active:          YES                    YES                    YES
 IR Intens:        1.835                  6.950                  4.628
 Raman Active:       YES                    YES                    YES
               X      Y      Z        X      Y      Z        X      Y      Z
 C         -0.025  0.000 -0.114   -0.052  0.000  0.033    0.000 -0.043  0.000
 N         -0.001  0.000 -0.014   -0.012  0.000  0.003    0.000 -0.021  0.000
 H          0.207  0.000  0.412   -0.236  0.000 -0.452    0.000  0.686  0.000
 H         -0.005  0.012  0.024    0.004  0.002 -0.010   -0.006  0.009  0.079
 H         -0.005 -0.012  0.024    0.004 -0.002 -0.010    0.006  0.009 -0.079
 H          0.053 -0.289  0.547    0.507 -0.331  0.019   -0.348  0.054  0.365
 H          0.052  0.289  0.547    0.507  0.331  0.019    0.348  0.054 -0.365
 TransDip   0.021  0.000 -0.038    0.056  0.000  0.063    0.000  0.069  0.000

 Mode:                10                     11                     12
 Frequency:      1665.06                2971.18                3061.99
 Force Cnst:      1.7716                 5.5047                 5.9363
 Red. Mass:       1.0846                 1.0583                 1.0746
 IR Active:          YES                    YES                    YES
 IR Intens:       23.756                 92.678                 31.938
 Raman Active:       YES                    YES                    YES
               X      Y      Z        X      Y      Z        X      Y      Z
 C         -0.020  0.000  0.005   -0.056  0.000  0.039   -0.073  0.000 -0.027
 N         -0.029  0.000 -0.069    0.000  0.000  0.002    0.001  0.000  0.001
 H         -0.009  0.000  0.037    0.877  0.000 -0.391    0.210  0.000 -0.101
 H          0.312  0.407  0.481    0.002  0.006  0.001   -0.007  0.012 -0.004
 H          0.312 -0.407  0.481    0.002 -0.006  0.001   -0.007 -0.012 -0.004
 H          0.009  0.005 -0.050   -0.112 -0.146 -0.052    0.329  0.563  0.211
 H          0.009 -0.005 -0.050   -0.112  0.146 -0.052    0.329 -0.563  0.211
 TransDip   0.124  0.000  0.095   -0.169  0.000  0.258   -0.157  0.000 -0.090

 Mode:                13                     14                     15
 Frequency:      3096.74                3506.38                3581.47
 Force Cnst:      6.2333                 7.5973                 8.2666
 Red. Mass:       1.1032                 1.0488                 1.0938
 IR Active:          YES                    YES                    YES
 IR Intens:       28.946                  0.722                  2.242
 Raman Active:       YES                    YES                    YES
               X      Y      Z        X      Y      Z        X      Y      Z
 C          0.000 -0.093  0.000    0.003  0.000 -0.001    0.000 -0.002  0.000
 N          0.000  0.002  0.000    0.042  0.000  0.037    0.000 -0.081  0.000
 H          0.000 -0.024  0.000   -0.010  0.000 -0.001    0.000  0.000  0.000
 H          0.010 -0.014  0.001   -0.302  0.588 -0.247   -0.335  0.566 -0.252
 H         -0.010 -0.014 -0.001   -0.302 -0.588 -0.247    0.335  0.566  0.252
 H          0.360  0.563  0.219   -0.006 -0.011 -0.002    0.008  0.013  0.005
 H         -0.360  0.563 -0.219   -0.006  0.011 -0.002   -0.008  0.013 -0.005
 TransDip   0.000 -0.172  0.000    0.026  0.000 -0.006    0.000  0.048  0.000

 STANDARD THERMODYNAMIC QUANTITIES AT   298.18 K  AND     1.00 ATM

   This Molecule has  0 Imaginary Frequencies
   Zero point vibrational energy:       40.052 kcal/mol

   Atom    1 Element C  Has Mass   12.00000
   Atom    2 Element N  Has Mass   14.00307
   Atom    3 Element H  Has Mass    1.00783
   Atom    4 Element H  Has Mass    1.00783
   Atom    5 Element H  Has Mass    1.00783
   Atom    6 Element H  Has Mass    1.00783
   Atom    7 Element H  Has Mass    1.00783
   Molecular Mass:    31.042220 amu
   Principal axes and moments of inertia in atomic units:
                             1           2           3
    Eigenvalues --       17.28453    79.26470    82.59653
          X               0.07016     0.00000     0.99754
          Y               0.00000     1.00000     0.00000
          Z               0.99754     0.00000    -0.07016
   Rotational Symmetry Number is   1
   The Molecule is an Asymmetric Top
   Translational Enthalpy:        0.889 kcal/mol
   Rotational Enthalpy:           0.889 kcal/mol
   Vibrational Enthalpy:         40.437 kcal/mol
   gas constant (RT):             0.593 kcal/mol
   Translational Entropy:        36.231  cal/mol.K
   Rotational Entropy:           19.365  cal/mol.K
   Vibrational Entropy:           1.916  cal/mol.K

   Total Enthalpy:               42.808 kcal/mol
   Total Entropy:                57.512  cal/mol.K
 Total job time:  1802.93s(wall), 1785.48s(cpu) 
 Wed Jul 24 16:35:21 2013

        *************************************************************
        *                                                           *
        *  Thank you very much for using Q-Chem.  Have a nice day.  *
        *                                                           *
        *************************************************************


0 sent ACK to 0 
now end server 0 ... 
