Process 0 of 1 is on cl201.stfx.acenet.ca - thread support 1
initial socket setup ...start
initial socket setup ...done 
now start server 0 ... 

cmd = /usr/bin/ssh clhead /usr/local/qchem/bin/get_hostid 577168956 > /scratch/tmp/6065194.1.medium.q/qchem29394/lic.dat
                  Welcome to Q-Chem
     A Quantum Leap Into The Future Of Chemistry

 Y. Shao, L. Fusti-Molnar, Y. Jung, J. Kussmann, C. Ochsenfeld,
 S. T. Brown, A. T. B. Gilbert, L. V. Slipchenko,S. V. Levchenko,
 D. P. O'Neill, R. A. DiStasio Jr., R. C. Lochan, T. Wang,
 G. J. O. Beran, N. A. Besley, J. M. Herbert, C. Y. Lin,
 T. Van Voorhis, S. H. Chien, A. Sodt, R. P. Steele, 
 V. A. Rassolov, P. E. Maslen, P. P. Korambath, R. D. Adamson,
 B. Austin, J. Baker, E. F. C. Byrd, H. Dachsel, R. J. Doerksen,
 A. Dreuw, B. D. Dunietz, A. D. Dutoi, T. R. Furlani,
 S. R. Gwaltney, A. Heyden, S. Hirata, C.-P. Hsu, G. Kedziora,
 R. Z. Khaliullin, P. Klunzinger, A. M. Lee, M. S. Lee, W. Liang,
 I. Lotan, N. Nair, B. Peters, E. I. Proynov, P. A. Pieniazek, 
 Y. M. Rhee, J. Ritchie, E. Rosta, C. D. Sherrill, 
 A. C. Simmonett, J. E. Subotnik, H. L. Woodcock III,
 W. Zhang, A. T. Bell, A. K. Chakraborty, D. M. Chipman,
 F. J. Keil, A. Warshel, W. J. Hehre, H. F. Schaefer III,
 J. Kong, A. I. Krylov, P. M. W. Gill, M. Head-Gordon,
 Q-Chem, Version 3.1, Q-Chem, Inc., Pittsburgh, PA (2007).

 Additional authors for Version 3.1: 
 Z. Gan, Y. Zhao, N. E. Schultz, D. Truhlar, E. Epifanovsky and M. Oana.

 Additional authors for Version 3.2: 
 R. Baer, B. R. Brooks, D. Casanova, J.-D. Chai, C.-L. Cheng, 
 C. Cramer, D. Crittenden, A. Ghysels, G. Hawkins, E. G. Hohenstein, 
 C. Kelley, W. Kurlancheek, D. Liotard, E. Livshits, P. Manohar, 
 A. Marenich, D. Neuhauser, R. Olson, M. A. Rohrdanz, K. S. Thanthiriwatte, 
 A. J. W. Thom, V. Vanovschi, C. F. Williams, Q. Wu and Z.-Q. You. 


 Intel X86 Linux Version

 Q-chem begins on Mon Jul  8 16:56:19 2013  

 Parallel job on  1  processors
Processing $rem in /usr/local/qchem/config/preferences.

theFileMan(): MAXOPENFILES=974 MAX_SUB_FILE_NUM=16
Maximum size of a physical file is 2.0 GB, maximum size of a tmp-file is 32.0 GB


--------------------------------------------------------------
User input:
--------------------------------------------------------------

$molecule
-1,2
C          0.00000        0.00000        0.00151
C          1.26338        0.00000        0.84479
C         -1.26338        0.00000        0.84479
H          0.00000       -0.87354       -0.65601
H          0.00000        0.87354       -0.65601
H          2.16143        0.00000        0.22538
H         -2.16143        0.00000        0.22538
H          1.30379        0.88043        1.48984
H          1.30379       -0.88043        1.48984
H         -1.30379       -0.88043        1.48984
H         -1.30379        0.88043        1.48984
$end

$comment
negative
$end

$xc_functional
C PBE   1.00
X wPBE  1.00
$end

$rem
SYMMETRY_DECOMPOSITION	0
exchange 		general
LRC_DFT                 true
BASIS                   g3large
omega			360
mem_static              760
max_scf_cycles          200
scf_final_print         1
sym_ignore              true
$end

--------------------------------------------------------------
 Writing REM_CC_EA           11
 ----------------------------------------------------
       Standard Nuclear Orientation (Angstroms)
    I     Atom         X            Y            Z
 ----------------------------------------------------
    1      C       0.000000     0.000000     0.001510
    2      C       1.263380     0.000000     0.844790
    3      C      -1.263380     0.000000     0.844790
    4      H       0.000000    -0.873540    -0.656010
    5      H       0.000000     0.873540    -0.656010
    6      H       2.161430     0.000000     0.225380
    7      H      -2.161430     0.000000     0.225380
    8      H       1.303790     0.880430     1.489840
    9      H       1.303790    -0.880430     1.489840
   10      H      -1.303790    -0.880430     1.489840
   11      H      -1.303790     0.880430     1.489840
 ----------------------------------------------------
 Nuclear Repulsion Energy =    82.8683654637 hartrees
 There are       14 alpha and       13 beta electrons
 Requested basis set is G3large
 There are 78 shells and 206 basis functions

Total QAlloc Memory Limit   2000 MB
Mega-Array Size       743 MB
MEM_STATIC part       760 MB

                       Distance Matrix (Angstroms)
             C (  1)   C (  2)   C (  3)   H (  4)   H (  5)   H (  6)
   C (  2)  1.518964
   C (  3)  1.518964  2.526760
   H (  4)  1.093346  2.147464  2.147464
   H (  5)  1.093346  2.147464  2.147464  1.747080
   H (  6)  2.172993  1.090946  3.480372  2.492328  2.492328
   H (  7)  2.172993  3.480372  1.090946  2.492328  2.492328  4.322860
   H (  8)  2.165676  1.092190  2.789553  3.062834  2.510894  1.763395
   H (  9)  2.165676  1.092190  2.789553  2.510894  3.062834  1.763395
   H ( 10)  2.165676  2.789553  1.092190  2.510894  3.062834  3.792330
   H ( 11)  2.165676  2.789553  1.092190  3.062834  2.510894  3.792330
             H (  7)   H (  8)   H (  9)   H ( 10)
   H (  8)  3.792330
   H (  9)  3.792330  1.760860
   H ( 10)  1.763395  3.146443  2.607580
   H ( 11)  1.763395  2.607580  3.146443  1.760860
 
 A cutoff of  1.0D-08 yielded   2950 shell pairs
 There are  20630 function pairs ( 24481 Cartesian)
Evaluating contribution to one-electron hamiltonian from nuclear
 Smallest overlap matrix eigenvalue = 5.80E-05

 Q-Chem warning in module mkSTV.C, line 194:

 Overlap eigenvalue is smaller than square root of threshold

 Multipole matrices computed through 2nd order

  Scale SEOQF with 1.000000e-01/1.000000e-01/1.000000e-01

 Standard Electronic Orientation quadrupole field applied
 Nucleus-field energy     =    -0.0000000004 hartrees
 Guess from superposition of atomic densities
 Warning:  Energy on first SCF cycle will be non-variational
 Long-range K will be added via erf
 Coulomb attenuation parameter = 0.36 bohr**(-1)
 An unrestricted Kohn-Sham SCF calculation will be
 performed using Pulay DIIS extrapolation
 Exchange:  wPBE + LR-HF      Correlation:  PBE
 Using SG-1 standard quadrature grid
 SCF converges when DIIS error is below 1.0E-05
 Requested basis set is G3large
 There are 78 shells and 206 basis functions
 A cutoff of  1.0D-08 yielded   2950 shell pairs
 There are  20630 function pairs ( 24481 Cartesian)
 Warning!  Inaccurate integrated density:
   Number of electrons =    27
   Numerical integral  =    26.000343447435
   Relative error      =    -3.7024316762 %
 ---------------------------------------
  Cycle       Energy         DIIS Error
 ---------------------------------------
    1    -119.8128325051      2.99E-02
    2    -118.9755377069      3.12E-03
    3    -119.0239585951      2.33E-03
    4    -119.0536949004      2.38E-04
    5    -119.0557150291      8.97E-05
    6    -119.0560632226      3.80E-05
    7    -119.0561523512      1.65E-05
    8    -119.0561793753      6.52E-06 Convergence criterion met
 ---------------------------------------
 One-Electron    Energy =  -325.9136391384
 Total Coulomb   Energy =   143.2730296486
 Alpha Exchange  Energy =    -2.4038778232
 Beta  Exchange  Energy =    -2.3455243564
 DFT   Exchange  Energy =   -13.7037582819
 DFT Correlation Energy =    -0.8307748873
 Nuclear Repu.   Energy =    82.8683654633
 Nuclear Attr.   Energy =  -444.4361530408
 Kinetic         Energy =   118.5225139024
 <S^2> = 0.7501
 SCF time:  CPU 136.05 s  wall 136.95 s
 Final Alpha MO Eigenvalues
            1           2           3           4           5           6
    1  -9.9368546  -9.9295729  -9.9295524  -0.7821980  -0.6772915  -0.5758349
            7           8           9          10          11          12
    1  -0.4447509  -0.4236443  -0.3799342  -0.3588399  -0.3128420  -0.3115001
           13          14          15          16          17          18
    1  -0.2981519   0.0328301   0.1290090   0.1360798   0.1370652   0.1698399
           19
    1   0.1743752
 Final Beta MO Eigenvalues
            1           2           3           4           5           6
    1  -9.9365749  -9.9292982  -9.9292775  -0.7816562  -0.6764096  -0.5745194
            7           8           9          10          11          12
    1  -0.4442187  -0.4226697  -0.3792401  -0.3585951  -0.3123378  -0.3102812
           13          14          15          16          17          18
    1  -0.2978056   0.1313932   0.1430335   0.1472460   0.1517923   0.1722595
 Analysis of SCF Wavefunction
 
 --------------------------------------------------------------
                    Orbital Energies (a.u.)
 --------------------------------------------------------------
 
 Alpha MOs
 -- Occupied --
 -9.937  -9.930  -9.930  -0.782  -0.677  -0.576  -0.445  -0.424
 -0.380  -0.359  -0.313  -0.312  -0.298   0.033
 -- Virtual --
  0.129   0.136   0.137   0.170   0.174   0.182   0.185   0.239
  0.251   0.270   0.280   0.281   0.285   0.286   0.300   0.304
  0.313   0.333   0.339   0.380   0.388   0.407   0.410   0.426
  0.447   0.484   0.489   0.502   0.525   0.618   0.621   0.650
  0.677   0.683   0.706   0.726   0.766   0.775   0.782   0.794
  0.800   0.802   0.817   0.829   0.829   0.883   0.885   0.895
  0.937   0.994   1.026   1.034   1.050   1.058   1.122   1.164
  1.214   1.225   1.308   1.309   1.347   1.361   1.386   1.400
  1.402   1.430   1.456   1.456   1.466   1.515   1.549   1.553
  1.566   1.577   1.646   1.648   1.683   1.687   1.691   1.709
  1.757   1.771   1.802   1.829   1.838   1.850   1.873   1.916
  2.589   2.672   2.682   2.740   2.801   2.859   2.863   2.942
  2.952   3.034   3.045   3.056   3.092   3.142   3.159   3.187
  3.259   3.270   3.314   3.325   3.345   3.400   3.408   3.505
  3.527   3.548   3.576   3.589   3.594   3.660   3.672   3.753
  3.771   3.796   3.799   3.901   3.908   3.928   3.973   4.041
  4.048   4.049   4.144   4.186   4.221   4.230   4.236   4.257
  4.298   4.395   4.413   4.435   4.478   4.481   4.484   4.510
  4.551   4.583   4.604   4.673   4.784   4.794   4.811   4.844
  4.847   4.884   4.922   4.996   5.071   5.465   5.634   5.703
  5.867   5.895   5.922   5.950   5.982  24.252  24.376  24.484
 27.737  27.911  28.226  28.232  28.267  28.287  28.367  28.497
 28.593  41.056  41.060  41.064  41.104  41.158  41.164  41.324
 41.326  41.336  41.347  41.409  41.411  41.411  41.422  41.473
 
 Beta MOs
 -- Occupied --
 -9.937  -9.929  -9.929  -0.782  -0.676  -0.575  -0.444  -0.423
 -0.379  -0.359  -0.312  -0.310  -0.298
 -- Virtual --
  0.131   0.143   0.147   0.152   0.172   0.174   0.182   0.185
  0.234   0.244   0.264   0.271   0.274   0.280   0.289   0.298
  0.302   0.308   0.328   0.335   0.378   0.386   0.407   0.409
  0.424   0.445   0.480   0.485   0.500   0.518   0.616   0.618
  0.648   0.675   0.681   0.705   0.724   0.765   0.773   0.780
  0.792   0.798   0.802   0.818   0.828   0.828   0.880   0.882
  0.893   0.937   0.994   1.026   1.035   1.050   1.058   1.123
  1.165   1.214   1.226   1.309   1.309   1.347   1.361   1.385
  1.400   1.402   1.430   1.456   1.457   1.467   1.515   1.549
  1.554   1.566   1.577   1.646   1.649   1.682   1.687   1.691
  1.708   1.758   1.771   1.802   1.829   1.838   1.850   1.874
  1.916   2.589   2.672   2.682   2.740   2.801   2.860   2.863
  2.942   2.952   3.034   3.045   3.056   3.092   3.143   3.159
  3.187   3.259   3.270   3.315   3.326   3.345   3.401   3.409
  3.505   3.528   3.549   3.577   3.590   3.595   3.661   3.672
  3.754   3.771   3.797   3.799   3.901   3.908   3.929   3.974
  4.041   4.049   4.049   4.144   4.186   4.221   4.230   4.236
  4.257   4.298   4.395   4.413   4.436   4.478   4.482   4.485
  4.510   4.551   4.583   4.604   4.673   4.784   4.794   4.811
  4.844   4.848   4.884   4.922   4.996   5.071   5.465   5.634
  5.704   5.867   5.896   5.923   5.950   5.982  24.252  24.376
 24.484  27.737  27.912  28.226  28.232  28.267  28.287  28.367
 28.498  28.593  41.056  41.060  41.065  41.104  41.158  41.165
 41.324  41.326  41.336  41.347  41.409  41.411  41.412  41.422
 41.474
 --------------------------------------------------------------
 
          Ground-State Mulliken Net Atomic Charges

     Atom                 Charge (a.u.)    Spin (a.u.)
  --------------------------------------------------------
      1 C                    -1.233355       1.251842
      2 C                     2.135831      -2.450260
      3 C                     2.134543      -2.449003
      4 H                    -0.470743       0.538442
      5 H                    -0.469395       0.537028
      6 H                    -0.808601       0.893337
      7 H                    -0.806885       0.891590
      8 H                    -0.368004       0.444326
      9 H                    -0.372813       0.449299
     10 H                    -0.368384       0.444767
     11 H                    -0.372194       0.448633
  --------------------------------------------------------
  Sum of atomic charges =    -1.000000
  Sum of spin   charges =     1.000000

 -----------------------------------------------------------------
                    Cartesian Multipole Moments
 -----------------------------------------------------------------
    Charge (ESU x 10^10)
                -4.8032
    Dipole Moment (Debye)
         X      -0.0065      Y       0.0080      Z      -1.5768
       Tot       1.5768
    Quadrupole Moments (Debye-Ang)
        XX     -58.5198     XY       0.0421     YY     -51.1727
        XZ       0.0034     YZ       0.0020     ZZ     -47.8534
    Octapole Moments (Debye-Ang^2)
       XXX      -0.1188    XXY       0.0343    XYY      -0.0253
       YYY       0.0950    XXZ     -22.3710    XYZ       0.0623
       YYZ     -25.1293    XZZ      -0.0238    YZZ       0.0383
       ZZZ     -70.8144
    Hexadecapole Moments (Debye-Ang^3)
      XXXX    -852.8917   XXXY       0.4797   XXYY    -192.0529
      XYYY       0.4375   YYYY    -417.9406   XXXZ       0.0385
      XXYZ       0.0139   XYYZ       0.0048   YYYZ       0.0300
      XXZZ    -200.6378   XYZZ       0.2176   YYZZ    -152.2342
      XZZZ       0.0146   YZZZ       0.0382   ZZZZ    -460.6296
 -----------------------------------------------------------------
 Total job time:  137.23s(wall), 136.31s(cpu) 
 Mon Jul  8 16:58:36 2013

        *************************************************************
        *                                                           *
        *  Thank you very much for using Q-Chem.  Have a nice day.  *
        *                                                           *
        *************************************************************


0 sent ACK to 0 
now end server 0 ... 
 
**********************************************************************
Job 2 of 3 
**********************************************************************
 
Process 0 of 1 is on cl201.stfx.acenet.ca - thread support 1
initial socket setup ...start
initial socket setup ...done 
now start server 0 ... 

cmd = /usr/bin/ssh clhead /usr/local/qchem/bin/get_hostid 2037723719 > /scratch/tmp/6065194.1.medium.q/qchem29394/lic.dat
                  Welcome to Q-Chem
     A Quantum Leap Into The Future Of Chemistry

 Y. Shao, L. Fusti-Molnar, Y. Jung, J. Kussmann, C. Ochsenfeld,
 S. T. Brown, A. T. B. Gilbert, L. V. Slipchenko,S. V. Levchenko,
 D. P. O'Neill, R. A. DiStasio Jr., R. C. Lochan, T. Wang,
 G. J. O. Beran, N. A. Besley, J. M. Herbert, C. Y. Lin,
 T. Van Voorhis, S. H. Chien, A. Sodt, R. P. Steele, 
 V. A. Rassolov, P. E. Maslen, P. P. Korambath, R. D. Adamson,
 B. Austin, J. Baker, E. F. C. Byrd, H. Dachsel, R. J. Doerksen,
 A. Dreuw, B. D. Dunietz, A. D. Dutoi, T. R. Furlani,
 S. R. Gwaltney, A. Heyden, S. Hirata, C.-P. Hsu, G. Kedziora,
 R. Z. Khaliullin, P. Klunzinger, A. M. Lee, M. S. Lee, W. Liang,
 I. Lotan, N. Nair, B. Peters, E. I. Proynov, P. A. Pieniazek, 
 Y. M. Rhee, J. Ritchie, E. Rosta, C. D. Sherrill, 
 A. C. Simmonett, J. E. Subotnik, H. L. Woodcock III,
 W. Zhang, A. T. Bell, A. K. Chakraborty, D. M. Chipman,
 F. J. Keil, A. Warshel, W. J. Hehre, H. F. Schaefer III,
 J. Kong, A. I. Krylov, P. M. W. Gill, M. Head-Gordon,
 Q-Chem, Version 3.1, Q-Chem, Inc., Pittsburgh, PA (2007).

 Additional authors for Version 3.1: 
 Z. Gan, Y. Zhao, N. E. Schultz, D. Truhlar, E. Epifanovsky and M. Oana.

 Additional authors for Version 3.2: 
 R. Baer, B. R. Brooks, D. Casanova, J.-D. Chai, C.-L. Cheng, 
 C. Cramer, D. Crittenden, A. Ghysels, G. Hawkins, E. G. Hohenstein, 
 C. Kelley, W. Kurlancheek, D. Liotard, E. Livshits, P. Manohar, 
 A. Marenich, D. Neuhauser, R. Olson, M. A. Rohrdanz, K. S. Thanthiriwatte, 
 A. J. W. Thom, V. Vanovschi, C. F. Williams, Q. Wu and Z.-Q. You. 


 Intel X86 Linux Version

 Q-chem begins on Mon Jul  8 16:58:39 2013  

 Parallel job on  1  processors
Processing $rem in /usr/local/qchem/config/preferences.

theFileMan(): MAXOPENFILES=974 MAX_SUB_FILE_NUM=16
Maximum size of a physical file is 2.0 GB, maximum size of a tmp-file is 32.0 GB


--------------------------------------------------------------
User input:
--------------------------------------------------------------

$molecule
0,1
C          0.00000        0.00000        0.00151
C          1.26338        0.00000        0.84479
C         -1.26338        0.00000        0.84479
H          0.00000       -0.87354       -0.65601
H          0.00000        0.87354       -0.65601
H          2.16143        0.00000        0.22538
H         -2.16143        0.00000        0.22538
H          1.30379        0.88043        1.48984
H          1.30379       -0.88043        1.48984
H         -1.30379       -0.88043        1.48984
H         -1.30379        0.88043        1.48984
$end

$comment
neutral
$end

$xc_functional
C PBE   1.00
X wPBE  1.00
$end


$rem
SYMMETRY_DECOMPOSITION	0
LRC_DFT                 true
exchange 		general
BASIS                   g3large
omega			360
mem_static              760
max_scf_cycles          200
scf_final_print         1
sym_ignore              true
$end

--------------------------------------------------------------
 Writing REM_CC_EA           11
 ----------------------------------------------------
       Standard Nuclear Orientation (Angstroms)
    I     Atom         X            Y            Z
 ----------------------------------------------------
    1      C       0.000000     0.000000     0.001510
    2      C       1.263380     0.000000     0.844790
    3      C      -1.263380     0.000000     0.844790
    4      H       0.000000    -0.873540    -0.656010
    5      H       0.000000     0.873540    -0.656010
    6      H       2.161430     0.000000     0.225380
    7      H      -2.161430     0.000000     0.225380
    8      H       1.303790     0.880430     1.489840
    9      H       1.303790    -0.880430     1.489840
   10      H      -1.303790    -0.880430     1.489840
   11      H      -1.303790     0.880430     1.489840
 ----------------------------------------------------
 Nuclear Repulsion Energy =    82.8683654637 hartrees
 There are       13 alpha and       13 beta electrons
 Requested basis set is G3large
 There are 78 shells and 206 basis functions

Total QAlloc Memory Limit   2000 MB
Mega-Array Size       743 MB
MEM_STATIC part       760 MB

                       Distance Matrix (Angstroms)
             C (  1)   C (  2)   C (  3)   H (  4)   H (  5)   H (  6)
   C (  2)  1.518964
   C (  3)  1.518964  2.526760
   H (  4)  1.093346  2.147464  2.147464
   H (  5)  1.093346  2.147464  2.147464  1.747080
   H (  6)  2.172993  1.090946  3.480372  2.492328  2.492328
   H (  7)  2.172993  3.480372  1.090946  2.492328  2.492328  4.322860
   H (  8)  2.165676  1.092190  2.789553  3.062834  2.510894  1.763395
   H (  9)  2.165676  1.092190  2.789553  2.510894  3.062834  1.763395
   H ( 10)  2.165676  2.789553  1.092190  2.510894  3.062834  3.792330
   H ( 11)  2.165676  2.789553  1.092190  3.062834  2.510894  3.792330
             H (  7)   H (  8)   H (  9)   H ( 10)
   H (  8)  3.792330
   H (  9)  3.792330  1.760860
   H ( 10)  1.763395  3.146443  2.607580
   H ( 11)  1.763395  2.607580  3.146443  1.760860
 
 A cutoff of  1.0D-08 yielded   2950 shell pairs
 There are  20630 function pairs ( 24481 Cartesian)
Evaluating contribution to one-electron hamiltonian from nuclear
 Smallest overlap matrix eigenvalue = 5.80E-05

 Q-Chem warning in module mkSTV.C, line 194:

 Overlap eigenvalue is smaller than square root of threshold

 Multipole matrices computed through 2nd order

  Scale SEOQF with 1.000000e-01/1.000000e-01/1.000000e-01

 Standard Electronic Orientation quadrupole field applied
 Nucleus-field energy     =    -0.0000000004 hartrees
 Guess from superposition of atomic densities
 Warning:  Energy on first SCF cycle will be non-variational
 Long-range K will be added via erf
 Coulomb attenuation parameter = 0.36 bohr**(-1)
 A restricted Kohn-Sham SCF calculation will be
 performed using Pulay DIIS extrapolation
 Exchange:  wPBE + LR-HF      Correlation:  PBE
 Using SG-1 standard quadrature grid
 SCF converges when DIIS error is below 1.0E-05
 Requested basis set is G3large
 There are 78 shells and 206 basis functions
 A cutoff of  1.0D-08 yielded   2950 shell pairs
 There are  20630 function pairs ( 24481 Cartesian)
 ---------------------------------------
  Cycle       Energy         DIIS Error
 ---------------------------------------
    1    -119.8128325051      2.99E-02
    2    -119.0488038241      2.72E-03
    3    -119.0765515009      1.74E-03
    4    -119.0917062813      2.19E-04
    5    -119.0921134963      5.30E-05
    6    -119.0921307250      1.81E-05
    7    -119.0921339577      4.39E-06 Convergence criterion met
 ---------------------------------------
 One-Electron    Energy =  -322.5137685101
 Total Coulomb   Energy =   139.7686979443
 Alpha Exchange  Energy =    -2.3467933804
 Beta  Exchange  Energy =    -2.3467933804
 DFT   Exchange  Energy =   -13.6977394818
 DFT Correlation Energy =    -0.8241026126
 Nuclear Repu.   Energy =    82.8683654633
 Nuclear Attr.   Energy =  -440.9727729227
 Kinetic         Energy =   118.4590044126
 SCF time:  CPU 90.51 s  wall 91.02 s
 Final Alpha MO Eigenvalues
            1           2           3           4           5           6
    1 -10.0711632 -10.0618196 -10.0618079  -0.9144638  -0.8083723  -0.7077383
            7           8           9          10          11          12
    1  -0.5772305  -0.5548475  -0.5112255  -0.4903060  -0.4443454  -0.4428992
           13          14          15          16          17          18
    1  -0.4308543   0.0405959   0.0560785   0.0582707   0.0610978   0.0840143
 Analysis of SCF Wavefunction
 
 --------------------------------------------------------------
                    Orbital Energies (a.u.)
 --------------------------------------------------------------
 
 Alpha MOs
 -- Occupied --
-10.071 -10.062 -10.062  -0.914  -0.808  -0.708  -0.577  -0.555
 -0.511  -0.490  -0.444  -0.443  -0.431
 -- Virtual --
  0.041   0.056   0.058   0.061   0.084   0.089   0.092   0.098
  0.133   0.151   0.167   0.174   0.177   0.181   0.182   0.193
  0.194   0.204   0.227   0.227   0.258   0.267   0.285   0.285
  0.305   0.325   0.367   0.369   0.380   0.407   0.495   0.497
  0.524   0.554   0.559   0.581   0.601   0.640   0.649   0.657
  0.669   0.672   0.674   0.686   0.701   0.703   0.755   0.760
  0.770   0.808   0.863   0.896   0.903   0.920   0.929   0.992
  1.034   1.084   1.094   1.179   1.179   1.217   1.231   1.256
  1.269   1.271   1.299   1.325   1.326   1.336   1.386   1.420
  1.423   1.438   1.449   1.516   1.518   1.553   1.559   1.560
  1.580   1.627   1.642   1.673   1.700   1.708   1.722   1.742
  1.786   2.458   2.541   2.550   2.609   2.670   2.727   2.732
  2.811   2.820   2.902   2.914   2.924   2.959   3.010   3.028
  3.055   3.127   3.137   3.183   3.194   3.213   3.269   3.277
  3.373   3.396   3.417   3.445   3.458   3.462   3.529   3.540
  3.622   3.640   3.665   3.668   3.768   3.775   3.797   3.841
  3.910   3.917   3.917   4.012   4.054   4.089   4.098   4.103
  4.125   4.167   4.263   4.281   4.303   4.346   4.350   4.353
  4.379   4.418   4.451   4.473   4.541   4.651   4.661   4.679
  4.713   4.716   4.752   4.790   4.864   4.939   5.333   5.502
  5.570   5.734   5.764   5.791   5.819   5.849  24.119  24.244
 24.351  27.604  27.778  28.093  28.100  28.135  28.155  28.234
 28.364  28.460  40.924  40.928  40.930  40.971  41.026  41.031
 41.192  41.193  41.202  41.214  41.277  41.277  41.279  41.290
 41.340
 --------------------------------------------------------------
 
          Ground-State Mulliken Net Atomic Charges

     Atom                 Charge (a.u.)
  ----------------------------------------
      1 C                     0.013290
      2 C                    -0.307216
      3 C                    -0.307117
      4 H                     0.062435
      5 H                     0.062439
      6 H                     0.082767
      7 H                     0.082773
      8 H                     0.077667
      9 H                     0.077663
     10 H                     0.077657
     11 H                     0.077644
  ----------------------------------------
  Sum of atomic charges =     0.000000

 -----------------------------------------------------------------
                    Cartesian Multipole Moments
 -----------------------------------------------------------------
    Charge (ESU x 10^10)
                 0.0000
    Dipole Moment (Debye)
         X       0.0000      Y       0.0000      Z      -0.0817
       Tot       0.0817
    Quadrupole Moments (Debye-Ang)
        XX     -22.1342     XY       0.0003     YY     -21.3197
        XZ       0.0000     YZ      -0.0001     ZZ     -21.8856
    Octapole Moments (Debye-Ang^2)
       XXX       0.0001    XXY       0.0000    XYY       0.0000
       YYY       0.0000    XXZ     -14.5468    XYZ       0.0006
       YYZ     -11.9784    XZZ       0.0001    YZZ      -0.0001
       ZZZ     -38.8438
    Hexadecapole Moments (Debye-Ang^3)
      XXXX    -201.6229   XXXY       0.0010   XXYY     -42.1608
      XYYY       0.0013   YYYY     -44.2063   XXXZ       0.0003
      XXYZ      -0.0001   XYYZ       0.0001   YYYZ      -0.0002
      XXZZ     -54.6723   XYZZ       0.0010   YYZZ     -23.6733
      XZZZ       0.0002   YZZZ      -0.0003   ZZZZ    -118.2336
 -----------------------------------------------------------------
 Total job time:  91.27s(wall), 90.75s(cpu) 
 Mon Jul  8 17:00:10 2013

        *************************************************************
        *                                                           *
        *  Thank you very much for using Q-Chem.  Have a nice day.  *
        *                                                           *
        *************************************************************


0 sent ACK to 0 
now end server 0 ... 
 
**********************************************************************
Job 3 of 3 
**********************************************************************
 
Process 0 of 1 is on cl201.stfx.acenet.ca - thread support 1
initial socket setup ...start
initial socket setup ...done 
now start server 0 ... 

cmd = /usr/bin/ssh clhead /usr/local/qchem/bin/get_hostid 290187547 > /scratch/tmp/6065194.1.medium.q/qchem29394/lic.dat
                  Welcome to Q-Chem
     A Quantum Leap Into The Future Of Chemistry

 Y. Shao, L. Fusti-Molnar, Y. Jung, J. Kussmann, C. Ochsenfeld,
 S. T. Brown, A. T. B. Gilbert, L. V. Slipchenko,S. V. Levchenko,
 D. P. O'Neill, R. A. DiStasio Jr., R. C. Lochan, T. Wang,
 G. J. O. Beran, N. A. Besley, J. M. Herbert, C. Y. Lin,
 T. Van Voorhis, S. H. Chien, A. Sodt, R. P. Steele, 
 V. A. Rassolov, P. E. Maslen, P. P. Korambath, R. D. Adamson,
 B. Austin, J. Baker, E. F. C. Byrd, H. Dachsel, R. J. Doerksen,
 A. Dreuw, B. D. Dunietz, A. D. Dutoi, T. R. Furlani,
 S. R. Gwaltney, A. Heyden, S. Hirata, C.-P. Hsu, G. Kedziora,
 R. Z. Khaliullin, P. Klunzinger, A. M. Lee, M. S. Lee, W. Liang,
 I. Lotan, N. Nair, B. Peters, E. I. Proynov, P. A. Pieniazek, 
 Y. M. Rhee, J. Ritchie, E. Rosta, C. D. Sherrill, 
 A. C. Simmonett, J. E. Subotnik, H. L. Woodcock III,
 W. Zhang, A. T. Bell, A. K. Chakraborty, D. M. Chipman,
 F. J. Keil, A. Warshel, W. J. Hehre, H. F. Schaefer III,
 J. Kong, A. I. Krylov, P. M. W. Gill, M. Head-Gordon,
 Q-Chem, Version 3.1, Q-Chem, Inc., Pittsburgh, PA (2007).

 Additional authors for Version 3.1: 
 Z. Gan, Y. Zhao, N. E. Schultz, D. Truhlar, E. Epifanovsky and M. Oana.

 Additional authors for Version 3.2: 
 R. Baer, B. R. Brooks, D. Casanova, J.-D. Chai, C.-L. Cheng, 
 C. Cramer, D. Crittenden, A. Ghysels, G. Hawkins, E. G. Hohenstein, 
 C. Kelley, W. Kurlancheek, D. Liotard, E. Livshits, P. Manohar, 
 A. Marenich, D. Neuhauser, R. Olson, M. A. Rohrdanz, K. S. Thanthiriwatte, 
 A. J. W. Thom, V. Vanovschi, C. F. Williams, Q. Wu and Z.-Q. You. 


 Intel X86 Linux Version

 Q-chem begins on Mon Jul  8 17:00:12 2013  

 Parallel job on  1  processors
Processing $rem in /usr/local/qchem/config/preferences.

theFileMan(): MAXOPENFILES=974 MAX_SUB_FILE_NUM=16
Maximum size of a physical file is 2.0 GB, maximum size of a tmp-file is 32.0 GB


--------------------------------------------------------------
User input:
--------------------------------------------------------------

$molecule
1,2
C          0.00000        0.00000        0.00151
C          1.26338        0.00000        0.84479
C         -1.26338        0.00000        0.84479
H          0.00000       -0.87354       -0.65601
H          0.00000        0.87354       -0.65601
H          2.16143        0.00000        0.22538
H         -2.16143        0.00000        0.22538
H          1.30379        0.88043        1.48984
H          1.30379       -0.88043        1.48984
H         -1.30379       -0.88043        1.48984
H         -1.30379        0.88043        1.48984
$end

$comment
positive
$end

$xc_functional
C PBE   1.00
X wPBE  1.00
$end

$rem
SYMMETRY_DECOMPOSITION	0
LRC_DFT                 true
exchange 		general
BASIS                   g3large
omega			360
mem_static              760
max_scf_cycles          200
scf_final_print         1
sym_ignore              true
$end

--------------------------------------------------------------
 Writing REM_CC_EA           11
 ----------------------------------------------------
       Standard Nuclear Orientation (Angstroms)
    I     Atom         X            Y            Z
 ----------------------------------------------------
    1      C       0.000000     0.000000     0.001510
    2      C       1.263380     0.000000     0.844790
    3      C      -1.263380     0.000000     0.844790
    4      H       0.000000    -0.873540    -0.656010
    5      H       0.000000     0.873540    -0.656010
    6      H       2.161430     0.000000     0.225380
    7      H      -2.161430     0.000000     0.225380
    8      H       1.303790     0.880430     1.489840
    9      H       1.303790    -0.880430     1.489840
   10      H      -1.303790    -0.880430     1.489840
   11      H      -1.303790     0.880430     1.489840
 ----------------------------------------------------
 Nuclear Repulsion Energy =    82.8683654637 hartrees
 There are       13 alpha and       12 beta electrons
 Requested basis set is G3large
 There are 78 shells and 206 basis functions

Total QAlloc Memory Limit   2000 MB
Mega-Array Size       743 MB
MEM_STATIC part       760 MB

                       Distance Matrix (Angstroms)
             C (  1)   C (  2)   C (  3)   H (  4)   H (  5)   H (  6)
   C (  2)  1.518964
   C (  3)  1.518964  2.526760
   H (  4)  1.093346  2.147464  2.147464
   H (  5)  1.093346  2.147464  2.147464  1.747080
   H (  6)  2.172993  1.090946  3.480372  2.492328  2.492328
   H (  7)  2.172993  3.480372  1.090946  2.492328  2.492328  4.322860
   H (  8)  2.165676  1.092190  2.789553  3.062834  2.510894  1.763395
   H (  9)  2.165676  1.092190  2.789553  2.510894  3.062834  1.763395
   H ( 10)  2.165676  2.789553  1.092190  2.510894  3.062834  3.792330
   H ( 11)  2.165676  2.789553  1.092190  3.062834  2.510894  3.792330
             H (  7)   H (  8)   H (  9)   H ( 10)
   H (  8)  3.792330
   H (  9)  3.792330  1.760860
   H ( 10)  1.763395  3.146443  2.607580
   H ( 11)  1.763395  2.607580  3.146443  1.760860
 
 A cutoff of  1.0D-08 yielded   2950 shell pairs
 There are  20630 function pairs ( 24481 Cartesian)
Evaluating contribution to one-electron hamiltonian from nuclear
 Smallest overlap matrix eigenvalue = 5.80E-05

 Q-Chem warning in module mkSTV.C, line 194:

 Overlap eigenvalue is smaller than square root of threshold

 Multipole matrices computed through 2nd order

  Scale SEOQF with 1.000000e-01/1.000000e-01/1.000000e-01

 Standard Electronic Orientation quadrupole field applied
 Nucleus-field energy     =    -0.0000000004 hartrees
 Guess from superposition of atomic densities
 Warning:  Energy on first SCF cycle will be non-variational
 Long-range K will be added via erf
 Coulomb attenuation parameter = 0.36 bohr**(-1)
 An unrestricted Kohn-Sham SCF calculation will be
 performed using Pulay DIIS extrapolation
 Exchange:  wPBE + LR-HF      Correlation:  PBE
 Using SG-1 standard quadrature grid
 SCF converges when DIIS error is below 1.0E-05
 Requested basis set is G3large
 There are 78 shells and 206 basis functions
 A cutoff of  1.0D-08 yielded   2950 shell pairs
 There are  20630 function pairs ( 24481 Cartesian)
 Warning!  Inaccurate integrated density:
   Number of electrons =    25
   Numerical integral  =    26.000343447435
   Relative error      =     4.0013737897 %
 ---------------------------------------
  Cycle       Energy         DIIS Error
 ---------------------------------------
    1    -119.8128325051      2.99E-02
    2    -118.6272619320      1.90E-03
    3    -118.6542658889      6.76E-04
    4    -118.6567923177      3.70E-04
    5    -118.6576087636      5.08E-05
    6    -118.6577011307      2.86E-05
    7    -118.6577586230      2.36E-05
    8    -118.6578058300      1.91E-05
    9    -118.6579050690      1.58E-05
   10    -118.6579925868      1.38E-05
   11    -118.6581131095      1.03E-05
   12    -118.6582762191      8.77E-06 Convergence criterion met
 ---------------------------------------
 One-Electron    Energy =  -315.7685479046
 Total Coulomb   Energy =   133.0833837938
 Alpha Exchange  Energy =    -2.3596113908
 Beta  Exchange  Energy =    -2.1508626013
 DFT   Exchange  Energy =   -13.5395602534
 DFT Correlation Energy =    -0.7914433260
 Nuclear Repu.   Energy =    82.8683654633
 Nuclear Attr.   Energy =  -433.9119743998
 Kinetic         Energy =   118.1434264952
 <S^2> = 0.7547
 SCF time:  CPU 198.23 s  wall 199.14 s
 Final Alpha MO Eigenvalues
            1           2           3           4           5           6
    1 -10.3670738 -10.3146689 -10.3144928  -1.1881381  -1.0611056  -0.9819154
            7           8           9          10          11          12
    1  -0.8596948  -0.8060936  -0.7665590  -0.7445248  -0.7112123  -0.7048017
           13          14          15          16          17          18
    1  -0.6938630  -0.1082694  -0.0806267  -0.0800566  -0.0754953  -0.0496333
 Final Beta MO Eigenvalues
            1           2           3           4           5           6
    1 -10.3633863 -10.3129518 -10.3127905  -1.1734588  -1.0491257  -0.9517745
            7           8           9          10          11          12
    1  -0.8115617  -0.7954697  -0.7571367  -0.7041485  -0.6925954  -0.6876611
           13          14          15          16          17
    1  -0.4335848  -0.1065076  -0.0784582  -0.0779556  -0.0744992
 Analysis of SCF Wavefunction
 
 --------------------------------------------------------------
                    Orbital Energies (a.u.)
 --------------------------------------------------------------
 
 Alpha MOs
 -- Occupied --
-10.367 -10.315 -10.314  -1.188  -1.061  -0.982  -0.860  -0.806
 -0.767  -0.745  -0.711  -0.705  -0.694
 -- Virtual --
 -0.108  -0.081  -0.080  -0.075  -0.050  -0.044  -0.036  -0.031
 -0.027  -0.002   0.008   0.010   0.026   0.028   0.033   0.039
  0.039   0.049   0.054   0.064   0.074   0.078   0.087   0.098
  0.114   0.119   0.153   0.177   0.198   0.222   0.293   0.295
  0.305   0.342   0.348   0.372   0.398   0.419   0.430   0.442
  0.451   0.454   0.459   0.468   0.486   0.487   0.530   0.560
  0.563   0.586   0.630   0.669   0.678   0.690   0.702   0.768
  0.816   0.855   0.859   0.949   0.955   0.990   1.008   1.034
  1.034   1.038   1.062   1.091   1.101   1.104   1.157   1.188
  1.190   1.218   1.225   1.273   1.290   1.318   1.328   1.338
  1.354   1.399   1.409   1.443   1.470   1.471   1.501   1.506
  1.545   2.210   2.280   2.293   2.372   2.413   2.469   2.480
  2.550   2.552   2.629   2.657   2.657   2.689   2.749   2.780
  2.809   2.863   2.866   2.925   2.943   2.948   3.015   3.025
  3.126   3.133   3.165   3.183   3.197   3.207   3.275   3.276
  3.373   3.395   3.408   3.417   3.483   3.501   3.540   3.570
  3.654   3.657   3.660   3.749   3.783   3.819   3.826   3.843
  3.859   3.913   3.999   4.025   4.032   4.087   4.098   4.105
  4.122   4.147   4.191   4.214   4.282   4.375   4.385   4.418
  4.457   4.468   4.483   4.526   4.598   4.680   5.071   5.242
  5.280   5.453   5.510   5.547   5.568   5.572  23.842  23.991
 24.081  27.330  27.504  27.817  27.845  27.884  27.903  27.955
 28.093  28.187  40.634  40.670  40.675  40.691  40.760  40.770
 40.900  40.935  40.940  40.941  40.980  41.023  41.026  41.037
 41.068
 
 Beta MOs
 -- Occupied --
-10.363 -10.313 -10.313  -1.173  -1.049  -0.952  -0.812  -0.795
 -0.757  -0.704  -0.693  -0.688
 -- Virtual --
 -0.434  -0.107  -0.078  -0.078  -0.074  -0.049  -0.041  -0.035
 -0.030  -0.027  -0.001   0.010   0.013   0.029   0.029   0.038
  0.041   0.042   0.051   0.067   0.068   0.080   0.082   0.095
  0.103   0.119   0.125   0.157   0.181   0.202   0.227   0.298
  0.301   0.317   0.348   0.353   0.382   0.402   0.426   0.440
  0.456   0.456   0.461   0.462   0.475   0.491   0.491   0.541
  0.566   0.571   0.590   0.641   0.680   0.682   0.694   0.706
  0.776   0.823   0.862   0.862   0.955   0.959   0.998   1.016
  1.040   1.045   1.047   1.071   1.101   1.105   1.110   1.160
  1.194   1.196   1.223   1.231   1.288   1.299   1.328   1.335
  1.345   1.360   1.403   1.419   1.447   1.477   1.480   1.511
  1.511   1.555   2.222   2.300   2.304   2.379   2.429   2.479
  2.487   2.560   2.569   2.646   2.664   2.669   2.703   2.754
  2.789   2.818   2.874   2.881   2.935   2.952   2.966   3.020
  3.038   3.135   3.145   3.175   3.203   3.204   3.216   3.282
  3.291   3.383   3.400   3.417   3.428   3.505   3.511   3.548
  3.586   3.664   3.668   3.670   3.761   3.802   3.839   3.847
  3.853   3.873   3.926   4.015   4.038   4.047   4.101   4.112
  4.117   4.137   4.164   4.206   4.228   4.292   4.396   4.409
  4.431   4.468   4.474   4.502   4.542   4.610   4.690   5.087
  5.251   5.306   5.479   5.525   5.556   5.583   5.591  23.845
 23.993  24.084  27.333  27.506  27.825  27.850  27.885  27.904
 27.962  28.094  28.190  40.637  40.672  40.677  40.697  40.765
 40.774  40.909  40.939  40.942  40.946  40.987  41.026  41.028
 41.038  41.070
 --------------------------------------------------------------
 
          Ground-State Mulliken Net Atomic Charges

     Atom                 Charge (a.u.)    Spin (a.u.)
  --------------------------------------------------------
      1 C                     0.004008       0.171706
      2 C                    -0.222578       0.079282
      3 C                    -0.222025       0.078559
      4 H                     0.222552       0.160835
      5 H                     0.222926       0.161673
      6 H                     0.154198       0.020101
      7 H                     0.154178       0.020572
      8 H                     0.174819       0.082929
      9 H                     0.168634       0.070619
     10 H                     0.174948       0.083489
     11 H                     0.168341       0.070234
  --------------------------------------------------------
  Sum of atomic charges =     1.000000
  Sum of spin   charges =     1.000000

 -----------------------------------------------------------------
                    Cartesian Multipole Moments
 -----------------------------------------------------------------
    Charge (ESU x 10^10)
                 4.8032
    Dipole Moment (Debye)
         X      -0.0008      Y      -0.0002      Z       2.2925
       Tot       2.2925
    Quadrupole Moments (Debye-Ang)
        XX     -11.3780     XY      -0.2675     YY     -15.6701
        XZ       0.0003     YZ      -0.0063     ZZ     -13.8723
    Octapole Moments (Debye-Ang^2)
       XXX      -0.0015    XXY      -0.0041    XYY       0.0006
       YYY      -0.0006    XXZ      -5.3421    XYZ      -0.0545
       YYZ      -8.8371    XZZ       0.0011    YZZ      -0.0059
       ZZZ     -28.0427
    Hexadecapole Moments (Debye-Ang^3)
      XXXX    -143.3051   XXXY      -1.5596   XXYY     -32.2281
      XYYY      -0.1508   YYYY     -30.8051   XXXZ       0.0032
      XXYZ      -0.0090   XYYZ       0.0011   YYYZ      -0.0080
      XXZZ     -36.8188   XYZZ      -0.0529   YYZZ     -13.2913
      XZZZ       0.0028   YZZZ      -0.0162   ZZZZ     -88.0482
 -----------------------------------------------------------------
 Total job time:  199.40s(wall), 198.47s(cpu) 
 Mon Jul  8 17:03:32 2013

        *************************************************************
        *                                                           *
        *  Thank you very much for using Q-Chem.  Have a nice day.  *
        *                                                           *
        *************************************************************


0 sent ACK to 0 
now end server 0 ... 
