Process 0 of 1 is on cl229.stfx.acenet.ca - thread support 1
initial socket setup ...start
initial socket setup ...done 
now start server 0 ... 

cmd = /usr/bin/ssh clhead /usr/local/qchem/bin/get_hostid 305754502 > /scratch/tmp/6060853.1.long.q/qchem18503/lic.dat
                  Welcome to Q-Chem
     A Quantum Leap Into The Future Of Chemistry

 Y. Shao, L. Fusti-Molnar, Y. Jung, J. Kussmann, C. Ochsenfeld,
 S. T. Brown, A. T. B. Gilbert, L. V. Slipchenko,S. V. Levchenko,
 D. P. O'Neill, R. A. DiStasio Jr., R. C. Lochan, T. Wang,
 G. J. O. Beran, N. A. Besley, J. M. Herbert, C. Y. Lin,
 T. Van Voorhis, S. H. Chien, A. Sodt, R. P. Steele, 
 V. A. Rassolov, P. E. Maslen, P. P. Korambath, R. D. Adamson,
 B. Austin, J. Baker, E. F. C. Byrd, H. Dachsel, R. J. Doerksen,
 A. Dreuw, B. D. Dunietz, A. D. Dutoi, T. R. Furlani,
 S. R. Gwaltney, A. Heyden, S. Hirata, C.-P. Hsu, G. Kedziora,
 R. Z. Khaliullin, P. Klunzinger, A. M. Lee, M. S. Lee, W. Liang,
 I. Lotan, N. Nair, B. Peters, E. I. Proynov, P. A. Pieniazek, 
 Y. M. Rhee, J. Ritchie, E. Rosta, C. D. Sherrill, 
 A. C. Simmonett, J. E. Subotnik, H. L. Woodcock III,
 W. Zhang, A. T. Bell, A. K. Chakraborty, D. M. Chipman,
 F. J. Keil, A. Warshel, W. J. Hehre, H. F. Schaefer III,
 J. Kong, A. I. Krylov, P. M. W. Gill, M. Head-Gordon,
 Q-Chem, Version 3.1, Q-Chem, Inc., Pittsburgh, PA (2007).

 Additional authors for Version 3.1: 
 Z. Gan, Y. Zhao, N. E. Schultz, D. Truhlar, E. Epifanovsky and M. Oana.

 Additional authors for Version 3.2: 
 R. Baer, B. R. Brooks, D. Casanova, J.-D. Chai, C.-L. Cheng, 
 C. Cramer, D. Crittenden, A. Ghysels, G. Hawkins, E. G. Hohenstein, 
 C. Kelley, W. Kurlancheek, D. Liotard, E. Livshits, P. Manohar, 
 A. Marenich, D. Neuhauser, R. Olson, M. A. Rohrdanz, K. S. Thanthiriwatte, 
 A. J. W. Thom, V. Vanovschi, C. F. Williams, Q. Wu and Z.-Q. You. 


 Intel X86 Linux Version

 Q-chem begins on Thu Jul  4 11:06:34 2013  

 Parallel job on  1  processors
Processing $rem in /usr/local/qchem/config/preferences.

theFileMan(): MAXOPENFILES=974 MAX_SUB_FILE_NUM=16
Maximum size of a physical file is 2.0 GB, maximum size of a tmp-file is 32.0 GB


--------------------------------------------------------------
User input:
--------------------------------------------------------------

$molecule
-1,2
C          0.00069        0.00000        0.00637
C         -0.00168        0.00000        1.51256
O          1.34190        0.00000        1.95435
H          1.36065        0.00000        2.91119
H         -0.52791        0.88477        1.88789
H         -0.52791       -0.88477        1.88789
H         -1.01893        0.00000       -0.37843
H          0.51474        0.88275       -0.37198
H          0.51474       -0.88275       -0.37198
$end

$comment
negative
$end

$xc_functional
C PBE   1.00
X wPBE  1.00
$end

$rem
SYMMETRY_DECOMPOSITION	0
exchange 		general
LRC_DFT                 true
BASIS                   g3large
omega			100
mem_static              760
max_scf_cycles          200
scf_final_print         1
sym_ignore              true
$end

--------------------------------------------------------------
 Writing REM_CC_EA            9
 ----------------------------------------------------
       Standard Nuclear Orientation (Angstroms)
    I     Atom         X            Y            Z
 ----------------------------------------------------
    1      C       0.000690     0.000000     0.006370
    2      C      -0.001680     0.000000     1.512560
    3      O       1.341900     0.000000     1.954350
    4      H       1.360650     0.000000     2.911190
    5      H      -0.527910     0.884770     1.887890
    6      H      -0.527910    -0.884770     1.887890
    7      H      -1.018930     0.000000    -0.378430
    8      H       0.514740     0.882750    -0.371980
    9      H       0.514740    -0.882750    -0.371980
 ----------------------------------------------------
 Nuclear Repulsion Energy =    82.2039685543 hartrees
 There are       14 alpha and       13 beta electrons
 Requested basis set is G3large
 There are 66 shells and 186 basis functions

Total QAlloc Memory Limit   2000 MB
Mega-Array Size       743 MB
MEM_STATIC part       760 MB

                       Distance Matrix (Angstroms)
             C (  1)   C (  2)   O (  3)   H (  4)   H (  5)   H (  6)
   C (  2)  1.506192
   O (  3)  2.365052  1.414350
   H (  4)  3.207409  1.952462  0.957024
   H (  5)  2.145310  1.095723  2.069644  2.323063
   H (  6)  2.145310  1.095723  2.069644  2.323063  1.769540
   H (  7)  1.089815  2.147240  3.318943  4.060049  2.481960  2.481960
   H (  8)  1.089332  2.144161  2.622070  3.503429  2.488802  3.052582
   H (  9)  1.089332  2.144161  2.622070  3.503429  3.052582  2.488802
             H (  7)   H (  8)
   H (  8)  1.769585
   H (  9)  1.769585  1.765500
 
 A cutoff of  1.0D-08 yielded   2117 shell pairs
 There are  16833 function pairs ( 20304 Cartesian)
Evaluating contribution to one-electron hamiltonian from nuclear
 Smallest overlap matrix eigenvalue = 9.77E-05

 Q-Chem warning in module mkSTV.C, line 194:

 Overlap eigenvalue is smaller than square root of threshold

 Multipole matrices computed through 2nd order

  Scale SEOQF with 1.000000e-01/1.000000e-01/1.000000e-01

 Standard Electronic Orientation quadrupole field applied
 Nucleus-field energy     =    -0.0000000056 hartrees
 Guess from superposition of atomic densities
 Warning:  Energy on first SCF cycle will be non-variational
 Long-range K will be added via erf
 Coulomb attenuation parameter = 0.1 bohr**(-1)
 An unrestricted Kohn-Sham SCF calculation will be
 performed using Pulay DIIS extrapolation
 Exchange:  wPBE + LR-HF      Correlation:  PBE
 Using SG-1 standard quadrature grid
 SCF converges when DIIS error is below 1.0E-05
 Requested basis set is G3large
 There are 66 shells and 186 basis functions
 A cutoff of  1.0D-08 yielded   2117 shell pairs
 There are  16833 function pairs ( 20304 Cartesian)
 Warning!  Inaccurate integrated density:
   Number of electrons =    27
   Numerical integral  =    25.999924485107
   Relative error      =    -3.7039833885 %
 ---------------------------------------
  Cycle       Energy         DIIS Error
 ---------------------------------------
    1    -155.1878785378      3.18E-02
    2    -154.6874146168      6.16E-03
    3    -154.5624142629      9.35E-03
    4    -154.8786930998      1.23E-03
    5    -154.8847521471      5.90E-04
    6    -154.8869393304      1.11E-04
    7    -154.8874542586      5.41E-05
    8    -154.8876462316      3.19E-05
    9    -154.8877159364      1.49E-05
   10    -154.8877474973      8.09E-06 Convergence criterion met
 ---------------------------------------
 One-Electron    Energy =  -376.1862052593
 Total Coulomb   Energy =   160.7070575062
 Alpha Exchange  Energy =    -0.7688357445
 Beta  Exchange  Energy =    -0.7256376291
 DFT   Exchange  Energy =   -19.2676536935
 DFT Correlation Energy =    -0.8504412259
 Nuclear Repu.   Energy =    82.2039685487
 Nuclear Attr.   Energy =  -530.7402476160
 Kinetic         Energy =   154.5540423567
 <S^2> = 0.7501
 SCF time:  CPU 116.81 s  wall 117.50 s
 Final Alpha MO Eigenvalues
            1           2           3           4           5           6
    1 -18.6531314  -9.8316474  -9.7900486  -0.8496814  -0.6032843  -0.4697950
            7           8           9          10          11          12
    1  -0.3839543  -0.3343458  -0.2774874  -0.2639097  -0.2421477  -0.2031330
           13          14          15          16          17          18
    1  -0.1384965   0.0300961   0.1218957   0.1341157   0.1364345   0.1611228
           19
    1   0.1730807
 Final Beta MO Eigenvalues
            1           2           3           4           5           6
    1 -18.6528455  -9.8311848  -9.7898927  -0.8489663  -0.6025491  -0.4685225
            7           8           9          10          11          12
    1  -0.3822743  -0.3337037  -0.2768090  -0.2629990  -0.2415394  -0.2020345
           13          14          15          16          17          18
    1  -0.1376680   0.1234259   0.1398168   0.1483137   0.1496820   0.1726919
 Analysis of SCF Wavefunction
 
 --------------------------------------------------------------
                    Orbital Energies (a.u.)
 --------------------------------------------------------------
 
 Alpha MOs
 -- Occupied --
-18.653  -9.832  -9.790  -0.850  -0.603  -0.470  -0.384  -0.334
 -0.277  -0.264  -0.242  -0.203  -0.138   0.030
 -- Virtual --
  0.122   0.134   0.136   0.161   0.173   0.213   0.221   0.226
  0.232   0.253   0.255   0.270   0.278   0.316   0.319   0.329
  0.359   0.368   0.375   0.389   0.421   0.422   0.438   0.477
  0.517   0.571   0.574   0.601   0.608   0.662   0.681   0.702
  0.707   0.709   0.741   0.741   0.760   0.782   0.801   0.872
  0.896   0.952   0.972   1.013   1.013   1.067   1.164   1.175
  1.186   1.201   1.263   1.268   1.297   1.300   1.327   1.340
  1.386   1.428   1.438   1.453   1.497   1.543   1.551   1.576
  1.581   1.601   1.615   1.663   1.683   1.720   1.848   1.973
  2.126   2.174   2.347   2.454   2.507   2.583   2.649   2.702
  2.712   2.858   2.931   2.938   2.952   3.031   3.130   3.162
  3.178   3.178   3.300   3.307   3.321   3.378   3.422   3.480
  3.517   3.625   3.633   3.636   3.650   3.695   3.759   3.823
  3.855   3.930   3.978   4.028   4.088   4.128   4.145   4.153
  4.266   4.312   4.328   4.357   4.361   4.422   4.457   4.551
  4.557   4.607   4.681   4.682   4.760   5.087   5.247   5.266
  5.283   5.425   5.556   5.571   5.639   5.681   5.756   5.758
  5.949   6.034   6.516   7.041   7.234   7.273   7.301   7.618
  7.725  24.171  24.353  27.662  28.035  28.066  28.121  28.145
 28.354  40.892  40.922  40.945  41.045  41.143  41.183  41.190
 41.224  41.228  41.269  43.790  43.796  43.853  43.912  43.951
 45.644  45.962  46.386  49.840
 
 Beta MOs
 -- Occupied --
-18.653  -9.831  -9.790  -0.849  -0.603  -0.469  -0.382  -0.334
 -0.277  -0.263  -0.242  -0.202  -0.138
 -- Virtual --
  0.123   0.140   0.148   0.150   0.173   0.182   0.214   0.225
  0.229   0.238   0.255   0.259   0.274   0.277   0.319   0.321
  0.337   0.362   0.369   0.378   0.392   0.422   0.423   0.439
  0.478   0.520   0.573   0.576   0.603   0.611   0.664   0.684
  0.702   0.708   0.710   0.742   0.743   0.762   0.783   0.803
  0.877   0.897   0.954   0.974   1.015   1.016   1.069   1.165
  1.177   1.188   1.203   1.265   1.269   1.299   1.301   1.329
  1.342   1.388   1.429   1.440   1.454   1.501   1.547   1.553
  1.578   1.586   1.603   1.618   1.665   1.687   1.723   1.849
  1.975   2.127   2.175   2.348   2.457   2.507   2.584   2.650
  2.703   2.712   2.859   2.932   2.940   2.953   3.032   3.131
  3.163   3.179   3.179   3.301   3.308   3.322   3.379   3.424
  3.481   3.518   3.626   3.634   3.637   3.651   3.697   3.760
  3.824   3.856   3.931   3.979   4.029   4.089   4.129   4.147
  4.154   4.268   4.314   4.328   4.357   4.362   4.425   4.458
  4.551   4.558   4.608   4.682   4.683   4.760   5.087   5.248
  5.267   5.284   5.425   5.557   5.572   5.640   5.682   5.757
  5.759   5.949   6.035   6.517   7.042   7.235   7.275   7.302
  7.619   7.726  24.171  24.354  27.663  28.036  28.067  28.121
 28.145  28.354  40.893  40.923  40.945  41.045  41.143  41.183
 41.191  41.225  41.228  41.269  43.790  43.796  43.853  43.912
 43.952  45.644  45.962  46.386  49.840
 --------------------------------------------------------------
 
          Ground-State Mulliken Net Atomic Charges

     Atom                 Charge (a.u.)    Spin (a.u.)
  --------------------------------------------------------
      1 C                    -0.090075      -0.166451
      2 C                     2.769905      -3.009676
      3 O                    -0.440433       0.153476
      4 H                    -0.589936       0.858904
      5 H                    -1.075744       1.193252
      6 H                    -1.057585       1.174283
      7 H                    -0.318115       0.400384
      8 H                    -0.101693       0.200909
      9 H                    -0.096323       0.194918
  --------------------------------------------------------
  Sum of atomic charges =    -1.000000
  Sum of spin   charges =     1.000000

 -----------------------------------------------------------------
                    Cartesian Multipole Moments
 -----------------------------------------------------------------
    Charge (ESU x 10^10)
                -4.8032
    Dipole Moment (Debye)
         X       0.0010      Y      -0.0629      Z     -10.8442
       Tot      10.8444
    Quadrupole Moments (Debye-Ang)
        XX     -48.4256     XY       0.0437     YY     -44.4578
        XZ      -4.1056     YZ      -0.1131     ZZ     -68.6293
    Octapole Moments (Debye-Ang^2)
       XXX     -12.6499    XXY      -0.2575    XYY       0.8765
       YYY      -0.7451    XXZ     -80.2151    XYZ       0.0887
       YYZ     -74.0524    XZZ     -19.9334    YZZ      -0.4857
       ZZZ    -274.3225
    Hexadecapole Moments (Debye-Ang^3)
      XXXX    -416.9692   XXXY       0.3563   XXYY    -123.6261
      XYYY       0.3966   YYYY    -313.1208   XXXZ     -84.4267
      XXYZ      -0.4204   XYYZ     -17.0526   YYYZ      -1.2024
      XXZZ    -297.1501   XYZZ       0.2681   YYZZ    -262.9858
      XZZZ    -135.6829   YZZZ      -1.6943   ZZZZ   -1371.2665
 -----------------------------------------------------------------
 Total job time:  117.72s(wall), 117.02s(cpu) 
 Thu Jul  4 11:08:31 2013

        *************************************************************
        *                                                           *
        *  Thank you very much for using Q-Chem.  Have a nice day.  *
        *                                                           *
        *************************************************************


0 sent ACK to 0 
now end server 0 ... 
 
**********************************************************************
Job 2 of 3 
**********************************************************************
 
Process 0 of 1 is on cl229.stfx.acenet.ca - thread support 1
initial socket setup ...start
initial socket setup ...done 
now start server 0 ... 

cmd = /usr/bin/ssh clhead /usr/local/qchem/bin/get_hostid 33504792 > /scratch/tmp/6060853.1.long.q/qchem18503/lic.dat
                  Welcome to Q-Chem
     A Quantum Leap Into The Future Of Chemistry

 Y. Shao, L. Fusti-Molnar, Y. Jung, J. Kussmann, C. Ochsenfeld,
 S. T. Brown, A. T. B. Gilbert, L. V. Slipchenko,S. V. Levchenko,
 D. P. O'Neill, R. A. DiStasio Jr., R. C. Lochan, T. Wang,
 G. J. O. Beran, N. A. Besley, J. M. Herbert, C. Y. Lin,
 T. Van Voorhis, S. H. Chien, A. Sodt, R. P. Steele, 
 V. A. Rassolov, P. E. Maslen, P. P. Korambath, R. D. Adamson,
 B. Austin, J. Baker, E. F. C. Byrd, H. Dachsel, R. J. Doerksen,
 A. Dreuw, B. D. Dunietz, A. D. Dutoi, T. R. Furlani,
 S. R. Gwaltney, A. Heyden, S. Hirata, C.-P. Hsu, G. Kedziora,
 R. Z. Khaliullin, P. Klunzinger, A. M. Lee, M. S. Lee, W. Liang,
 I. Lotan, N. Nair, B. Peters, E. I. Proynov, P. A. Pieniazek, 
 Y. M. Rhee, J. Ritchie, E. Rosta, C. D. Sherrill, 
 A. C. Simmonett, J. E. Subotnik, H. L. Woodcock III,
 W. Zhang, A. T. Bell, A. K. Chakraborty, D. M. Chipman,
 F. J. Keil, A. Warshel, W. J. Hehre, H. F. Schaefer III,
 J. Kong, A. I. Krylov, P. M. W. Gill, M. Head-Gordon,
 Q-Chem, Version 3.1, Q-Chem, Inc., Pittsburgh, PA (2007).

 Additional authors for Version 3.1: 
 Z. Gan, Y. Zhao, N. E. Schultz, D. Truhlar, E. Epifanovsky and M. Oana.

 Additional authors for Version 3.2: 
 R. Baer, B. R. Brooks, D. Casanova, J.-D. Chai, C.-L. Cheng, 
 C. Cramer, D. Crittenden, A. Ghysels, G. Hawkins, E. G. Hohenstein, 
 C. Kelley, W. Kurlancheek, D. Liotard, E. Livshits, P. Manohar, 
 A. Marenich, D. Neuhauser, R. Olson, M. A. Rohrdanz, K. S. Thanthiriwatte, 
 A. J. W. Thom, V. Vanovschi, C. F. Williams, Q. Wu and Z.-Q. You. 


 Intel X86 Linux Version

 Q-chem begins on Thu Jul  4 11:08:34 2013  

 Parallel job on  1  processors
Processing $rem in /usr/local/qchem/config/preferences.

theFileMan(): MAXOPENFILES=974 MAX_SUB_FILE_NUM=16
Maximum size of a physical file is 2.0 GB, maximum size of a tmp-file is 32.0 GB


--------------------------------------------------------------
User input:
--------------------------------------------------------------

$molecule
0,1
C          0.00069        0.00000        0.00637
C         -0.00168        0.00000        1.51256
O          1.34190        0.00000        1.95435
H          1.36065        0.00000        2.91119
H         -0.52791        0.88477        1.88789
H         -0.52791       -0.88477        1.88789
H         -1.01893        0.00000       -0.37843
H          0.51474        0.88275       -0.37198
H          0.51474       -0.88275       -0.37198
$end

$comment
neutral
$end

$xc_functional
C PBE   1.00
X wPBE  1.00
$end


$rem
SYMMETRY_DECOMPOSITION	0
LRC_DFT                 true
exchange 		general
BASIS                   g3large
omega			100
mem_static              760
max_scf_cycles          200
scf_final_print         1
sym_ignore              true
$end

--------------------------------------------------------------
 Writing REM_CC_EA            9
 ----------------------------------------------------
       Standard Nuclear Orientation (Angstroms)
    I     Atom         X            Y            Z
 ----------------------------------------------------
    1      C       0.000690     0.000000     0.006370
    2      C      -0.001680     0.000000     1.512560
    3      O       1.341900     0.000000     1.954350
    4      H       1.360650     0.000000     2.911190
    5      H      -0.527910     0.884770     1.887890
    6      H      -0.527910    -0.884770     1.887890
    7      H      -1.018930     0.000000    -0.378430
    8      H       0.514740     0.882750    -0.371980
    9      H       0.514740    -0.882750    -0.371980
 ----------------------------------------------------
 Nuclear Repulsion Energy =    82.2039685543 hartrees
 There are       13 alpha and       13 beta electrons
 Requested basis set is G3large
 There are 66 shells and 186 basis functions

Total QAlloc Memory Limit   2000 MB
Mega-Array Size       743 MB
MEM_STATIC part       760 MB

                       Distance Matrix (Angstroms)
             C (  1)   C (  2)   O (  3)   H (  4)   H (  5)   H (  6)
   C (  2)  1.506192
   O (  3)  2.365052  1.414350
   H (  4)  3.207409  1.952462  0.957024
   H (  5)  2.145310  1.095723  2.069644  2.323063
   H (  6)  2.145310  1.095723  2.069644  2.323063  1.769540
   H (  7)  1.089815  2.147240  3.318943  4.060049  2.481960  2.481960
   H (  8)  1.089332  2.144161  2.622070  3.503429  2.488802  3.052582
   H (  9)  1.089332  2.144161  2.622070  3.503429  3.052582  2.488802
             H (  7)   H (  8)
   H (  8)  1.769585
   H (  9)  1.769585  1.765500
 
 A cutoff of  1.0D-08 yielded   2117 shell pairs
 There are  16833 function pairs ( 20304 Cartesian)
Evaluating contribution to one-electron hamiltonian from nuclear
 Smallest overlap matrix eigenvalue = 9.77E-05

 Q-Chem warning in module mkSTV.C, line 194:

 Overlap eigenvalue is smaller than square root of threshold

 Multipole matrices computed through 2nd order

  Scale SEOQF with 1.000000e-01/1.000000e-01/1.000000e-01

 Standard Electronic Orientation quadrupole field applied
 Nucleus-field energy     =    -0.0000000056 hartrees
 Guess from superposition of atomic densities
 Warning:  Energy on first SCF cycle will be non-variational
 Long-range K will be added via erf
 Coulomb attenuation parameter = 0.1 bohr**(-1)
 A restricted Kohn-Sham SCF calculation will be
 performed using Pulay DIIS extrapolation
 Exchange:  wPBE + LR-HF      Correlation:  PBE
 Using SG-1 standard quadrature grid
 SCF converges when DIIS error is below 1.0E-05
 Requested basis set is G3large
 There are 66 shells and 186 basis functions
 A cutoff of  1.0D-08 yielded   2117 shell pairs
 There are  16833 function pairs ( 20304 Cartesian)
 ---------------------------------------
  Cycle       Energy         DIIS Error
 ---------------------------------------
    1    -155.1878785378      3.18E-02
    2    -154.7943270729      5.47E-03
    3    -154.7311014866      7.20E-03
    4    -154.9070940592      9.94E-04
    5    -154.9097208878      3.66E-04
    6    -154.9101802861      4.09E-05
    7    -154.9101814685      1.34E-05
    8    -154.9101824983      4.71E-06 Convergence criterion met
 ---------------------------------------
 One-Electron    Energy =  -372.5729043644
 Total Coulomb   Energy =   156.9832370380
 Alpha Exchange  Energy =    -0.7257223092
 Beta  Exchange  Energy =    -0.7257223092
 DFT   Exchange  Energy =   -19.2301559356
 DFT Correlation Energy =    -0.8428831667
 Nuclear Repu.   Energy =    82.2039685487
 Nuclear Attr.   Energy =  -527.0622277672
 Kinetic         Energy =   154.4893234028
 SCF time:  CPU 73.28 s  wall 73.35 s
 Final Alpha MO Eigenvalues
            1           2           3           4           5           6
    1 -18.7993204  -9.9777326  -9.9210501  -0.9957556  -0.7402132  -0.6083220
            7           8           9          10          11          12
    1  -0.5282357  -0.4741733  -0.4157841  -0.3958637  -0.3761774  -0.3445454
           13          14          15          16          17          18
    1  -0.2827899   0.0170838   0.0363479   0.0498750   0.0500315   0.0729680
 Analysis of SCF Wavefunction
 
 --------------------------------------------------------------
                    Orbital Energies (a.u.)
 --------------------------------------------------------------
 
 Alpha MOs
 -- Occupied --
-18.799  -9.978  -9.921  -0.996  -0.740  -0.608  -0.528  -0.474
 -0.416  -0.396  -0.376  -0.345  -0.283
 -- Virtual --
  0.017   0.036   0.050   0.050   0.073   0.086   0.107   0.113
  0.125   0.126   0.144   0.157   0.164   0.166   0.198   0.200
  0.205   0.234   0.241   0.252   0.268   0.298   0.303   0.326
  0.354   0.395   0.450   0.454   0.473   0.481   0.537   0.552
  0.566   0.579   0.588   0.602   0.608   0.626   0.649   0.683
  0.729   0.766   0.818   0.837   0.873   0.888   0.936   1.028
  1.036   1.050   1.071   1.123   1.130   1.167   1.169   1.193
  1.206   1.255   1.292   1.303   1.318   1.360   1.410   1.414
  1.445   1.449   1.469   1.482   1.531   1.550   1.592   1.711
  1.830   1.984   2.032   2.205   2.311   2.370   2.448   2.510
  2.570   2.574   2.718   2.794   2.800   2.814   2.901   2.992
  3.023   3.041   3.043   3.165   3.169   3.186   3.240   3.285
  3.342   3.378   3.486   3.495   3.501   3.514   3.553   3.619
  3.679   3.714   3.789   3.843   3.894   3.953   3.989   4.007
  4.015   4.126   4.170   4.196   4.220   4.222   4.279   4.317
  4.415   4.420   4.471   4.545   4.548   4.622   4.943   5.107
  5.123   5.139   5.285   5.414   5.428   5.493   5.538   5.625
  5.626   5.805   5.890   6.372   6.896   7.089   7.126   7.157
  7.474   7.581  24.034  24.213  27.524  27.890  27.926  27.990
 28.009  28.216  40.752  40.778  40.813  40.908  40.997  41.045
 41.051  41.082  41.093  41.138  43.644  43.650  43.707  43.766
 43.805  45.498  45.816  46.239  49.694
 --------------------------------------------------------------
 
          Ground-State Mulliken Net Atomic Charges

     Atom                 Charge (a.u.)
  ----------------------------------------
      1 C                    -0.255195
      2 C                    -0.234443
      3 O                    -0.270992
      4 H                     0.243484
      5 H                     0.104022
      6 H                     0.104022
      7 H                     0.081592
      8 H                     0.113765
      9 H                     0.113745
  ----------------------------------------
  Sum of atomic charges =     0.000000

 -----------------------------------------------------------------
                    Cartesian Multipole Moments
 -----------------------------------------------------------------
    Charge (ESU x 10^10)
                 0.0000
    Dipole Moment (Debye)
         X      -1.2417      Y       0.0002      Z       0.9131
       Tot       1.5413
    Quadrupole Moments (Debye-Ang)
        XX     -22.8716     XY       0.0001     YY     -20.5044
        XZ      -0.3725     YZ       0.0002     ZZ     -14.4949
    Octapole Moments (Debye-Ang^2)
       XXX     -27.3953    XXY       0.0002    XYY      -8.0706
       YYY       0.0002    XXZ     -24.3543    XYZ       0.0002
       YYZ     -23.0468    XZZ      -1.3525    YZZ       0.0004
       ZZZ     -41.4514
    Hexadecapole Moments (Debye-Ang^3)
      XXXX    -107.4088   XXXY       0.0006   XXYY     -24.2574
      XYYY       0.0005   YYYY     -36.0188   XXXZ     -48.5269
      XXYZ       0.0004   XYYZ     -18.0646   YYYZ      -0.0001
      XXZZ     -57.0760   XYZZ       0.0007   YYZZ     -54.2415
      XZZZ     -13.1114   YZZZ       0.0007   ZZZZ    -191.9462
 -----------------------------------------------------------------
 Total job time:  73.55s(wall), 73.48s(cpu) 
 Thu Jul  4 11:09:48 2013

        *************************************************************
        *                                                           *
        *  Thank you very much for using Q-Chem.  Have a nice day.  *
        *                                                           *
        *************************************************************


0 sent ACK to 0 
now end server 0 ... 
 
**********************************************************************
Job 3 of 3 
**********************************************************************
 
Process 0 of 1 is on cl229.stfx.acenet.ca - thread support 1
initial socket setup ...start
initial socket setup ...done 
now start server 0 ... 

cmd = /usr/bin/ssh clhead /usr/local/qchem/bin/get_hostid 525000319 > /scratch/tmp/6060853.1.long.q/qchem18503/lic.dat
                  Welcome to Q-Chem
     A Quantum Leap Into The Future Of Chemistry

 Y. Shao, L. Fusti-Molnar, Y. Jung, J. Kussmann, C. Ochsenfeld,
 S. T. Brown, A. T. B. Gilbert, L. V. Slipchenko,S. V. Levchenko,
 D. P. O'Neill, R. A. DiStasio Jr., R. C. Lochan, T. Wang,
 G. J. O. Beran, N. A. Besley, J. M. Herbert, C. Y. Lin,
 T. Van Voorhis, S. H. Chien, A. Sodt, R. P. Steele, 
 V. A. Rassolov, P. E. Maslen, P. P. Korambath, R. D. Adamson,
 B. Austin, J. Baker, E. F. C. Byrd, H. Dachsel, R. J. Doerksen,
 A. Dreuw, B. D. Dunietz, A. D. Dutoi, T. R. Furlani,
 S. R. Gwaltney, A. Heyden, S. Hirata, C.-P. Hsu, G. Kedziora,
 R. Z. Khaliullin, P. Klunzinger, A. M. Lee, M. S. Lee, W. Liang,
 I. Lotan, N. Nair, B. Peters, E. I. Proynov, P. A. Pieniazek, 
 Y. M. Rhee, J. Ritchie, E. Rosta, C. D. Sherrill, 
 A. C. Simmonett, J. E. Subotnik, H. L. Woodcock III,
 W. Zhang, A. T. Bell, A. K. Chakraborty, D. M. Chipman,
 F. J. Keil, A. Warshel, W. J. Hehre, H. F. Schaefer III,
 J. Kong, A. I. Krylov, P. M. W. Gill, M. Head-Gordon,
 Q-Chem, Version 3.1, Q-Chem, Inc., Pittsburgh, PA (2007).

 Additional authors for Version 3.1: 
 Z. Gan, Y. Zhao, N. E. Schultz, D. Truhlar, E. Epifanovsky and M. Oana.

 Additional authors for Version 3.2: 
 R. Baer, B. R. Brooks, D. Casanova, J.-D. Chai, C.-L. Cheng, 
 C. Cramer, D. Crittenden, A. Ghysels, G. Hawkins, E. G. Hohenstein, 
 C. Kelley, W. Kurlancheek, D. Liotard, E. Livshits, P. Manohar, 
 A. Marenich, D. Neuhauser, R. Olson, M. A. Rohrdanz, K. S. Thanthiriwatte, 
 A. J. W. Thom, V. Vanovschi, C. F. Williams, Q. Wu and Z.-Q. You. 


 Intel X86 Linux Version

 Q-chem begins on Thu Jul  4 11:09:50 2013  

 Parallel job on  1  processors
Processing $rem in /usr/local/qchem/config/preferences.

theFileMan(): MAXOPENFILES=974 MAX_SUB_FILE_NUM=16
Maximum size of a physical file is 2.0 GB, maximum size of a tmp-file is 32.0 GB


--------------------------------------------------------------
User input:
--------------------------------------------------------------

$molecule
1,2
C          0.00069        0.00000        0.00637
C         -0.00168        0.00000        1.51256
O          1.34190        0.00000        1.95435
H          1.36065        0.00000        2.91119
H         -0.52791        0.88477        1.88789
H         -0.52791       -0.88477        1.88789
H         -1.01893        0.00000       -0.37843
H          0.51474        0.88275       -0.37198
H          0.51474       -0.88275       -0.37198
$end

$comment
positive
$end

$xc_functional
C PBE   1.00
X wPBE  1.00
$end

$rem
SYMMETRY_DECOMPOSITION	0
LRC_DFT                 true
exchange 		general
BASIS                   g3large
omega			100
mem_static              760
max_scf_cycles          200
scf_final_print         1
sym_ignore              true
$end

--------------------------------------------------------------
 Writing REM_CC_EA            9
 ----------------------------------------------------
       Standard Nuclear Orientation (Angstroms)
    I     Atom         X            Y            Z
 ----------------------------------------------------
    1      C       0.000690     0.000000     0.006370
    2      C      -0.001680     0.000000     1.512560
    3      O       1.341900     0.000000     1.954350
    4      H       1.360650     0.000000     2.911190
    5      H      -0.527910     0.884770     1.887890
    6      H      -0.527910    -0.884770     1.887890
    7      H      -1.018930     0.000000    -0.378430
    8      H       0.514740     0.882750    -0.371980
    9      H       0.514740    -0.882750    -0.371980
 ----------------------------------------------------
 Nuclear Repulsion Energy =    82.2039685543 hartrees
 There are       13 alpha and       12 beta electrons
 Requested basis set is G3large
 There are 66 shells and 186 basis functions

Total QAlloc Memory Limit   2000 MB
Mega-Array Size       743 MB
MEM_STATIC part       760 MB

                       Distance Matrix (Angstroms)
             C (  1)   C (  2)   O (  3)   H (  4)   H (  5)   H (  6)
   C (  2)  1.506192
   O (  3)  2.365052  1.414350
   H (  4)  3.207409  1.952462  0.957024
   H (  5)  2.145310  1.095723  2.069644  2.323063
   H (  6)  2.145310  1.095723  2.069644  2.323063  1.769540
   H (  7)  1.089815  2.147240  3.318943  4.060049  2.481960  2.481960
   H (  8)  1.089332  2.144161  2.622070  3.503429  2.488802  3.052582
   H (  9)  1.089332  2.144161  2.622070  3.503429  3.052582  2.488802
             H (  7)   H (  8)
   H (  8)  1.769585
   H (  9)  1.769585  1.765500
 
 A cutoff of  1.0D-08 yielded   2117 shell pairs
 There are  16833 function pairs ( 20304 Cartesian)
Evaluating contribution to one-electron hamiltonian from nuclear
 Smallest overlap matrix eigenvalue = 9.77E-05

 Q-Chem warning in module mkSTV.C, line 194:

 Overlap eigenvalue is smaller than square root of threshold

 Multipole matrices computed through 2nd order

  Scale SEOQF with 1.000000e-01/1.000000e-01/1.000000e-01

 Standard Electronic Orientation quadrupole field applied
 Nucleus-field energy     =    -0.0000000056 hartrees
 Guess from superposition of atomic densities
 Warning:  Energy on first SCF cycle will be non-variational
 Long-range K will be added via erf
 Coulomb attenuation parameter = 0.1 bohr**(-1)
 An unrestricted Kohn-Sham SCF calculation will be
 performed using Pulay DIIS extrapolation
 Exchange:  wPBE + LR-HF      Correlation:  PBE
 Using SG-1 standard quadrature grid
 SCF converges when DIIS error is below 1.0E-05
 Requested basis set is G3large
 There are 66 shells and 186 basis functions
 A cutoff of  1.0D-08 yielded   2117 shell pairs
 There are  16833 function pairs ( 20304 Cartesian)
 Warning!  Inaccurate integrated density:
   Number of electrons =    25
   Numerical integral  =    25.999924485107
   Relative error      =     3.9996979404 %
 ---------------------------------------
  Cycle       Energy         DIIS Error
 ---------------------------------------
    1    -155.1878785378      3.18E-02
    2    -154.4663407852      3.90E-03
    3    -154.3687313444      5.85E-03
    4    -154.5165970261      2.24E-03
    5    -154.5335916955      5.60E-04
    6    -154.5347676275      1.49E-04
    7    -154.5348772537      5.01E-05
    8    -154.5348871254      7.88E-06 Convergence criterion met
 ---------------------------------------
 One-Electron    Energy =  -365.1820381973
 Total Coulomb   Energy =   149.6140945713
 Alpha Exchange  Energy =    -0.7263797994
 Beta  Exchange  Energy =    -0.6693580241
 DFT   Exchange  Energy =   -18.9664001217
 DFT Correlation Energy =    -0.8087741029
 Nuclear Repu.   Energy =    82.2039685487
 Nuclear Attr.   Energy =  -519.3441698548
 Kinetic         Energy =   154.1621316574
 <S^2> = 0.7522
 SCF time:  CPU 92.09 s  wall 92.58 s
 Final Alpha MO Eigenvalues
            1           2           3           4           5           6
    1 -19.1697514 -10.2706251 -10.1553235  -1.3373888  -1.0139590  -0.8768869
            7           8           9          10          11          12
    1  -0.8356794  -0.7760823  -0.7094696  -0.6526304  -0.6315022  -0.6232983
           13          14          15          16          17          18
    1  -0.6067632  -0.1773612  -0.1354347  -0.1124736  -0.1060635  -0.0860234
 Final Beta MO Eigenvalues
            1           2           3           4           5           6
    1 -19.1564807 -10.2691003 -10.1546110  -1.3119054  -1.0047143  -0.8687658
            7           8           9          10          11          12
    1  -0.8230788  -0.7452900  -0.6989943  -0.6275064  -0.6174647  -0.6170252
           13          14          15          16          17
    1  -0.4628073  -0.1729766  -0.1300873  -0.1062237  -0.1030257
 Analysis of SCF Wavefunction
 
 --------------------------------------------------------------
                    Orbital Energies (a.u.)
 --------------------------------------------------------------
 
 Alpha MOs
 -- Occupied --
-19.170 -10.271 -10.155  -1.337  -1.014  -0.877  -0.836  -0.776
 -0.709  -0.653  -0.632  -0.623  -0.607
 -- Virtual --
 -0.177  -0.135  -0.112  -0.106  -0.086  -0.074  -0.059  -0.048
 -0.041  -0.034  -0.031  -0.011  -0.008   0.011   0.015   0.017
  0.018   0.044   0.051   0.061   0.081   0.104   0.106   0.152
  0.158   0.191   0.243   0.243   0.267   0.275   0.322   0.325
  0.335   0.365   0.367   0.392   0.393   0.402   0.430   0.472
  0.495   0.544   0.582   0.606   0.629   0.681   0.703   0.779
  0.779   0.806   0.839   0.853   0.879   0.940   0.944   0.963
  0.970   1.018   1.035   1.058   1.088   1.106   1.170   1.182
  1.193   1.234   1.243   1.259   1.296   1.311   1.371   1.440
  1.523   1.698   1.725   1.900   2.032   2.107   2.191   2.263
  2.309   2.324   2.449   2.534   2.537   2.549   2.663   2.731
  2.747   2.772   2.793   2.898   2.914   2.932   2.977   3.029
  3.082   3.105   3.214   3.217   3.245   3.275   3.276   3.350
  3.390   3.448   3.507   3.589   3.646   3.691   3.718   3.749
  3.755   3.855   3.887   3.927   3.968   3.975   3.997   4.041
  4.155   4.160   4.210   4.287   4.305   4.363   4.568   4.765
  4.793   4.818   4.971   5.101   5.147   5.166   5.205   5.372
  5.387   5.487   5.580   6.045   6.519   6.729   6.784   6.793
  7.132   7.245  23.771  23.949  27.258  27.598  27.644  27.757
 27.760  27.957  40.471  40.487  40.577  40.658  40.702  40.753
 40.783  40.820  40.859  40.903  43.261  43.262  43.324  43.404
 43.447  45.111  45.453  45.875  49.326
 
 Beta MOs
 -- Occupied --
-19.156 -10.269 -10.155  -1.312  -1.005  -0.869  -0.823  -0.745
 -0.699  -0.628  -0.617  -0.617
 -- Virtual --
 -0.463  -0.173  -0.130  -0.106  -0.103  -0.082  -0.072  -0.055
 -0.046  -0.039  -0.031  -0.029  -0.004  -0.001   0.014   0.017
  0.019   0.020   0.045   0.055   0.065   0.083   0.111   0.112
  0.155   0.161   0.197   0.246   0.252   0.272   0.277   0.328
  0.333   0.337   0.372   0.374   0.393   0.398   0.414   0.434
  0.480   0.499   0.547   0.593   0.609   0.633   0.685   0.707
  0.786   0.798   0.814   0.843   0.879   0.886   0.947   0.952
  0.968   0.974   1.023   1.047   1.065   1.090   1.115   1.183
  1.189   1.203   1.239   1.249   1.264   1.305   1.317   1.379
  1.456   1.548   1.705   1.749   1.921   2.038   2.123   2.199
  2.265   2.321   2.334   2.457   2.541   2.544   2.553   2.671
  2.735   2.760   2.788   2.797   2.910   2.919   2.937   2.991
  3.033   3.084   3.118   3.222   3.223   3.250   3.280   3.281
  3.355   3.399   3.458   3.520   3.595   3.654   3.708   3.724
  3.761   3.761   3.863   3.901   3.950   3.977   3.988   4.005
  4.057   4.168   4.169   4.224   4.302   4.311   4.376   4.636
  4.802   4.827   4.845   5.001   5.112   5.160   5.195   5.239
  5.386   5.391   5.513   5.585   6.057   6.578   6.769   6.814
  6.840   7.156   7.255  23.773  23.950  27.258  27.598  27.649
 27.757  27.763  27.957  40.475  40.489  40.579  40.658  40.706
 40.753  40.787  40.822  40.859  40.905  43.295  43.304  43.358
 43.411  43.450  45.151  45.461  45.884  49.339
 --------------------------------------------------------------
 
          Ground-State Mulliken Net Atomic Charges

     Atom                 Charge (a.u.)    Spin (a.u.)
  --------------------------------------------------------
      1 C                    -0.209460       0.036391
      2 C                    -0.205454       0.079089
      3 O                     0.109971       0.554535
      4 H                     0.319679      -0.007133
      5 H                     0.238617       0.123255
      6 H                     0.238615       0.123339
      7 H                     0.144378      -0.002117
      8 H                     0.181712       0.045799
      9 H                     0.181943       0.046842
  --------------------------------------------------------
  Sum of atomic charges =     1.000000
  Sum of spin   charges =     1.000000

 -----------------------------------------------------------------
                    Cartesian Multipole Moments
 -----------------------------------------------------------------
    Charge (ESU x 10^10)
                 4.8032
    Dipole Moment (Debye)
         X       0.9394      Y      -0.0010      Z       7.7882
       Tot       7.8447
    Quadrupole Moments (Debye-Ang)
        XX     -14.8561     XY      -0.0021     YY     -15.4896
        XZ       4.3763     YZ       0.0000     ZZ       3.5250
    Octapole Moments (Debye-Ang^2)
       XXX     -18.5336    XXY      -0.0014    XYY      -6.7572
       YYY      -0.0019    XXZ     -10.9727    XYZ       0.0001
       YYZ     -16.5760    XZZ      10.5253    YZZ      -0.0022
       ZZZ      -0.5069
    Hexadecapole Moments (Debye-Ang^3)
      XXXX     -79.0593   XXXY      -0.0019   XXYY     -17.1674
      XYYY      -0.0027   YYYY     -24.3459   XXXZ     -29.4487
      XXYZ      -0.0017   XYYZ     -16.2918   YYYZ       0.0003
      XXZZ     -24.0334   XYZZ      -0.0046   YYZZ     -37.6769
      XZZZ      18.7313   YZZZ      -0.0090   ZZZZ     -78.7574
 -----------------------------------------------------------------
 Total job time:  92.78s(wall), 92.29s(cpu) 
 Thu Jul  4 11:11:23 2013

        *************************************************************
        *                                                           *
        *  Thank you very much for using Q-Chem.  Have a nice day.  *
        *                                                           *
        *************************************************************


0 sent ACK to 0 
now end server 0 ... 
