Process 0 of 1 is on cl161.stfx.acenet.ca - thread support 1
initial socket setup ...start
initial socket setup ...done 
now start server 0 ... 

cmd = /usr/bin/ssh clhead /usr/local/qchem/bin/get_hostid 1563157573 > /scratch/tmp/6064685.1.medium.q/qchem24182/lic.dat
                  Welcome to Q-Chem
     A Quantum Leap Into The Future Of Chemistry

 Y. Shao, L. Fusti-Molnar, Y. Jung, J. Kussmann, C. Ochsenfeld,
 S. T. Brown, A. T. B. Gilbert, L. V. Slipchenko,S. V. Levchenko,
 D. P. O'Neill, R. A. DiStasio Jr., R. C. Lochan, T. Wang,
 G. J. O. Beran, N. A. Besley, J. M. Herbert, C. Y. Lin,
 T. Van Voorhis, S. H. Chien, A. Sodt, R. P. Steele, 
 V. A. Rassolov, P. E. Maslen, P. P. Korambath, R. D. Adamson,
 B. Austin, J. Baker, E. F. C. Byrd, H. Dachsel, R. J. Doerksen,
 A. Dreuw, B. D. Dunietz, A. D. Dutoi, T. R. Furlani,
 S. R. Gwaltney, A. Heyden, S. Hirata, C.-P. Hsu, G. Kedziora,
 R. Z. Khaliullin, P. Klunzinger, A. M. Lee, M. S. Lee, W. Liang,
 I. Lotan, N. Nair, B. Peters, E. I. Proynov, P. A. Pieniazek, 
 Y. M. Rhee, J. Ritchie, E. Rosta, C. D. Sherrill, 
 A. C. Simmonett, J. E. Subotnik, H. L. Woodcock III,
 W. Zhang, A. T. Bell, A. K. Chakraborty, D. M. Chipman,
 F. J. Keil, A. Warshel, W. J. Hehre, H. F. Schaefer III,
 J. Kong, A. I. Krylov, P. M. W. Gill, M. Head-Gordon,
 Q-Chem, Version 3.1, Q-Chem, Inc., Pittsburgh, PA (2007).

 Additional authors for Version 3.1: 
 Z. Gan, Y. Zhao, N. E. Schultz, D. Truhlar, E. Epifanovsky and M. Oana.

 Additional authors for Version 3.2: 
 R. Baer, B. R. Brooks, D. Casanova, J.-D. Chai, C.-L. Cheng, 
 C. Cramer, D. Crittenden, A. Ghysels, G. Hawkins, E. G. Hohenstein, 
 C. Kelley, W. Kurlancheek, D. Liotard, E. Livshits, P. Manohar, 
 A. Marenich, D. Neuhauser, R. Olson, M. A. Rohrdanz, K. S. Thanthiriwatte, 
 A. J. W. Thom, V. Vanovschi, C. F. Williams, Q. Wu and Z.-Q. You. 


 Intel X86 Linux Version

 Q-chem begins on Mon Jul  8 12:24:20 2013  

 Parallel job on  1  processors
Processing $rem in /usr/local/qchem/config/preferences.

theFileMan(): MAXOPENFILES=974 MAX_SUB_FILE_NUM=16
Maximum size of a physical file is 2.0 GB, maximum size of a tmp-file is 32.0 GB


--------------------------------------------------------------
User input:
--------------------------------------------------------------

$molecule
-1,2
C          0.00000        0.00000        0.00000
O          0.00000        0.00000        1.14981
O          0.00000        0.00000       -1.14981
$end

$comment
negative
$end

$xc_functional
C PBE   1.00
X wPBE  1.00
$end

$rem
SYMMETRY_DECOMPOSITION	0
exchange 		general
LRC_DFT                 true
BASIS                   g3large
omega			900
mem_static              760
max_scf_cycles          200
scf_final_print         1
sym_ignore              true
$end

--------------------------------------------------------------
 Writing REM_CC_EA            3
 ----------------------------------------------------
       Standard Nuclear Orientation (Angstroms)
    I     Atom         X            Y            Z
 ----------------------------------------------------
    1      C       0.000000     0.000000     0.000000
    2      O       0.000000     0.000000     1.149810
    3      O       0.000000     0.000000    -1.149810
 ----------------------------------------------------
 Nuclear Repulsion Energy =    58.9094571994 hartrees
 There are       12 alpha and       11 beta electrons
 Requested basis set is G3large
 There are 30 shells and 126 basis functions

Total QAlloc Memory Limit   2000 MB
Mega-Array Size       743 MB
MEM_STATIC part       760 MB

                       Distance Matrix (Angstroms)
             C (  1)   O (  2)
   O (  2)  1.149810
   O (  3)  1.149810  2.299620
 
 A cutoff of  1.0D-08 yielded    428 shell pairs
 There are   7727 function pairs ( 10149 Cartesian)
Evaluating contribution to one-electron hamiltonian from nuclear
 Smallest overlap matrix eigenvalue = 4.76E-04
 Multipole matrices computed through 2nd order

  Scale SEOQF with 1.000000e-01/1.000000e-01/1.000000e-01

 Standard Electronic Orientation quadrupole field applied
 Nucleus-field energy     =    -0.0000000023 hartrees
 Guess from superposition of atomic densities
 Warning:  Energy on first SCF cycle will be non-variational
 Long-range K will be added via erf
 Coulomb attenuation parameter = 0.9 bohr**(-1)
 An unrestricted Kohn-Sham SCF calculation will be
 performed using Pulay DIIS extrapolation
 Exchange:  wPBE + LR-HF      Correlation:  PBE
 Using SG-1 standard quadrature grid
 SCF converges when DIIS error is below 1.0E-05
 Requested basis set is G3large
 There are 30 shells and 126 basis functions
 A cutoff of  1.0D-08 yielded    428 shell pairs
 There are   7727 function pairs ( 10149 Cartesian)
 Warning!  Inaccurate integrated density:
   Number of electrons =    23
   Numerical integral  =    22.000089919572
   Relative error      =    -4.3474351323 %
 ---------------------------------------
  Cycle       Energy         DIIS Error
 ---------------------------------------
    1    -189.2169024051      4.88E-02
    2    -188.2702726855      7.87E-03
    3    -188.3355305191      5.93E-03
    4    -188.3788364869      5.89E-04
    5    -188.3825223106      2.68E-04
    6    -188.3861645024      3.65E-04
    7    -188.3858344791      3.63E-04
    8    -188.3801812316      3.47E-04
    9    -188.3757327364      5.14E-04
   10    -188.3769306351      2.48E-04
   11    -188.3776819006      1.47E-04
   12    -188.3790688365      1.95E-04
   13    -188.3780530347      1.77E-04
   14    -188.3743332461      3.80E-04
   15    -188.3713544311      7.21E-04
   16    -188.3723486855      6.31E-04
   17    -188.3723307772      6.12E-04
   18    -188.3708819633      7.86E-04
   19    -188.3710603001      7.51E-04
   20    -188.3712662765      6.89E-04
   21    -188.3717476533      5.01E-04
   22    -188.3723357843      2.32E-04
   23    -188.3722302546      2.31E-04
   24    -188.3722228920      2.37E-04
   25    -188.3723654473      1.22E-04
   26    -188.3724282336      3.00E-05
   27    -188.3725000907      3.79E-05
   28    -188.3724809226      3.55E-05
   29    -188.3723805465      1.36E-05
   30    -188.3723754178      4.48E-06 Convergence criterion met
 ---------------------------------------
 One-Electron    Energy =  -381.1736314801
 Total Coulomb   Energy =   156.7471309811
 Alpha Exchange  Energy =    -4.4782227132
 Beta  Exchange  Energy =    -4.1601189373
 DFT   Exchange  Energy =   -13.4440114783
 DFT Correlation Energy =    -0.7729789871
 Nuclear Repu.   Energy =    58.9094571971
 Nuclear Attr.   Energy =  -569.8500383283
 Kinetic         Energy =   188.6764068483
 <S^2> = 0.7561
 SCF time:  CPU 91.41 s  wall 93.24 s
 Final Alpha MO Eigenvalues
            1           2           3           4           5           6
    1 -18.9610331 -18.9608951 -10.1628676  -1.1516440  -1.0906516  -0.4915617
            7           8           9          10          11          12
    1  -0.4548382  -0.4273471  -0.4163732  -0.2905665  -0.2507614   0.1049885
           13          14          15          16          17
    1   0.2261044   0.2438000   0.2521018   0.2545238   0.4280368
 Final Beta MO Eigenvalues
            1           2           3           4           5           6
    1 -18.9581690 -18.9580261 -10.1479832  -1.1340237  -1.0850060  -0.4628963
            7           8           9          10          11          12
    1  -0.4209689  -0.4081892  -0.3818204  -0.2519591  -0.2372115   0.2279111
           13          14          15          16
    1   0.2450875   0.2521307   0.2525181   0.4286411
 Analysis of SCF Wavefunction
 
 --------------------------------------------------------------
                    Orbital Energies (a.u.)
 --------------------------------------------------------------
 
 Alpha MOs
 -- Occupied --
-18.961 -18.961 -10.163  -1.152  -1.091  -0.492  -0.455  -0.427
 -0.416  -0.291  -0.251   0.105
 -- Virtual --
  0.226   0.244   0.252   0.255   0.428   0.461   0.462   0.469
  0.486   0.494   0.532   0.539   0.554   0.717   0.916   0.949
  0.998   0.998   1.027   1.104   1.329   1.342   1.345   1.379
  1.485   1.500   1.529   1.529   1.637   1.747   1.878   1.878
  2.153   2.153   2.239   2.408   2.416   2.519   2.839   2.844
  3.015   3.082   3.202   3.210   3.226   3.227   3.547   3.556
  3.559   3.639   3.641   3.797   3.802   4.328   4.330   4.490
  5.453   5.454   5.542   5.542   5.545   5.573   5.576   5.617
  5.617   5.623   5.690   5.691   6.392   6.393   6.399   6.825
  6.829   7.318   7.318   7.366   7.367   7.512   7.513   7.538
  7.961   8.075   8.077   8.250   8.358   8.364   9.081  25.282
 27.878  27.879  29.641  41.340  41.579  41.760  41.762  41.802
 44.219  44.245  44.277  44.303  44.390  44.391  44.509  44.518
 44.519  44.677  46.191  46.191  46.571  46.572  47.083  47.466
 50.534  51.919
 
 Beta MOs
 -- Occupied --
-18.958 -18.958 -10.148  -1.134  -1.085  -0.463  -0.421  -0.408
 -0.382  -0.252  -0.237
 -- Virtual --
  0.228   0.245   0.252   0.253   0.429   0.462   0.467   0.484
  0.495   0.497   0.507   0.542   0.555   0.556   0.748   0.960
  0.987   1.021   1.022   1.027   1.126   1.337   1.347   1.359
  1.382   1.503   1.522   1.530   1.541   1.647   1.753   1.884
  1.884   2.166   2.166   2.242   2.418   2.435   2.533   2.840
  2.855   3.020   3.094   3.224   3.253   3.263   3.275   3.553
  3.576   3.583   3.702   3.702   3.811   3.839   4.333   4.356
  4.508   5.455   5.471   5.549   5.549   5.555   5.574   5.590
  5.625   5.625   5.626   5.697   5.698   6.395   6.401   6.409
  6.828   6.849   7.332   7.332   7.380   7.381   7.511   7.526
  7.539   7.965   8.075   8.090   8.257   8.360   8.378   9.084
 25.298  27.888  27.911  29.650  41.365  41.600  41.764  41.783
 41.813  44.228  44.255  44.286  44.313  44.389  44.398  44.510
 44.517  44.526  44.679  46.192  46.200  46.573  46.581  47.084
 47.467  50.536  51.922
 --------------------------------------------------------------
 
          Ground-State Mulliken Net Atomic Charges

     Atom                 Charge (a.u.)    Spin (a.u.)
  --------------------------------------------------------
      1 C                     0.200106       0.761538
      2 O                    -0.600045       0.119261
      3 O                    -0.600061       0.119200
  --------------------------------------------------------
  Sum of atomic charges =    -1.000000
  Sum of spin   charges =     1.000000

 -----------------------------------------------------------------
                    Cartesian Multipole Moments
 -----------------------------------------------------------------
    Charge (ESU x 10^10)
                -4.8032
    Dipole Moment (Debye)
         X      -0.0003      Y      -0.0003      Z       0.0001
       Tot       0.0004
    Quadrupole Moments (Debye-Ang)
        XX     -18.7812     XY      -1.4139     YY     -18.8139
        XZ      -0.0884     YZ      -0.0893     ZZ     -28.8237
    Octapole Moments (Debye-Ang^2)
       XXX      -0.0015    XXY      -0.0005    XYY      -0.0005
       YYY      -0.0016    XXZ       0.0000    XYZ       0.0001
       YYZ       0.0000    XZZ      -0.0006    YZZ      -0.0006
       ZZZ       0.0001
    Hexadecapole Moments (Debye-Ang^3)
      XXXX     -28.2270   XXXY      -4.6159   XXYY      -9.4357
      XYYY      -4.6159   YYYY     -28.3868   XXXZ      -0.4893
      XXYZ      -0.1647   XYYZ      -0.1631   YYYZ      -0.4940
      XXZZ     -27.4529   XYZZ      -2.9099   YYZZ     -27.5205
      XZZZ      -0.5575   YZZZ      -0.5639   ZZZZ    -139.6685
 -----------------------------------------------------------------
 Total job time:  93.38s(wall), 91.55s(cpu) 
 Mon Jul  8 12:25:54 2013

        *************************************************************
        *                                                           *
        *  Thank you very much for using Q-Chem.  Have a nice day.  *
        *                                                           *
        *************************************************************


0 sent ACK to 0 
now end server 0 ... 
 
**********************************************************************
Job 2 of 3 
**********************************************************************
 
Process 0 of 1 is on cl161.stfx.acenet.ca - thread support 1
initial socket setup ...start
initial socket setup ...done 
now start server 0 ... 

cmd = /usr/bin/ssh clhead /usr/local/qchem/bin/get_hostid 289374661 > /scratch/tmp/6064685.1.medium.q/qchem24182/lic.dat
                  Welcome to Q-Chem
     A Quantum Leap Into The Future Of Chemistry

 Y. Shao, L. Fusti-Molnar, Y. Jung, J. Kussmann, C. Ochsenfeld,
 S. T. Brown, A. T. B. Gilbert, L. V. Slipchenko,S. V. Levchenko,
 D. P. O'Neill, R. A. DiStasio Jr., R. C. Lochan, T. Wang,
 G. J. O. Beran, N. A. Besley, J. M. Herbert, C. Y. Lin,
 T. Van Voorhis, S. H. Chien, A. Sodt, R. P. Steele, 
 V. A. Rassolov, P. E. Maslen, P. P. Korambath, R. D. Adamson,
 B. Austin, J. Baker, E. F. C. Byrd, H. Dachsel, R. J. Doerksen,
 A. Dreuw, B. D. Dunietz, A. D. Dutoi, T. R. Furlani,
 S. R. Gwaltney, A. Heyden, S. Hirata, C.-P. Hsu, G. Kedziora,
 R. Z. Khaliullin, P. Klunzinger, A. M. Lee, M. S. Lee, W. Liang,
 I. Lotan, N. Nair, B. Peters, E. I. Proynov, P. A. Pieniazek, 
 Y. M. Rhee, J. Ritchie, E. Rosta, C. D. Sherrill, 
 A. C. Simmonett, J. E. Subotnik, H. L. Woodcock III,
 W. Zhang, A. T. Bell, A. K. Chakraborty, D. M. Chipman,
 F. J. Keil, A. Warshel, W. J. Hehre, H. F. Schaefer III,
 J. Kong, A. I. Krylov, P. M. W. Gill, M. Head-Gordon,
 Q-Chem, Version 3.1, Q-Chem, Inc., Pittsburgh, PA (2007).

 Additional authors for Version 3.1: 
 Z. Gan, Y. Zhao, N. E. Schultz, D. Truhlar, E. Epifanovsky and M. Oana.

 Additional authors for Version 3.2: 
 R. Baer, B. R. Brooks, D. Casanova, J.-D. Chai, C.-L. Cheng, 
 C. Cramer, D. Crittenden, A. Ghysels, G. Hawkins, E. G. Hohenstein, 
 C. Kelley, W. Kurlancheek, D. Liotard, E. Livshits, P. Manohar, 
 A. Marenich, D. Neuhauser, R. Olson, M. A. Rohrdanz, K. S. Thanthiriwatte, 
 A. J. W. Thom, V. Vanovschi, C. F. Williams, Q. Wu and Z.-Q. You. 


 Intel X86 Linux Version

 Q-chem begins on Mon Jul  8 12:25:57 2013  

 Parallel job on  1  processors
Processing $rem in /usr/local/qchem/config/preferences.

theFileMan(): MAXOPENFILES=974 MAX_SUB_FILE_NUM=16
Maximum size of a physical file is 2.0 GB, maximum size of a tmp-file is 32.0 GB


--------------------------------------------------------------
User input:
--------------------------------------------------------------

$molecule
0,1
C          0.00000        0.00000        0.00000
O          0.00000        0.00000        1.14981
O          0.00000        0.00000       -1.14981
$end

$comment
neutral
$end

$xc_functional
C PBE   1.00
X wPBE  1.00
$end


$rem
SYMMETRY_DECOMPOSITION	0
LRC_DFT                 true
exchange 		general
BASIS                   g3large
omega			900
mem_static              760
max_scf_cycles          200
scf_final_print         1
sym_ignore              true
$end

--------------------------------------------------------------
 Writing REM_CC_EA            3
 ----------------------------------------------------
       Standard Nuclear Orientation (Angstroms)
    I     Atom         X            Y            Z
 ----------------------------------------------------
    1      C       0.000000     0.000000     0.000000
    2      O       0.000000     0.000000     1.149810
    3      O       0.000000     0.000000    -1.149810
 ----------------------------------------------------
 Nuclear Repulsion Energy =    58.9094571994 hartrees
 There are       11 alpha and       11 beta electrons
 Requested basis set is G3large
 There are 30 shells and 126 basis functions

Total QAlloc Memory Limit   2000 MB
Mega-Array Size       743 MB
MEM_STATIC part       760 MB

                       Distance Matrix (Angstroms)
             C (  1)   O (  2)
   O (  2)  1.149810
   O (  3)  1.149810  2.299620
 
 A cutoff of  1.0D-08 yielded    428 shell pairs
 There are   7727 function pairs ( 10149 Cartesian)
Evaluating contribution to one-electron hamiltonian from nuclear
 Smallest overlap matrix eigenvalue = 4.76E-04
 Multipole matrices computed through 2nd order

  Scale SEOQF with 1.000000e-01/1.000000e-01/1.000000e-01

 Standard Electronic Orientation quadrupole field applied
 Nucleus-field energy     =    -0.0000000023 hartrees
 Guess from superposition of atomic densities
 Warning:  Energy on first SCF cycle will be non-variational
 Long-range K will be added via erf
 Coulomb attenuation parameter = 0.9 bohr**(-1)
 A restricted Kohn-Sham SCF calculation will be
 performed using Pulay DIIS extrapolation
 Exchange:  wPBE + LR-HF      Correlation:  PBE
 Using SG-1 standard quadrature grid
 SCF converges when DIIS error is below 1.0E-05
 Requested basis set is G3large
 There are 30 shells and 126 basis functions
 A cutoff of  1.0D-08 yielded    428 shell pairs
 There are   7727 function pairs ( 10149 Cartesian)
 ---------------------------------------
  Cycle       Energy         DIIS Error
 ---------------------------------------
    1    -189.2169024051      4.88E-02
    2    -188.4059814905      7.83E-03
    3    -188.4550639816      6.40E-03
    4    -188.5059841159      6.57E-04
    5    -188.5075678412      2.41E-04
    6    -188.5078299038      6.38E-05
    7    -188.5078600812      1.05E-05
    8    -188.5078614755      2.22E-06 Convergence criterion met
 ---------------------------------------
 One-Electron    Energy =  -373.9310620613
 Total Coulomb   Energy =   148.9910403234
 Alpha Exchange  Energy =    -4.1900960112
 Beta  Exchange  Energy =    -4.1900960112
 DFT   Exchange  Energy =   -13.3534330741
 DFT Correlation Energy =    -0.7436718381
 Nuclear Repu.   Energy =    58.9094571971
 Nuclear Attr.   Energy =  -561.8873176002
 Kinetic         Energy =   187.9562555389
 SCF time:  CPU 20.17 s  wall 20.69 s
 Final Alpha MO Eigenvalues
            1           2           3           4           5           6
    1 -19.3015702 -19.3014218 -10.5914453  -1.4876142  -1.4306590  -0.7965001
            7           8           9          10          11          12
    1  -0.7475647  -0.7447407  -0.7447381  -0.5664736  -0.5664728   0.0539731
           13          14          15          16
    1   0.0946264   0.0946270   0.0971465   0.1672146
 Analysis of SCF Wavefunction
 
 --------------------------------------------------------------
                    Orbital Energies (a.u.)
 --------------------------------------------------------------
 
 Alpha MOs
 -- Occupied --
-19.302 -19.301 -10.591  -1.488  -1.431  -0.797  -0.748  -0.745
 -0.745  -0.566  -0.566
 -- Virtual --
  0.054   0.095   0.095   0.097   0.167   0.167   0.226   0.268
  0.268   0.272   0.312   0.336   0.336   0.362   0.465   0.674
  0.674   0.707   0.707   0.778   0.838   1.049   1.080   1.080
  1.114   1.200   1.200   1.261   1.261   1.325   1.468   1.571
  1.571   1.858   1.858   1.953   2.108   2.108   2.215   2.543
  2.543   2.710   2.776   2.864   2.864   2.892   2.892   3.223
  3.226   3.226   3.298   3.298   3.462   3.462   3.998   3.998
  4.146   5.134   5.134   5.209   5.222   5.222   5.255   5.255
  5.297   5.297   5.303   5.366   5.366   6.058   6.067   6.067
  6.490   6.490   6.996   6.996   7.043   7.044   7.192   7.192
  7.224   7.641   7.753   7.753   7.908   8.029   8.029   8.743
 24.867  27.455  27.455  29.219  40.912  41.149  41.332  41.332
 41.377  43.882  43.908  43.940  43.966  44.051  44.051  44.168
 44.180  44.180  44.337  45.851  45.851  46.233  46.233  46.742
 47.126  50.194  51.580
 --------------------------------------------------------------
 
          Ground-State Mulliken Net Atomic Charges

     Atom                 Charge (a.u.)
  ----------------------------------------
      1 C                     0.492471
      2 O                    -0.246230
      3 O                    -0.246240
  ----------------------------------------
  Sum of atomic charges =     0.000000

 -----------------------------------------------------------------
                    Cartesian Multipole Moments
 -----------------------------------------------------------------
    Charge (ESU x 10^10)
                 0.0000
    Dipole Moment (Debye)
         X       0.0000      Y       0.0000      Z       0.0000
       Tot       0.0000
    Quadrupole Moments (Debye-Ang)
        XX     -14.5854     XY       0.0000     YY     -14.5854
        XZ       0.0001     YZ       0.0001     ZZ     -19.4731
    Octapole Moments (Debye-Ang^2)
       XXX       0.0000    XXY       0.0000    XYY       0.0000
       YYY       0.0000    XXZ       0.0000    XYZ       0.0000
       YYZ       0.0000    XZZ       0.0000    YZZ       0.0000
       ZZZ       0.0000
    Hexadecapole Moments (Debye-Ang^3)
      XXXX     -11.1685   XXXY       0.0000   XXYY      -3.7228
      XYYY       0.0000   YYYY     -11.1685   XXXZ       0.0002
      XXYZ       0.0000   XYYZ       0.0001   YYYZ       0.0001
      XXZZ     -18.2969   XYZZ       0.0000   YYZZ     -18.2969
      XZZZ       0.0002   YZZZ       0.0001   ZZZZ    -100.2633
 -----------------------------------------------------------------
 Total job time:  20.82s(wall), 20.29s(cpu) 
 Mon Jul  8 12:26:17 2013

        *************************************************************
        *                                                           *
        *  Thank you very much for using Q-Chem.  Have a nice day.  *
        *                                                           *
        *************************************************************


0 sent ACK to 0 
now end server 0 ... 
 
**********************************************************************
Job 3 of 3 
**********************************************************************
 
Process 0 of 1 is on cl161.stfx.acenet.ca - thread support 1
initial socket setup ...start
initial socket setup ...done 
now start server 0 ... 

cmd = /usr/bin/ssh clhead /usr/local/qchem/bin/get_hostid 507786915 > /scratch/tmp/6064685.1.medium.q/qchem24182/lic.dat
                  Welcome to Q-Chem
     A Quantum Leap Into The Future Of Chemistry

 Y. Shao, L. Fusti-Molnar, Y. Jung, J. Kussmann, C. Ochsenfeld,
 S. T. Brown, A. T. B. Gilbert, L. V. Slipchenko,S. V. Levchenko,
 D. P. O'Neill, R. A. DiStasio Jr., R. C. Lochan, T. Wang,
 G. J. O. Beran, N. A. Besley, J. M. Herbert, C. Y. Lin,
 T. Van Voorhis, S. H. Chien, A. Sodt, R. P. Steele, 
 V. A. Rassolov, P. E. Maslen, P. P. Korambath, R. D. Adamson,
 B. Austin, J. Baker, E. F. C. Byrd, H. Dachsel, R. J. Doerksen,
 A. Dreuw, B. D. Dunietz, A. D. Dutoi, T. R. Furlani,
 S. R. Gwaltney, A. Heyden, S. Hirata, C.-P. Hsu, G. Kedziora,
 R. Z. Khaliullin, P. Klunzinger, A. M. Lee, M. S. Lee, W. Liang,
 I. Lotan, N. Nair, B. Peters, E. I. Proynov, P. A. Pieniazek, 
 Y. M. Rhee, J. Ritchie, E. Rosta, C. D. Sherrill, 
 A. C. Simmonett, J. E. Subotnik, H. L. Woodcock III,
 W. Zhang, A. T. Bell, A. K. Chakraborty, D. M. Chipman,
 F. J. Keil, A. Warshel, W. J. Hehre, H. F. Schaefer III,
 J. Kong, A. I. Krylov, P. M. W. Gill, M. Head-Gordon,
 Q-Chem, Version 3.1, Q-Chem, Inc., Pittsburgh, PA (2007).

 Additional authors for Version 3.1: 
 Z. Gan, Y. Zhao, N. E. Schultz, D. Truhlar, E. Epifanovsky and M. Oana.

 Additional authors for Version 3.2: 
 R. Baer, B. R. Brooks, D. Casanova, J.-D. Chai, C.-L. Cheng, 
 C. Cramer, D. Crittenden, A. Ghysels, G. Hawkins, E. G. Hohenstein, 
 C. Kelley, W. Kurlancheek, D. Liotard, E. Livshits, P. Manohar, 
 A. Marenich, D. Neuhauser, R. Olson, M. A. Rohrdanz, K. S. Thanthiriwatte, 
 A. J. W. Thom, V. Vanovschi, C. F. Williams, Q. Wu and Z.-Q. You. 


 Intel X86 Linux Version

 Q-chem begins on Mon Jul  8 12:26:20 2013  

 Parallel job on  1  processors
Processing $rem in /usr/local/qchem/config/preferences.

theFileMan(): MAXOPENFILES=974 MAX_SUB_FILE_NUM=16
Maximum size of a physical file is 2.0 GB, maximum size of a tmp-file is 32.0 GB


--------------------------------------------------------------
User input:
--------------------------------------------------------------

$molecule
1,2
C          0.00000        0.00000        0.00000
O          0.00000        0.00000        1.14981
O          0.00000        0.00000       -1.14981
$end

$comment
positive
$end

$xc_functional
C PBE   1.00
X wPBE  1.00
$end

$rem
SYMMETRY_DECOMPOSITION	0
LRC_DFT                 true
exchange 		general
BASIS                   g3large
omega			900
mem_static              760
max_scf_cycles          200
scf_final_print         1
sym_ignore              true
$end

--------------------------------------------------------------
 Writing REM_CC_EA            3
 ----------------------------------------------------
       Standard Nuclear Orientation (Angstroms)
    I     Atom         X            Y            Z
 ----------------------------------------------------
    1      C       0.000000     0.000000     0.000000
    2      O       0.000000     0.000000     1.149810
    3      O       0.000000     0.000000    -1.149810
 ----------------------------------------------------
 Nuclear Repulsion Energy =    58.9094571994 hartrees
 There are       11 alpha and       10 beta electrons
 Requested basis set is G3large
 There are 30 shells and 126 basis functions

Total QAlloc Memory Limit   2000 MB
Mega-Array Size       743 MB
MEM_STATIC part       760 MB

                       Distance Matrix (Angstroms)
             C (  1)   O (  2)
   O (  2)  1.149810
   O (  3)  1.149810  2.299620
 
 A cutoff of  1.0D-08 yielded    428 shell pairs
 There are   7727 function pairs ( 10149 Cartesian)
Evaluating contribution to one-electron hamiltonian from nuclear
 Smallest overlap matrix eigenvalue = 4.76E-04
 Multipole matrices computed through 2nd order

  Scale SEOQF with 1.000000e-01/1.000000e-01/1.000000e-01

 Standard Electronic Orientation quadrupole field applied
 Nucleus-field energy     =    -0.0000000023 hartrees
 Guess from superposition of atomic densities
 Warning:  Energy on first SCF cycle will be non-variational
 Long-range K will be added via erf
 Coulomb attenuation parameter = 0.9 bohr**(-1)
 An unrestricted Kohn-Sham SCF calculation will be
 performed using Pulay DIIS extrapolation
 Exchange:  wPBE + LR-HF      Correlation:  PBE
 Using SG-1 standard quadrature grid
 SCF converges when DIIS error is below 1.0E-05
 Requested basis set is G3large
 There are 30 shells and 126 basis functions
 A cutoff of  1.0D-08 yielded    428 shell pairs
 There are   7727 function pairs ( 10149 Cartesian)
 Warning!  Inaccurate integrated density:
   Number of electrons =    21
   Numerical integral  =    22.000089919572
   Relative error      =     4.7623329503 %
 ---------------------------------------
  Cycle       Energy         DIIS Error
 ---------------------------------------
    1    -189.2169024051      4.88E-02
    2    -187.8304198959      7.46E-03
    3    -187.9504255163      4.08E-03
    4    -187.9770323454      1.16E-03
    5    -187.9829046914      4.40E-04
    6    -187.9859039231      1.47E-04
    7    -187.9868106195      5.43E-05
    8    -187.9869789206      2.50E-05
    9    -187.9870138357      5.91E-06 Convergence criterion met
 ---------------------------------------
 One-Electron    Energy =  -365.4619492153
 Total Coulomb   Energy =   140.6413727504
 Alpha Exchange  Energy =    -4.2769959098
 Beta  Exchange  Energy =    -3.8242885432
 DFT   Exchange  Energy =   -13.2769220310
 DFT Correlation Energy =    -0.6976880839
 Nuclear Repu.   Energy =    58.9094571971
 Nuclear Attr.   Energy =  -553.0956894530
 Kinetic         Energy =   187.6337402378
 <S^2> = 0.8632
 SCF time:  CPU 27.43 s  wall 27.99 s
 Final Alpha MO Eigenvalues
            1           2           3           4           5           6
    1 -19.7373258 -19.7371677 -10.9417520  -1.8875497  -1.8452833  -1.1752530
            7           8           9          10          11          12
    1  -1.1528460  -1.1336891  -1.1147178  -1.0279799  -0.9642008  -0.1839672
           13          14          15          16
    1  -0.1725482  -0.1627196  -0.0755635  -0.0739816
 Final Beta MO Eigenvalues
            1           2           3           4           5           6
    1 -19.7191172 -19.7189993 -10.9500078  -1.8452345  -1.7792184  -1.1509405
            7           8           9          10          11          12
    1  -1.1054034  -1.1045696  -1.0060727  -0.9333385  -0.4746748  -0.1764654
           13          14          15
    1  -0.1647462  -0.1150129  -0.0768790
 Analysis of SCF Wavefunction
 
 --------------------------------------------------------------
                    Orbital Energies (a.u.)
 --------------------------------------------------------------
 
 Alpha MOs
 -- Occupied --
-19.737 -19.737 -10.942  -1.888  -1.845  -1.175  -1.153  -1.134
 -1.115  -1.028  -0.964
 -- Virtual --
 -0.184  -0.173  -0.163  -0.076  -0.074  -0.065  -0.005   0.053
  0.056   0.063   0.115   0.129   0.135   0.161   0.195   0.403
  0.403   0.410   0.410   0.517   0.569   0.728   0.774   0.788
  0.831   0.838   0.866   0.935   0.960   0.999   1.153   1.203
  1.204   1.495   1.495   1.627   1.740   1.765   1.886   2.198
  2.217   2.372   2.428   2.537   2.543   2.564   2.564   2.871
  2.871   2.891   2.969   2.969   3.098   3.108   3.622   3.640
  3.784   4.691   4.739   4.816   4.817   4.817   4.821   4.860
  4.894   4.899   4.903   4.970   4.977   5.647   5.671   5.690
  6.083   6.111   6.560   6.561   6.604   6.605   6.768   6.808
  6.850   7.247   7.329   7.369   7.526   7.625   7.653   8.350
 24.516  27.105  27.112  28.866  40.566  40.802  40.978  40.984
 41.023  43.430  43.457  43.488  43.514  43.598  43.628  43.728
 43.736  43.758  43.903  45.398  45.425  45.780  45.807  46.316
 46.699  49.762  51.151
 
 Beta MOs
 -- Occupied --
-19.719 -19.719 -10.950  -1.845  -1.779  -1.151  -1.105  -1.105
 -1.006  -0.933
 -- Virtual --
 -0.475  -0.176  -0.165  -0.115  -0.077  -0.075  -0.064  -0.007
  0.054   0.064   0.069   0.116   0.136   0.141   0.164   0.194
  0.392   0.392   0.393   0.404   0.522   0.566   0.741   0.787
  0.792   0.836   0.876   0.898   0.968   0.985   1.008   1.167
  1.248   1.249   1.535   1.536   1.644   1.769   1.773   1.892
  2.220   2.222   2.381   2.440   2.514   2.526   2.545   2.546
  2.871   2.872   2.891   2.936   2.936   3.099   3.104   3.642
  3.642   3.783   4.763   4.775   4.840   4.860   4.861   4.887
  4.895   4.936   4.936   4.936   5.000   5.001   5.691   5.701
  5.703   6.117   6.118   6.630   6.635   6.677   6.682   6.823
  6.830   6.866   7.276   7.383   7.390   7.536   7.661   7.661
  8.367  24.508  27.096  27.099  28.861  40.553  40.790  40.973
 40.975  41.017  43.475  43.501  43.533  43.559  43.636  43.642
 43.756  43.766  43.772  43.925  45.438  45.443  45.820  45.826
 46.328  46.712  49.780  51.167
 --------------------------------------------------------------
 
          Ground-State Mulliken Net Atomic Charges

     Atom                 Charge (a.u.)    Spin (a.u.)
  --------------------------------------------------------
      1 C                     0.549309      -0.393619
      2 O                     0.225366       0.696816
      3 O                     0.225325       0.696804
  --------------------------------------------------------
  Sum of atomic charges =     1.000000
  Sum of spin   charges =     1.000000

 -----------------------------------------------------------------
                    Cartesian Multipole Moments
 -----------------------------------------------------------------
    Charge (ESU x 10^10)
                 4.8032
    Dipole Moment (Debye)
         X       0.0000      Y       0.0000      Z       0.0002
       Tot       0.0002
    Quadrupole Moments (Debye-Ang)
        XX     -12.1234     XY      -0.3914     YY     -12.5031
        XZ       0.0005     YZ      -0.0003     ZZ     -11.2265
    Octapole Moments (Debye-Ang^2)
       XXX       0.0000    XXY       0.0000    XYY       0.0000
       YYY       0.0000    XXZ       0.0000    XYZ       0.0000
       YYZ       0.0000    XZZ       0.0000    YZZ       0.0000
       ZZZ       0.0002
    Hexadecapole Moments (Debye-Ang^3)
      XXXX      -7.9703   XXXY      -0.1786   XXYY      -2.7148
      XYYY      -0.1790   YYYY      -8.3173   XXXZ       0.0002
      XXYZ      -0.0001   XYYZ       0.0001   YYYZ      -0.0002
      XXZZ     -14.1219   XYZZ      -0.6944   YYZZ     -14.7957
      XZZZ       0.0014   YZZZ      -0.0009   ZZZZ     -76.6788
 -----------------------------------------------------------------
 Total job time:  28.12s(wall), 27.55s(cpu) 
 Mon Jul  8 12:26:48 2013

        *************************************************************
        *                                                           *
        *  Thank you very much for using Q-Chem.  Have a nice day.  *
        *                                                           *
        *************************************************************


0 sent ACK to 0 
now end server 0 ... 
