Process 0 of 1 is on cl054.dal.acenet.ca - thread support 1
initial socket setup ...start
initial socket setup ...done 
now start server 0 ... 

cmd = /usr/bin/ssh glooscap.ace-net.ca /usr/local/qchem/bin/get_hostid 1530667184 > /tmp/179727.1.long.q/qchem15441/lic.dat
                  Welcome to Q-Chem
     A Quantum Leap Into The Future Of Chemistry

 Y. Shao, L. Fusti-Molnar, Y. Jung, J. Kussmann, C. Ochsenfeld,
 S. T. Brown, A. T. B. Gilbert, L. V. Slipchenko,S. V. Levchenko,
 D. P. O'Neill, R. A. DiStasio Jr., R. C. Lochan, T. Wang,
 G. J. O. Beran, N. A. Besley, J. M. Herbert, C. Y. Lin,
 T. Van Voorhis, S. H. Chien, A. Sodt, R. P. Steele, 
 V. A. Rassolov, P. E. Maslen, P. P. Korambath, R. D. Adamson,
 B. Austin, J. Baker, E. F. C. Byrd, H. Dachsel, R. J. Doerksen,
 A. Dreuw, B. D. Dunietz, A. D. Dutoi, T. R. Furlani,
 S. R. Gwaltney, A. Heyden, S. Hirata, C.-P. Hsu, G. Kedziora,
 R. Z. Khaliullin, P. Klunzinger, A. M. Lee, M. S. Lee, W. Liang,
 I. Lotan, N. Nair, B. Peters, E. I. Proynov, P. A. Pieniazek, 
 Y. M. Rhee, J. Ritchie, E. Rosta, C. D. Sherrill, 
 A. C. Simmonett, J. E. Subotnik, H. L. Woodcock III,
 W. Zhang, A. T. Bell, A. K. Chakraborty, D. M. Chipman,
 F. J. Keil, A. Warshel, W. J. Hehre, H. F. Schaefer III,
 J. Kong, A. I. Krylov, P. M. W. Gill, M. Head-Gordon,
 Q-Chem, Version 3.1, Q-Chem, Inc., Pittsburgh, PA (2007).

 Additional authors for Version 3.1: 
 Z. Gan, Y. Zhao, N. E. Schultz, D. Truhlar, E. Epifanovsky and M. Oana.

 Additional authors for Version 3.2: 
 R. Baer, B. R. Brooks, D. Casanova, J.-D. Chai, C.-L. Cheng, 
 C. Cramer, D. Crittenden, A. Ghysels, G. Hawkins, E. G. Hohenstein, 
 C. Kelley, W. Kurlancheek, D. Liotard, E. Livshits, P. Manohar, 
 A. Marenich, D. Neuhauser, R. Olson, M. A. Rohrdanz, K. S. Thanthiriwatte, 
 A. J. W. Thom, V. Vanovschi, C. F. Williams, Q. Wu and Z.-Q. You. 


 Intel X86 Linux Version

 Q-chem begins on Tue Apr 12 13:35:41 2011  

 Parallel job on  1  processors
Processing $rem in /usr/local/qchem/config/preferences.

theFileMan(): MAXOPENFILES=974 MAX_SUB_FILE_NUM=16
Maximum size of a physical file is 2.0 GB, maximum size of a tmp-file is 32.0 GB


--------------------------------------------------------------
User input:
--------------------------------------------------------------

$molecule
-1,2
 C        27.589041       23.466286       25.344061
 C        26.339153       23.225647       24.775341
 C        25.423603       24.268255       24.563448
 C        25.808182       25.560291       24.954315
 C        27.058195       25.800951       25.523088
 C        27.973625       24.758410       25.735035
 H        28.281313       22.632208       25.481283
 H        26.068596       22.204544       24.496038
 H        25.116135       26.394463       24.817167
 H        27.328890       26.822035       25.802298
 H        23.708551       24.814869       23.583281
 H        24.079388       23.185360       23.458334
 H        29.688467       24.211771       26.715748
 H        29.317875       25.841635       26.839811
 N        29.254854       25.009876       26.258593
 N        24.142208       24.016731       24.040218

$end

$comment
negative
$end

$xc_functional
   X HF 1.0
   X BNL 1.0
   C LYP 1.0
$end

$rem
SYMMETRY_DECOMPOSITION	0
exchange 		general
BASIS                   g3large
omega			330
separate_jk		true
mem_static              760
max_scf_cycles          200
scf_final_print         1
sym_ignore              true
$end

--------------------------------------------------------------
 Writing REM_CC_EA           16
 ----------------------------------------------------
       Standard Nuclear Orientation (Angstroms)
    I     Atom         X            Y            Z
 ----------------------------------------------------
    1      C      27.589041    23.466286    25.344061
    2      C      26.339153    23.225647    24.775341
    3      C      25.423603    24.268255    24.563448
    4      C      25.808182    25.560291    24.954315
    5      C      27.058195    25.800951    25.523088
    6      C      27.973625    24.758410    25.735035
    7      H      28.281313    22.632208    25.481283
    8      H      26.068596    22.204544    24.496038
    9      H      25.116135    26.394463    24.817167
   10      H      27.328890    26.822035    25.802298
   11      H      23.708551    24.814869    23.583281
   12      H      24.079388    23.185360    23.458334
   13      H      29.688467    24.211771    26.715748
   14      H      29.317875    25.841635    26.839811
   15      N      29.254854    25.009876    26.258593
   16      N      24.142208    24.016731    24.040218
 ----------------------------------------------------
 Nuclear Repulsion Energy =   343.5292271490 hartrees
 There are       30 alpha and       29 beta electrons
 Requested basis set is G3large
 There are 128 shells and 416 basis functions

Total QAlloc Memory Limit   2000 MB
Mega-Array Size       743 MB
MEM_STATIC part       760 MB
 A cutoff of  1.0D-08 yielded   6560 shell pairs
 There are  69931 function pairs ( 87060 Cartesian)
Evaluating contribution to one-electron hamiltonian from nuclear
 Smallest overlap matrix eigenvalue = 7.44E-07

 Q-Chem warning in module mkSTV.C, line 194:

 Overlap eigenvalue is smaller than square root of threshold

 Linear dependence detected in AO basis
 Number of orthogonalized atomic orbitals = 415
 Maximum deviation from orthogonality = 1.050E-10
 Multipole matrices computed through 2nd order

  Scale SEOQF with 1.000000e-03/1.000000e-03/1.000000e-03

 Standard Electronic Orientation quadrupole field applied
 Nucleus-field energy     =     0.0000000004 hartrees
 Guess from superposition of atomic densities
 Warning:  Energy on first SCF cycle will be non-variational
 An unrestricted hybrid HF-DFT SCF calculation will be
 performed using Pulay DIIS extrapolation
 Exchange:     1.0000 Hartree-Fock + 1.0000 BNL
 Correlation:  1.0000 LYP
 Using SG-1 standard quadrature grid
 SCF converges when DIIS error is below 1.0E-05
 Warning!  Inaccurate integrated density:
   Number of electrons =    59
   Numerical integral  =    58.000897553966
   Relative error      =    -1.6933939763 %
 ---------------------------------------
  Cycle       Energy         DIIS Error
 ---------------------------------------
    1    -341.5604666923      2.48E-02
    2    -338.7070365672      3.03E-03
    3    -338.6694642708      3.48E-03
    4    -338.9342610026      6.73E-04
    5    -338.9463671849      2.54E-04
    6    -338.9480535227      6.43E-05
    7    -338.9485262010      4.43E-05
    8    -338.9488047203      3.59E-05
    9    -338.9490330019      3.43E-05
   10    -338.9493584830      3.71E-05
   11    -338.9484417197      3.47E-05
   12    -338.9470300368      8.72E-05
   13    -338.9471753815      8.33E-05
   14    -338.9472073514      8.41E-05
   15    -338.9471433903      8.02E-05
   16    -338.9469342472      7.19E-05
   17    -338.9469345883      6.81E-05
   18    -338.9470807939      4.55E-05
   19    -338.9472443949      3.06E-05
   20    -338.9473948729      2.35E-05
   21    -338.9474513320      2.30E-05
   22    -338.9473393926      2.23E-05
   23    -338.9467545400      3.72E-05
   24    -338.9467756625      3.55E-05
   25    -338.9467717892      3.45E-05
   26    -338.9467814977      3.86E-05
   27    -338.9468297764      1.72E-05
   28    -338.9467768970      1.27E-05
   29    -338.9467598349      1.44E-05
   30    -338.9465398489      3.53E-05
   31    -338.9465048868      3.34E-05
   32    -338.9465486677      1.49E-05
   33    -338.9465003668      2.55E-06 Convergence criterion met
 ---------------------------------------
 One-Electron    Energy = -1153.3306807871
 Total Coulomb   Energy =   516.1876645096
 Alpha Exchange  Energy =    -5.0397620748
 Beta  Exchange  Energy =    -4.8970568182
 DFT   Exchange  Energy =   -33.4162445302
 DFT Correlation Energy =    -1.9796478156
 Nuclear Repu.   Energy =   343.5292271494
 Nuclear Attr.   Energy = -1490.7049672664
 Kinetic         Energy =   337.3742864793
 <S^2> = 0.7614
 SCF time:  CPU 4591.02 s  wall 4596.83 s
 Final Alpha MO Eigenvalues
            1           2           3           4           5           6
    1 -13.8510828 -13.8510255  -9.7877113  -9.7876205  -9.7290380  -9.7288897
            7           8           9          10          11          12
    1  -9.7287214  -9.7286483  -0.8450378  -0.8389497  -0.7370029  -0.6531123
           13          14          15          16          17          18
    1  -0.6269347  -0.5403584  -0.5169555  -0.4604641  -0.4483470  -0.4232546
           19          20          21          22          23          24
    1  -0.4141068  -0.3447680  -0.3316847  -0.3252049  -0.3190425  -0.3023079
           25          26          27          28          29          30
    1  -0.2777440  -0.2423960  -0.2082955  -0.1709012  -0.1066627   0.0470799
           31          32          33          34          35
    1   0.1337113   0.1346758   0.1454820   0.1538826   0.1560675
 Final Beta MO Eigenvalues
            1           2           3           4           5           6
    1 -13.8511461 -13.8510876  -9.7890746  -9.7889806  -9.7253775  -9.7252340
            7           8           9          10          11          12
    1  -9.7250265  -9.7249386  -0.8446146  -0.8389288  -0.7330271  -0.6453674
           13          14          15          16          17          18
    1  -0.6238862  -0.5320937  -0.5157301  -0.4597157  -0.4458815  -0.4208501
           19          20          21          22          23          24
    1  -0.4114588  -0.3413065  -0.3288115  -0.3184552  -0.3152220  -0.2988230
           25          26          27          28          29          30
    1  -0.2747198  -0.2397362  -0.2024791  -0.1396825  -0.0923655   0.1298859
           31          32          33          34
    1   0.1320031   0.1370068   0.1475909   0.1515206
 Analysis of SCF Wavefunction
 
 --------------------------------------------------------------
                    Orbital Energies (a.u.)
 --------------------------------------------------------------
 
 Alpha MOs
 -- Occupied --
-13.851 -13.851  -9.788  -9.788  -9.729  -9.729  -9.729  -9.729
 -0.845  -0.839  -0.737  -0.653  -0.627  -0.540  -0.517  -0.460
 -0.448  -0.423  -0.414  -0.345  -0.332  -0.325  -0.319  -0.302
 -0.278  -0.242  -0.208  -0.171  -0.107   0.047
 -- Virtual --
  0.134   0.135   0.145   0.154   0.156   0.183   0.188   0.208
  0.230   0.235   0.249   0.265   0.270   0.278   0.278   0.283
  0.284   0.289   0.299   0.306   0.310   0.316   0.326   0.329
  0.331   0.338   0.340   0.345   0.356   0.361   0.365   0.374
  0.379   0.387   0.397   0.413   0.422   0.425   0.438   0.438
  0.444   0.459   0.464   0.483   0.493   0.494   0.501   0.504
  0.522   0.534   0.562   0.599   0.616   0.618   0.631   0.689
  0.735   0.741   0.773   0.776   0.777   0.779   0.782   0.786
  0.803   0.818   0.827   0.834   0.840   0.843   0.845   0.862
  0.888   0.902   0.905   0.908   0.909   0.917   0.919   0.929
  0.949   0.960   0.965   0.975   0.977   0.985   0.990   1.028
  1.030   1.042   1.046   1.050   1.059   1.070   1.092   1.094
  1.106   1.116   1.118   1.169   1.190   1.197   1.228   1.244
  1.287   1.293   1.305   1.307   1.321   1.333   1.345   1.364
  1.377   1.388   1.413   1.435   1.439   1.450   1.483   1.505
  1.518   1.531   1.547   1.554   1.584   1.587   1.589   1.601
  1.621   1.628   1.659   1.674   1.676   1.679   1.718   1.734
  1.757   1.762   1.784   1.812   1.889   1.937   1.946   1.958
  1.982   2.018   2.019   2.046   2.053   2.067   2.100   2.108
  2.110   2.140   2.158   2.200   2.294   2.413   2.476   2.505
  2.589   2.711   2.801   2.805   2.806   2.871   2.899   2.912
  2.935   2.970   2.984   2.993   3.003   3.028   3.044   3.060
  3.063   3.068   3.097   3.099   3.116   3.145   3.149   3.157
  3.164   3.183   3.205   3.216   3.218   3.247   3.323   3.344
  3.347   3.365   3.397   3.423   3.455   3.455   3.468   3.472
  3.477   3.491   3.500   3.502   3.540   3.541   3.557   3.593
  3.614   3.638   3.643   3.650   3.663   3.667   3.676   3.689
  3.701   3.731   3.737   3.765   3.766   3.800   3.822   3.842
  3.861   3.890   3.897   3.937   3.939   3.957   3.984   3.997
  4.012   4.015   4.034   4.068   4.146   4.155   4.158   4.161
  4.164   4.188   4.208   4.226   4.244   4.246   4.253   4.261
  4.272   4.331   4.338   4.358   4.405   4.440   4.516   4.529
  4.558   4.586   4.606   4.622   4.636   4.647   4.670   4.672
  4.685   4.703   4.722   4.748   4.772   4.783   4.790   4.809
  4.877   4.928   4.953   4.961   5.063   5.072   5.088   5.115
  5.164   5.212   5.213   5.232   5.280   5.378   5.400   5.407
  5.446   5.477   5.478   5.500   5.537   5.540   5.603   5.617
  5.673   5.820   5.829   5.852   5.922   5.924   6.057   6.071
  6.074   6.143   6.228   6.308   6.561   6.616   6.625   6.671
  6.765  24.107  24.651  24.682  24.925  24.934  25.418  27.449
 27.613  27.623  27.693  27.711  27.921  28.151  28.271  28.286
 28.438  28.463  28.465  28.697  28.717  28.791  28.816  28.851
 29.368  36.098  36.122  37.746  37.753  38.445  38.455  38.626
 38.718  40.679  40.684  40.752  40.753  40.848  40.850  40.872
 40.875  40.955  40.959  41.037  41.044  41.103  41.106  41.112
 41.112  41.132  41.137  41.175  41.219  41.262  41.279  41.371
 41.381  41.405  41.423  41.437  41.437  41.438  41.456  41.470
 41.477  41.505  41.511  41.562  41.601  41.623  41.642  41.706
 41.734
 
 Beta MOs
 -- Occupied --
-13.851 -13.851  -9.789  -9.789  -9.725  -9.725  -9.725  -9.725
 -0.845  -0.839  -0.733  -0.645  -0.624  -0.532  -0.516  -0.460
 -0.446  -0.421  -0.411  -0.341  -0.329  -0.318  -0.315  -0.299
 -0.275  -0.240  -0.202  -0.140  -0.092
 -- Virtual --
  0.130   0.132   0.137   0.148   0.152   0.175   0.181   0.202
  0.225   0.231   0.236   0.246   0.263   0.267   0.275   0.277
  0.279   0.281   0.284   0.295   0.304   0.315   0.320   0.323
  0.326   0.332   0.333   0.337   0.341   0.354   0.358   0.361
  0.374   0.374   0.380   0.397   0.409   0.419   0.424   0.435
  0.442   0.442   0.460   0.474   0.481   0.491   0.493   0.499
  0.503   0.523   0.534   0.563   0.601   0.617   0.618   0.631
  0.689   0.735   0.746   0.777   0.778   0.782   0.782   0.784
  0.789   0.808   0.821   0.829   0.836   0.841   0.845   0.850
  0.862   0.889   0.904   0.906   0.908   0.912   0.919   0.920
  0.929   0.953   0.965   0.967   0.977   0.983   0.986   0.992
  1.029   1.032   1.042   1.049   1.051   1.064   1.072   1.094
  1.098   1.108   1.118   1.119   1.170   1.190   1.199   1.231
  1.244   1.290   1.295   1.306   1.311   1.324   1.334   1.347
  1.367   1.378   1.388   1.414   1.435   1.439   1.452   1.487
  1.509   1.519   1.533   1.548   1.554   1.587   1.589   1.590
  1.603   1.623   1.630   1.661   1.675   1.678   1.686   1.718
  1.734   1.759   1.764   1.786   1.815   1.890   1.940   1.947
  1.961   1.983   2.021   2.022   2.050   2.053   2.068   2.103
  2.111   2.112   2.141   2.160   2.203   2.297   2.414   2.478
  2.507   2.589   2.714   2.803   2.810   2.811   2.875   2.903
  2.921   2.943   2.972   2.984   3.001   3.005   3.030   3.049
  3.067   3.070   3.071   3.099   3.105   3.122   3.148   3.159
  3.167   3.170   3.185   3.212   3.221   3.223   3.249   3.329
  3.347   3.348   3.367   3.404   3.426   3.457   3.458   3.473
  3.477   3.483   3.494   3.506   3.509   3.542   3.547   3.559
  3.596   3.620   3.641   3.645   3.654   3.665   3.672   3.678
  3.696   3.703   3.738   3.744   3.767   3.770   3.805   3.827
  3.847   3.863   3.894   3.899   3.941   3.944   3.959   3.988
  3.999   4.014   4.025   4.037   4.071   4.148   4.158   4.163
  4.165   4.165   4.191   4.210   4.227   4.247   4.247   4.255
  4.267   4.275   4.332   4.340   4.361   4.409   4.443   4.516
  4.531   4.563   4.588   4.610   4.625   4.638   4.651   4.676
  4.676   4.689   4.708   4.726   4.752   4.778   4.791   4.792
  4.812   4.878   4.930   4.957   4.962   5.066   5.075   5.090
  5.119   5.164   5.215   5.216   5.235   5.282   5.381   5.401
  5.409   5.446   5.478   5.479   5.500   5.538   5.541   5.604
  5.618   5.674   5.821   5.830   5.854   5.922   5.925   6.060
  6.074   6.074   6.144   6.230   6.310   6.561   6.616   6.624
  6.671   6.768  24.110  24.656  24.683  24.926  24.939  25.420
 27.453  27.620  27.623  27.694  27.718  27.925  28.152  28.272
 28.287  28.440  28.464  28.466  28.698  28.719  28.793  28.817
 28.853  29.370  36.098  36.122  37.746  37.753  38.445  38.455
 38.626  38.718  40.679  40.684  40.752  40.753  40.848  40.850
 40.872  40.875  40.955  40.959  41.038  41.044  41.107  41.111
 41.116  41.118  41.137  41.137  41.178  41.222  41.264  41.282
 41.370  41.383  41.406  41.427  41.442  41.442  41.444  41.461
 41.471  41.478  41.507  41.512  41.565  41.604  41.626  41.645
 41.708  41.735
 --------------------------------------------------------------
 
          Ground-State Mulliken Net Atomic Charges

     Atom                 Charge (a.u.)    Spin (a.u.)
  --------------------------------------------------------
      1 C                    -0.038002       0.188072
      2 C                    -0.041772       0.191595
      3 C                    -0.380669      -0.081937
      4 C                    -0.046284       0.195829
      5 C                    -0.048402       0.199388
      6 C                    -0.378085      -0.082130
      7 H                    -0.020939       0.103391
      8 H                    -0.016421       0.098725
      9 H                    -0.000754       0.083013
     10 H                     0.002617       0.079259
     11 H                     0.176377      -0.000094
     12 H                     0.177167      -0.000836
     13 H                     0.177575      -0.001246
     14 H                     0.176063       0.000248
     15 N                    -0.369287       0.013393
     16 N                    -0.369184       0.013331
  --------------------------------------------------------
  Sum of atomic charges =    -1.000000
  Sum of spin   charges =     1.000000

 -----------------------------------------------------------------
                    Cartesian Multipole Moments
 -----------------------------------------------------------------
    Charge (ESU x 10^10)
                -4.8032
    Dipole Moment (Debye)
         X    -128.2606      Y    -117.6444      Z    -120.7889
       Tot     211.8512
    Quadrupole Moments (Debye-Ang)
        XX   -3491.8054     XY   -3142.6506     YY   -2945.8819
        XZ   -3217.4144     YZ   -2957.3197     ZZ   -3092.9624
    Octapole Moments (Debye-Ang^2)
       XXX  -96811.6738    XXY  -85587.8318    XYY  -78721.8661
       YYY  -75311.1009    XXZ  -87381.6999    XYZ  -78802.6230
       YYZ  -74025.4065    XZZ  -82187.7703    YZZ  -75698.7166
       ZZZ  -80567.8189
    Hexadecapole Moments (Debye-Ang^3)
      XXXX ************   XXXY ************   XXYY ************
      XYYY ************   YYYY ************   XXXZ ************
      XXYZ ************   XYYZ ************   YYYZ ************
      XXZZ ************   XYZZ ************   YYZZ ************
      XZZZ ************   YZZZ ************   ZZZZ ************
 -----------------------------------------------------------------
 Total job time:  4598.30s(wall), 4592.47s(cpu) 
 Tue Apr 12 14:52:19 2011

        *************************************************************
        *                                                           *
        *  Thank you very much for using Q-Chem.  Have a nice day.  *
        *                                                           *
        *************************************************************


0 sent ACK to 0 
now end server 0 ... 
 
**********************************************************************
Job 2 of 3 
**********************************************************************
 
Process 0 of 1 is on cl054.dal.acenet.ca - thread support 1
initial socket setup ...start
initial socket setup ...done 
now start server 0 ... 

cmd = /usr/bin/ssh glooscap.ace-net.ca /usr/local/qchem/bin/get_hostid 146136604 > /tmp/179727.1.long.q/qchem15441/lic.dat
                  Welcome to Q-Chem
     A Quantum Leap Into The Future Of Chemistry

 Y. Shao, L. Fusti-Molnar, Y. Jung, J. Kussmann, C. Ochsenfeld,
 S. T. Brown, A. T. B. Gilbert, L. V. Slipchenko,S. V. Levchenko,
 D. P. O'Neill, R. A. DiStasio Jr., R. C. Lochan, T. Wang,
 G. J. O. Beran, N. A. Besley, J. M. Herbert, C. Y. Lin,
 T. Van Voorhis, S. H. Chien, A. Sodt, R. P. Steele, 
 V. A. Rassolov, P. E. Maslen, P. P. Korambath, R. D. Adamson,
 B. Austin, J. Baker, E. F. C. Byrd, H. Dachsel, R. J. Doerksen,
 A. Dreuw, B. D. Dunietz, A. D. Dutoi, T. R. Furlani,
 S. R. Gwaltney, A. Heyden, S. Hirata, C.-P. Hsu, G. Kedziora,
 R. Z. Khaliullin, P. Klunzinger, A. M. Lee, M. S. Lee, W. Liang,
 I. Lotan, N. Nair, B. Peters, E. I. Proynov, P. A. Pieniazek, 
 Y. M. Rhee, J. Ritchie, E. Rosta, C. D. Sherrill, 
 A. C. Simmonett, J. E. Subotnik, H. L. Woodcock III,
 W. Zhang, A. T. Bell, A. K. Chakraborty, D. M. Chipman,
 F. J. Keil, A. Warshel, W. J. Hehre, H. F. Schaefer III,
 J. Kong, A. I. Krylov, P. M. W. Gill, M. Head-Gordon,
 Q-Chem, Version 3.1, Q-Chem, Inc., Pittsburgh, PA (2007).

 Additional authors for Version 3.1: 
 Z. Gan, Y. Zhao, N. E. Schultz, D. Truhlar, E. Epifanovsky and M. Oana.

 Additional authors for Version 3.2: 
 R. Baer, B. R. Brooks, D. Casanova, J.-D. Chai, C.-L. Cheng, 
 C. Cramer, D. Crittenden, A. Ghysels, G. Hawkins, E. G. Hohenstein, 
 C. Kelley, W. Kurlancheek, D. Liotard, E. Livshits, P. Manohar, 
 A. Marenich, D. Neuhauser, R. Olson, M. A. Rohrdanz, K. S. Thanthiriwatte, 
 A. J. W. Thom, V. Vanovschi, C. F. Williams, Q. Wu and Z.-Q. You. 


 Intel X86 Linux Version

 Q-chem begins on Tue Apr 12 14:52:40 2011  

 Parallel job on  1  processors
Processing $rem in /usr/local/qchem/config/preferences.

theFileMan(): MAXOPENFILES=974 MAX_SUB_FILE_NUM=16
Maximum size of a physical file is 2.0 GB, maximum size of a tmp-file is 32.0 GB


--------------------------------------------------------------
User input:
--------------------------------------------------------------

$molecule
0,1
 C        27.589041       23.466286       25.344061
 C        26.339153       23.225647       24.775341
 C        25.423603       24.268255       24.563448
 C        25.808182       25.560291       24.954315
 C        27.058195       25.800951       25.523088
 C        27.973625       24.758410       25.735035
 H        28.281313       22.632208       25.481283
 H        26.068596       22.204544       24.496038
 H        25.116135       26.394463       24.817167
 H        27.328890       26.822035       25.802298
 H        23.708551       24.814869       23.583281
 H        24.079388       23.185360       23.458334
 H        29.688467       24.211771       26.715748
 H        29.317875       25.841635       26.839811
 N        29.254854       25.009876       26.258593
 N        24.142208       24.016731       24.040218

$end

$comment
neutral
$end

$xc_functional
   X HF 1.0
   X BNL 1.0
   C LYP 1.0
$end

$rem
SYMMETRY_DECOMPOSITION	0
exchange 		general
BASIS                   g3large
omega			330
separate_jk		true
mem_static              760
max_scf_cycles          200
scf_final_print         1
sym_ignore              true
$end

--------------------------------------------------------------
 Writing REM_CC_EA           16
 ----------------------------------------------------
       Standard Nuclear Orientation (Angstroms)
    I     Atom         X            Y            Z
 ----------------------------------------------------
    1      C      27.589041    23.466286    25.344061
    2      C      26.339153    23.225647    24.775341
    3      C      25.423603    24.268255    24.563448
    4      C      25.808182    25.560291    24.954315
    5      C      27.058195    25.800951    25.523088
    6      C      27.973625    24.758410    25.735035
    7      H      28.281313    22.632208    25.481283
    8      H      26.068596    22.204544    24.496038
    9      H      25.116135    26.394463    24.817167
   10      H      27.328890    26.822035    25.802298
   11      H      23.708551    24.814869    23.583281
   12      H      24.079388    23.185360    23.458334
   13      H      29.688467    24.211771    26.715748
   14      H      29.317875    25.841635    26.839811
   15      N      29.254854    25.009876    26.258593
   16      N      24.142208    24.016731    24.040218
 ----------------------------------------------------
 Nuclear Repulsion Energy =   343.5292271490 hartrees
 There are       29 alpha and       29 beta electrons
 Requested basis set is G3large
 There are 128 shells and 416 basis functions

Total QAlloc Memory Limit   2000 MB
Mega-Array Size       743 MB
MEM_STATIC part       760 MB
 A cutoff of  1.0D-08 yielded   6560 shell pairs
 There are  69931 function pairs ( 87060 Cartesian)
Evaluating contribution to one-electron hamiltonian from nuclear
 Smallest overlap matrix eigenvalue = 7.44E-07

 Q-Chem warning in module mkSTV.C, line 194:

 Overlap eigenvalue is smaller than square root of threshold

 Linear dependence detected in AO basis
 Number of orthogonalized atomic orbitals = 415
 Maximum deviation from orthogonality = 1.050E-10
 Multipole matrices computed through 2nd order

  Scale SEOQF with 1.000000e-03/1.000000e-03/1.000000e-03

 Standard Electronic Orientation quadrupole field applied
 Nucleus-field energy     =     0.0000000004 hartrees
 Guess from superposition of atomic densities
 Warning:  Energy on first SCF cycle will be non-variational
 A restricted hybrid HF-DFT SCF calculation will be
 performed using Pulay DIIS extrapolation
 Exchange:     1.0000 Hartree-Fock + 1.0000 BNL
 Correlation:  1.0000 LYP
 Using SG-1 standard quadrature grid
 SCF converges when DIIS error is below 1.0E-05
 ---------------------------------------
  Cycle       Energy         DIIS Error
 ---------------------------------------
    1    -341.5604666923      2.48E-02
    2    -338.8859678538      2.21E-03
    3    -338.9575688616      1.47E-03
    4    -338.9970010275      2.24E-04
    5    -338.9981789873      7.61E-05
    6    -338.9983161909      3.89E-05
    7    -338.9983372178      6.18E-06 Convergence criterion met
 ---------------------------------------
 One-Electron    Energy = -1142.9817146794
 Total Coulomb   Energy =   505.5490255358
 Alpha Exchange  Energy =    -4.9078342716
 Beta  Exchange  Energy =    -4.9078342716
 DFT   Exchange  Energy =   -33.3237543928
 DFT Correlation Energy =    -1.9554522877
 Nuclear Repu.   Energy =   343.5292271494
 Nuclear Attr.   Energy = -1480.0911189331
 Kinetic         Energy =   337.1094042537
 SCF time:  CPU 753.02 s  wall 754.19 s
 Final Alpha MO Eigenvalues
            1           2           3           4           5           6
    1 -14.0053718 -14.0053606  -9.9688386  -9.9687453  -9.9315770  -9.9314602
            7           8           9          10          11          12
    1  -9.9310771  -9.9310089  -1.0116639  -1.0005553  -0.9188553  -0.8423074
           13          14          15          16          17          18
    1  -0.8050042  -0.7194473  -0.6925738  -0.6269393  -0.6241104  -0.5900289
           19          20          21          22          23          24
    1  -0.5726403  -0.5288494  -0.5145081  -0.5035845  -0.5021860  -0.4802836
           25          26          27          28          29          30
    1  -0.4452530  -0.4272639  -0.3713947  -0.3446688  -0.2677110   0.0290119
           31          32          33          34
    1   0.0335743   0.0404272   0.0554799   0.0560715
 Analysis of SCF Wavefunction
 
 --------------------------------------------------------------
                    Orbital Energies (a.u.)
 --------------------------------------------------------------
 
 Alpha MOs
 -- Occupied --
-14.005 -14.005  -9.969  -9.969  -9.932  -9.931  -9.931  -9.931
 -1.012  -1.001  -0.919  -0.842  -0.805  -0.719  -0.693  -0.627
 -0.624  -0.590  -0.573  -0.529  -0.515  -0.504  -0.502  -0.480
 -0.445  -0.427  -0.371  -0.345  -0.268
 -- Virtual --
  0.029   0.034   0.040   0.055   0.056   0.058   0.077   0.087
  0.089   0.103   0.110   0.127   0.131   0.135   0.139   0.148
  0.157   0.160   0.169   0.173   0.174   0.182   0.195   0.197
  0.204   0.204   0.212   0.220   0.225   0.226   0.228   0.240
  0.247   0.256   0.262   0.275   0.277   0.287   0.288   0.295
  0.304   0.308   0.318   0.329   0.351   0.352   0.353   0.359
  0.362   0.374   0.375   0.397   0.437   0.451   0.461   0.471
  0.530   0.567   0.578   0.607   0.607   0.611   0.617   0.620
  0.626   0.639   0.649   0.671   0.679   0.680   0.687   0.691
  0.706   0.725   0.742   0.742   0.747   0.753   0.757   0.758
  0.774   0.778   0.787   0.812   0.813   0.814   0.828   0.831
  0.861   0.868   0.889   0.890   0.891   0.892   0.903   0.923
  0.930   0.935   0.938   0.949   1.014   1.034   1.037   1.064
  1.090   1.120   1.136   1.140   1.142   1.158   1.173   1.180
  1.188   1.212   1.229   1.248   1.271   1.279   1.282   1.313
  1.337   1.351   1.365   1.376   1.392   1.414   1.417   1.423
  1.434   1.450   1.451   1.500   1.507   1.511   1.512   1.553
  1.581   1.588   1.597   1.620   1.648   1.712   1.772   1.786
  1.788   1.826   1.842   1.851   1.873   1.889   1.909   1.932
  1.946   1.947   1.986   1.988   2.024   2.114   2.235   2.308
  2.334   2.419   2.534   2.617   2.632   2.636   2.688   2.714
  2.732   2.748   2.794   2.813   2.822   2.826   2.853   2.863
  2.881   2.882   2.886   2.912   2.914   2.932   2.961   2.962
  2.969   2.978   2.998   3.018   3.031   3.039   3.066   3.146
  3.161   3.165   3.182   3.212   3.244   3.270   3.275   3.283
  3.287   3.292   3.305   3.315   3.317   3.356   3.362   3.379
  3.415   3.429   3.458   3.465   3.477   3.484   3.494   3.503
  3.514   3.526   3.548   3.561   3.591   3.596   3.621   3.644
  3.661   3.689   3.720   3.721   3.759   3.762   3.781   3.810
  3.828   3.830   3.843   3.863   3.902   3.978   3.979   3.981
  3.985   3.985   4.013   4.031   4.065   4.068   4.071   4.081
  4.084   4.089   4.172   4.176   4.177   4.222   4.262   4.338
  4.347   4.380   4.415   4.430   4.442   4.457   4.469   4.487
  4.500   4.501   4.522   4.544   4.571   4.589   4.595   4.620
  4.629   4.711   4.765   4.775   4.780   4.885   4.898   4.914
  4.937   4.997   5.037   5.040   5.051   5.102   5.203   5.226
  5.237   5.290   5.315   5.317   5.342   5.366   5.372   5.431
  5.455   5.506   5.649   5.653   5.680   5.762   5.764   5.870
  5.891   5.908   5.968   6.046   6.136   6.402   6.463   6.473
  6.506   6.580  23.911  24.451  24.493  24.733  24.739  25.225
 27.254  27.411  27.435  27.505  27.509  27.725  27.958  28.078
 28.096  28.240  28.266  28.272  28.502  28.521  28.593  28.621
 28.659  29.173  35.943  35.967  37.592  37.599  38.291  38.301
 38.471  38.563  40.525  40.529  40.597  40.599  40.693  40.695
 40.717  40.720  40.801  40.805  40.848  40.858  40.902  40.908
 40.913  40.918  40.935  40.948  40.978  41.023  41.070  41.083
 41.184  41.186  41.218  41.227  41.235  41.237  41.240  41.256
 41.279  41.289  41.315  41.316  41.365  41.403  41.423  41.441
 41.513  41.541
 --------------------------------------------------------------
 
          Ground-State Mulliken Net Atomic Charges

     Atom                 Charge (a.u.)
  ----------------------------------------
      1 C                     0.009164
      2 C                     0.014276
      3 C                    -0.404678
      4 C                     0.009491
      5 C                     0.014722
      6 C                    -0.404180
      7 H                     0.154290
      8 H                     0.154187
      9 H                     0.154326
     10 H                     0.154105
     11 H                     0.196223
     12 H                     0.196291
     13 H                     0.196245
     14 H                     0.196288
     15 N                    -0.320385
     16 N                    -0.320363
  ----------------------------------------
  Sum of atomic charges =     0.000000

 -----------------------------------------------------------------
                    Cartesian Multipole Moments
 -----------------------------------------------------------------
    Charge (ESU x 10^10)
                 0.0000
    Dipole Moment (Debye)
         X       0.0010      Y       0.0005      Z      -0.0003
       Tot       0.0012
    Quadrupole Moments (Debye-Ang)
        XX     -47.1527     XY      -1.9675     YY     -42.6779
        XZ      10.9437     YZ       2.7934     ZZ     -45.9732
    Octapole Moments (Debye-Ang^2)
       XXX   -3778.9135    XXY   -1262.6257    XYY   -1237.1846
       YYY   -3139.4565    XXZ    -602.6551    XYZ     292.5819
       YYZ    -936.8222    XZZ    -677.2196    YZZ    -986.4141
       ZZZ   -3468.0161
    Hexadecapole Moments (Debye-Ang^3)
      XXXX -202663.3357   XXXY  -96992.2951   XXYY  -64176.2290
      XYYY  -87452.8444   YYYY -154247.2215   XXXZ  -71758.1705
      XXYZ  -15477.9019   XYYZ  -20936.8591   YYYZ  -73959.2572
      XXZZ  -33362.2093   XYZZ  -14118.1538   YYZZ  -47829.7631
      XZZZ  -71978.9209   YZZZ  -79749.5479   ZZZZ -174638.1872
 -----------------------------------------------------------------
 Total job time:  755.58s(wall), 754.40s(cpu) 
 Tue Apr 12 15:05:16 2011

        *************************************************************
        *                                                           *
        *  Thank you very much for using Q-Chem.  Have a nice day.  *
        *                                                           *
        *************************************************************


0 sent ACK to 0 
now end server 0 ... 
 
**********************************************************************
Job 3 of 3 
**********************************************************************
 
Process 0 of 1 is on cl054.dal.acenet.ca - thread support 1
initial socket setup ...start
initial socket setup ...done 
now start server 0 ... 

cmd = /usr/bin/ssh glooscap.ace-net.ca /usr/local/qchem/bin/get_hostid 825733996 > /tmp/179727.1.long.q/qchem15441/lic.dat
                  Welcome to Q-Chem
     A Quantum Leap Into The Future Of Chemistry

 Y. Shao, L. Fusti-Molnar, Y. Jung, J. Kussmann, C. Ochsenfeld,
 S. T. Brown, A. T. B. Gilbert, L. V. Slipchenko,S. V. Levchenko,
 D. P. O'Neill, R. A. DiStasio Jr., R. C. Lochan, T. Wang,
 G. J. O. Beran, N. A. Besley, J. M. Herbert, C. Y. Lin,
 T. Van Voorhis, S. H. Chien, A. Sodt, R. P. Steele, 
 V. A. Rassolov, P. E. Maslen, P. P. Korambath, R. D. Adamson,
 B. Austin, J. Baker, E. F. C. Byrd, H. Dachsel, R. J. Doerksen,
 A. Dreuw, B. D. Dunietz, A. D. Dutoi, T. R. Furlani,
 S. R. Gwaltney, A. Heyden, S. Hirata, C.-P. Hsu, G. Kedziora,
 R. Z. Khaliullin, P. Klunzinger, A. M. Lee, M. S. Lee, W. Liang,
 I. Lotan, N. Nair, B. Peters, E. I. Proynov, P. A. Pieniazek, 
 Y. M. Rhee, J. Ritchie, E. Rosta, C. D. Sherrill, 
 A. C. Simmonett, J. E. Subotnik, H. L. Woodcock III,
 W. Zhang, A. T. Bell, A. K. Chakraborty, D. M. Chipman,
 F. J. Keil, A. Warshel, W. J. Hehre, H. F. Schaefer III,
 J. Kong, A. I. Krylov, P. M. W. Gill, M. Head-Gordon,
 Q-Chem, Version 3.1, Q-Chem, Inc., Pittsburgh, PA (2007).

 Additional authors for Version 3.1: 
 Z. Gan, Y. Zhao, N. E. Schultz, D. Truhlar, E. Epifanovsky and M. Oana.

 Additional authors for Version 3.2: 
 R. Baer, B. R. Brooks, D. Casanova, J.-D. Chai, C.-L. Cheng, 
 C. Cramer, D. Crittenden, A. Ghysels, G. Hawkins, E. G. Hohenstein, 
 C. Kelley, W. Kurlancheek, D. Liotard, E. Livshits, P. Manohar, 
 A. Marenich, D. Neuhauser, R. Olson, M. A. Rohrdanz, K. S. Thanthiriwatte, 
 A. J. W. Thom, V. Vanovschi, C. F. Williams, Q. Wu and Z.-Q. You. 


 Intel X86 Linux Version

 Q-chem begins on Tue Apr 12 15:05:39 2011  

 Parallel job on  1  processors
Processing $rem in /usr/local/qchem/config/preferences.

theFileMan(): MAXOPENFILES=974 MAX_SUB_FILE_NUM=16
Maximum size of a physical file is 2.0 GB, maximum size of a tmp-file is 32.0 GB


--------------------------------------------------------------
User input:
--------------------------------------------------------------

$molecule
1,2
 C        27.589041       23.466286       25.344061
 C        26.339153       23.225647       24.775341
 C        25.423603       24.268255       24.563448
 C        25.808182       25.560291       24.954315
 C        27.058195       25.800951       25.523088
 C        27.973625       24.758410       25.735035
 H        28.281313       22.632208       25.481283
 H        26.068596       22.204544       24.496038
 H        25.116135       26.394463       24.817167
 H        27.328890       26.822035       25.802298
 H        23.708551       24.814869       23.583281
 H        24.079388       23.185360       23.458334
 H        29.688467       24.211771       26.715748
 H        29.317875       25.841635       26.839811
 N        29.254854       25.009876       26.258593
 N        24.142208       24.016731       24.040218

$end

$comment
positive
$end

$xc_functional
   X HF 1.0
   X BNL 1.0
   C LYP 1.0
$end

$rem
SYMMETRY_DECOMPOSITION	0
exchange 		general
BASIS                   g3large
omega			330
separate_jk		true
mem_static              760
max_scf_cycles          200
scf_final_print         1
sym_ignore              true
$end

--------------------------------------------------------------
 Writing REM_CC_EA           16
 ----------------------------------------------------
       Standard Nuclear Orientation (Angstroms)
    I     Atom         X            Y            Z
 ----------------------------------------------------
    1      C      27.589041    23.466286    25.344061
    2      C      26.339153    23.225647    24.775341
    3      C      25.423603    24.268255    24.563448
    4      C      25.808182    25.560291    24.954315
    5      C      27.058195    25.800951    25.523088
    6      C      27.973625    24.758410    25.735035
    7      H      28.281313    22.632208    25.481283
    8      H      26.068596    22.204544    24.496038
    9      H      25.116135    26.394463    24.817167
   10      H      27.328890    26.822035    25.802298
   11      H      23.708551    24.814869    23.583281
   12      H      24.079388    23.185360    23.458334
   13      H      29.688467    24.211771    26.715748
   14      H      29.317875    25.841635    26.839811
   15      N      29.254854    25.009876    26.258593
   16      N      24.142208    24.016731    24.040218
 ----------------------------------------------------
 Nuclear Repulsion Energy =   343.5292271490 hartrees
 There are       29 alpha and       28 beta electrons
 Requested basis set is G3large
 There are 128 shells and 416 basis functions

Total QAlloc Memory Limit   2000 MB
Mega-Array Size       743 MB
MEM_STATIC part       760 MB
 A cutoff of  1.0D-08 yielded   6560 shell pairs
 There are  69931 function pairs ( 87060 Cartesian)
Evaluating contribution to one-electron hamiltonian from nuclear
 Smallest overlap matrix eigenvalue = 7.44E-07

 Q-Chem warning in module mkSTV.C, line 194:

 Overlap eigenvalue is smaller than square root of threshold

 Linear dependence detected in AO basis
 Number of orthogonalized atomic orbitals = 415
 Maximum deviation from orthogonality = 1.050E-10
 Multipole matrices computed through 2nd order

  Scale SEOQF with 1.000000e-03/1.000000e-03/1.000000e-03

 Standard Electronic Orientation quadrupole field applied
 Nucleus-field energy     =     0.0000000004 hartrees
 Guess from superposition of atomic densities
 Warning:  Energy on first SCF cycle will be non-variational
 An unrestricted hybrid HF-DFT SCF calculation will be
 performed using Pulay DIIS extrapolation
 Exchange:     1.0000 Hartree-Fock + 1.0000 BNL
 Correlation:  1.0000 LYP
 Using SG-1 standard quadrature grid
 SCF converges when DIIS error is below 1.0E-05
 Warning!  Inaccurate integrated density:
   Number of electrons =    57
   Numerical integral  =    58.000897553966
   Relative error      =     1.7559606210 %
 ---------------------------------------
  Cycle       Energy         DIIS Error
 ---------------------------------------
    1    -341.5604666923      2.48E-02
    2    -338.6597893555      1.72E-03
    3    -338.7189340871      9.02E-04
    4    -338.7333353603      3.04E-04
    5    -338.7354917182      8.92E-05
    6    -338.7357494435      3.57E-05
    7    -338.7358014140      1.07E-05
    8    -338.7358079049      4.82E-06 Convergence criterion met
 ---------------------------------------
 One-Electron    Energy = -1131.3508261431
 Total Coulomb   Energy =   493.8572885787
 Alpha Exchange  Energy =    -4.9219187052
 Beta  Exchange  Energy =    -4.7418604456
 DFT   Exchange  Energy =   -33.1847092253
 DFT Correlation Energy =    -1.9230091139
 Nuclear Repu.   Energy =   343.5292271494
 Nuclear Attr.   Energy = -1468.1620250917
 Kinetic         Energy =   336.8111989486
 <S^2> = 0.7708
 SCF time:  CPU 1086.77 s  wall 1088.35 s
 Final Alpha MO Eigenvalues
            1           2           3           4           5           6
    1 -14.2233641 -14.2233314 -10.1904445 -10.1903501 -10.1328818 -10.1327622
            7           8           9          10          11          12
    1 -10.1324045 -10.1323399  -1.2201577  -1.2085247  -1.1250983  -1.0395476
           13          14          15          16          17          18
    1  -1.0155934  -0.9208496  -0.8917457  -0.8243338  -0.8237938  -0.7929691
           19          20          21          22          23          24
    1  -0.7697633  -0.7226453  -0.7150332  -0.7113818  -0.6965111  -0.6836165
           25          26          27          28          29          30
    1  -0.6562987  -0.6224013  -0.5831975  -0.5402116  -0.4848445  -0.1303108
           31          32          33          34
    1  -0.1157732  -0.0926627  -0.0853716  -0.0724929
 Final Beta MO Eigenvalues
            1           2           3           4           5           6
    1 -14.2178096 -14.2177797 -10.1873501 -10.1872708 -10.1320740 -10.1319521
            7           8           9          10          11          12
    1 -10.1316359 -10.1315901  -1.2127116  -1.2003464  -1.1180311  -1.0374551
           13          14          15          16          17          18
    1  -1.0026367  -0.9163662  -0.8874497  -0.8212860  -0.8201537  -0.7875734
           19          20          21          22          23          24
    1  -0.7649887  -0.7188796  -0.7110954  -0.6953423  -0.6933996  -0.6747090
           25          26          27          28          29          30
    1  -0.6298296  -0.6197963  -0.5381445  -0.5311599  -0.2577703  -0.1133712
           31          32          33
    1  -0.0922855  -0.0914494  -0.0808662
 Analysis of SCF Wavefunction
 
 --------------------------------------------------------------
                    Orbital Energies (a.u.)
 --------------------------------------------------------------
 
 Alpha MOs
 -- Occupied --
-14.223 -14.223 -10.190 -10.190 -10.133 -10.133 -10.132 -10.132
 -1.220  -1.209  -1.125  -1.040  -1.016  -0.921  -0.892  -0.824
 -0.824  -0.793  -0.770  -0.723  -0.715  -0.711  -0.697  -0.684
 -0.656  -0.622  -0.583  -0.540  -0.485
 -- Virtual --
 -0.130  -0.116  -0.093  -0.085  -0.072  -0.059  -0.053  -0.037
 -0.029  -0.025  -0.016  -0.007  -0.006   0.007   0.009   0.019
  0.033   0.036   0.038   0.045   0.045   0.049   0.055   0.057
  0.068   0.076   0.077   0.081   0.088   0.096   0.097   0.098
  0.106   0.113   0.127   0.129   0.139   0.140   0.151   0.158
  0.162   0.169   0.170   0.180   0.188   0.202   0.207   0.209
  0.216   0.221   0.226   0.229   0.280   0.282   0.288   0.295
  0.362   0.378   0.409   0.427   0.430   0.434   0.447   0.448
  0.450   0.465   0.465   0.500   0.505   0.506   0.511   0.523
  0.536   0.544   0.559   0.565   0.578   0.581   0.586   0.587
  0.600   0.606   0.615   0.634   0.637   0.639   0.642   0.665
  0.686   0.687   0.706   0.712   0.716   0.724   0.725   0.738
  0.747   0.750   0.756   0.771   0.840   0.853   0.861   0.885
  0.909   0.937   0.960   0.960   0.962   0.978   0.991   1.005
  1.006   1.034   1.060   1.064   1.091   1.100   1.106   1.128
  1.150   1.172   1.177   1.195   1.209   1.230   1.237   1.237
  1.249   1.265   1.265   1.321   1.324   1.329   1.330   1.377
  1.403   1.420   1.422   1.435   1.463   1.523   1.586   1.596
  1.599   1.637   1.655   1.664   1.683   1.699   1.717   1.744
  1.755   1.756   1.792   1.796   1.840   1.924   2.040   2.114
  2.141   2.230   2.331   2.409   2.441   2.442   2.494   2.521
  2.536   2.545   2.602   2.614   2.620   2.636   2.658   2.664
  2.680   2.684   2.693   2.712   2.714   2.731   2.761   2.763
  2.771   2.773   2.790   2.814   2.825   2.837   2.857   2.948
  2.962   2.963   2.982   3.009   3.040   3.069   3.070   3.080
  3.089   3.090   3.108   3.117   3.119   3.156   3.164   3.176
  3.209   3.229   3.254   3.270   3.281   3.282   3.297   3.299
  3.316   3.327   3.353   3.365   3.392   3.395   3.421   3.440
  3.466   3.491   3.518   3.522   3.559   3.564   3.576   3.612
  3.627   3.633   3.639   3.660   3.707   3.769   3.771   3.782
  3.789   3.795   3.812   3.835   3.862   3.872   3.875   3.883
  3.888   3.892   3.975   3.980   3.984   4.040   4.078   4.145
  4.146   4.182   4.218   4.233   4.253   4.263   4.264   4.286
  4.294   4.305   4.321   4.349   4.366   4.393   4.396   4.413
  4.435   4.508   4.569   4.573   4.578   4.679   4.698   4.714
  4.737   4.786   4.839   4.842   4.851   4.899   4.996   5.024
  5.030   5.078   5.104   5.105   5.129   5.166   5.168   5.231
  5.248   5.297   5.449   5.451   5.475   5.555   5.557   5.681
  5.689   5.702   5.766   5.841   5.940   6.199   6.264   6.275
  6.302   6.380  23.706  24.249  24.281  24.523  24.532  25.016
 27.044  27.209  27.218  27.288  27.307  27.516  27.748  27.869
 27.885  28.036  28.061  28.063  28.296  28.316  28.389  28.415
 28.451  28.967  35.725  35.749  37.370  37.377  38.076  38.086
 38.255  38.348  40.304  40.308  40.378  40.379  40.471  40.473
 40.498  40.501  40.585  40.589  40.633  40.640  40.699  40.702
 40.708  40.709  40.728  40.734  40.772  40.816  40.858  40.876
 40.966  40.977  41.001  41.020  41.033  41.033  41.034  41.052
 41.067  41.073  41.103  41.108  41.159  41.198  41.220  41.239
 41.304  41.332
 
 Beta MOs
 -- Occupied --
-14.218 -14.218 -10.187 -10.187 -10.132 -10.132 -10.132 -10.132
 -1.213  -1.200  -1.118  -1.037  -1.003  -0.916  -0.887  -0.821
 -0.820  -0.788  -0.765  -0.719  -0.711  -0.695  -0.693  -0.675
 -0.630  -0.620  -0.538  -0.531
 -- Virtual --
 -0.258  -0.113  -0.092  -0.091  -0.081  -0.072  -0.059  -0.053
 -0.037  -0.028  -0.024  -0.015  -0.005  -0.005   0.007   0.010
  0.019   0.034   0.038   0.038   0.045   0.046   0.050   0.055
  0.062   0.070   0.077   0.079   0.083   0.090   0.096   0.098
  0.100   0.108   0.114   0.127   0.132   0.141   0.142   0.154
  0.158   0.162   0.171   0.171   0.182   0.191   0.203   0.209
  0.210   0.217   0.223   0.229   0.229   0.281   0.284   0.291
  0.299   0.363   0.383   0.411   0.432   0.432   0.437   0.449
  0.451   0.452   0.466   0.471   0.503   0.508   0.509   0.515
  0.526   0.539   0.549   0.563   0.568   0.581   0.583   0.588
  0.590   0.601   0.609   0.617   0.639   0.640   0.641   0.647
  0.667   0.689   0.691   0.712   0.718   0.719   0.726   0.727
  0.743   0.749   0.753   0.757   0.773   0.841   0.859   0.863
  0.888   0.914   0.940   0.963   0.963   0.964   0.980   0.994
  1.007   1.008   1.036   1.061   1.067   1.095   1.101   1.108
  1.131   1.153   1.173   1.180   1.198   1.212   1.234   1.238
  1.240   1.252   1.268   1.269   1.324   1.327   1.332   1.334
  1.379   1.406   1.421   1.424   1.439   1.466   1.526   1.590
  1.602   1.602   1.642   1.657   1.666   1.687   1.705   1.723
  1.748   1.761   1.761   1.797   1.801   1.842   1.928   2.043
  2.118   2.143   2.232   2.337   2.417   2.445   2.445   2.498
  2.524   2.540   2.551   2.606   2.622   2.623   2.639   2.662
  2.668   2.685   2.689   2.697   2.715   2.717   2.736   2.763
  2.767   2.776   2.779   2.799   2.821   2.833   2.843   2.866
  2.951   2.966   2.968   2.985   3.013   3.045   3.074   3.077
  3.086   3.094   3.095   3.111   3.122   3.122   3.161   3.167
  3.181   3.216   3.232   3.261   3.273   3.285   3.288   3.301
  3.307   3.320   3.331   3.357   3.370   3.398   3.401   3.426
  3.447   3.470   3.497   3.524   3.529   3.565   3.569   3.583
  3.617   3.632   3.638   3.648   3.668   3.711   3.779   3.782
  3.786   3.792   3.797   3.819   3.839   3.868   3.878   3.878
  3.886   3.894   3.895   3.981   3.986   3.986   4.041   4.079
  4.149   4.149   4.186   4.224   4.237   4.255   4.268   4.270
  4.291   4.302   4.308   4.326   4.353   4.372   4.396   4.401
  4.422   4.437   4.516   4.574   4.579   4.583   4.686   4.702
  4.719   4.741   4.796   4.843   4.846   4.856   4.905   5.004
  5.028   5.039   5.092   5.117   5.119   5.144   5.174   5.174
  5.236   5.258   5.309   5.454   5.457   5.482   5.563   5.565
  5.682   5.692   5.708   5.770   5.844   5.944   6.205   6.270
  6.280   6.307   6.382  23.708  24.251  24.284  24.526  24.533
 25.019  27.048  27.210  27.222  27.293  27.308  27.519  27.750
 27.870  27.886  28.037  28.062  28.065  28.297  28.317  28.390
 28.416  28.452  28.968  35.733  35.757  37.380  37.387  38.079
 38.089  38.259  38.352  40.315  40.319  40.387  40.388  40.483
 40.486  40.506  40.509  40.590  40.594  40.637  40.644  40.701
 40.704  40.710  40.711  40.730  40.737  40.774  40.818  40.861
 40.878  40.970  40.980  41.005  41.022  41.034  41.035  41.036
 41.054  41.069  41.077  41.105  41.109  41.160  41.200  41.221
 41.240  41.305  41.333
 --------------------------------------------------------------
 
          Ground-State Mulliken Net Atomic Charges

     Atom                 Charge (a.u.)    Spin (a.u.)
  --------------------------------------------------------
      1 C                     0.062198       0.042414
      2 C                     0.065536       0.036982
      3 C                    -0.346451       0.201847
      4 C                     0.062588       0.042264
      5 C                     0.066184       0.037008
      6 C                    -0.346767       0.201782
      7 H                     0.203296      -0.003338
      8 H                     0.202921      -0.003048
      9 H                     0.203269      -0.003338
     10 H                     0.202891      -0.003064
     11 H                     0.239010      -0.001581
     12 H                     0.239036      -0.001592
     13 H                     0.239007      -0.001581
     14 H                     0.239072      -0.001606
     15 N                    -0.165890       0.228485
     16 N                    -0.165901       0.228366
  --------------------------------------------------------
  Sum of atomic charges =     1.000000
  Sum of spin   charges =     1.000000

 -----------------------------------------------------------------
                    Cartesian Multipole Moments
 -----------------------------------------------------------------
    Charge (ESU x 10^10)
                 4.8032
    Dipole Moment (Debye)
         X     128.2404      Y     117.7433      Z     120.7971
       Tot     211.8986
    Quadrupole Moments (Debye-Ang)
        XX    3401.6006     XY    3144.4664     YY    2853.5570
        XZ    3244.5589     YZ    2965.9347     ZZ    3000.5979
    Octapole Moments (Debye-Ang^2)
       XXX   89629.3868    XXY   83430.3449    XYY   76228.4769
       YYY   68345.4701    XXZ   86584.0090    XYZ   79684.2866
       YYZ   71999.0853    XZZ   81088.8421    YZZ   73795.3806
       ZZZ   73583.6255
    Hexadecapole Moments (Debye-Ang^3)
      XXXX 2344772.8172   XXXY 2198894.5378   XXYY 2022805.7365
      XYYY 1826253.2145   YYYY 1616106.0771   XXXZ 2295608.5699
      XXYZ 2127023.2796   XYYZ 1934983.7056   YYYZ 1727433.1315
      XXZZ 2176888.1282   XYZZ 1994727.1667   YYZZ 1794092.6273
      XZZZ 2001324.5408   YZZZ 1812828.2670   ZZZZ 1779509.2662
 -----------------------------------------------------------------
 Total job time:  1089.79s(wall), 1088.19s(cpu) 
 Tue Apr 12 15:23:48 2011

        *************************************************************
        *                                                           *
        *  Thank you very much for using Q-Chem.  Have a nice day.  *
        *                                                           *
        *************************************************************


0 sent ACK to 0 
now end server 0 ... 
