Process 0 of 1 is on cl082.stfx.acenet.ca - thread support 1
initial socket setup ...start
initial socket setup ...done 
now start server 0 ... 

cmd = /usr/bin/ssh clhead /usr/local/qchem/bin/get_hostid 2023993893 > /scratch/tmp/5956259.1.short.q/qchem21428/lic.dat
                  Welcome to Q-Chem
     A Quantum Leap Into The Future Of Chemistry

 Y. Shao, L. Fusti-Molnar, Y. Jung, J. Kussmann, C. Ochsenfeld,
 S. T. Brown, A. T. B. Gilbert, L. V. Slipchenko,S. V. Levchenko,
 D. P. O'Neill, R. A. DiStasio Jr., R. C. Lochan, T. Wang,
 G. J. O. Beran, N. A. Besley, J. M. Herbert, C. Y. Lin,
 T. Van Voorhis, S. H. Chien, A. Sodt, R. P. Steele, 
 V. A. Rassolov, P. E. Maslen, P. P. Korambath, R. D. Adamson,
 B. Austin, J. Baker, E. F. C. Byrd, H. Dachsel, R. J. Doerksen,
 A. Dreuw, B. D. Dunietz, A. D. Dutoi, T. R. Furlani,
 S. R. Gwaltney, A. Heyden, S. Hirata, C.-P. Hsu, G. Kedziora,
 R. Z. Khaliullin, P. Klunzinger, A. M. Lee, M. S. Lee, W. Liang,
 I. Lotan, N. Nair, B. Peters, E. I. Proynov, P. A. Pieniazek, 
 Y. M. Rhee, J. Ritchie, E. Rosta, C. D. Sherrill, 
 A. C. Simmonett, J. E. Subotnik, H. L. Woodcock III,
 W. Zhang, A. T. Bell, A. K. Chakraborty, D. M. Chipman,
 F. J. Keil, A. Warshel, W. J. Hehre, H. F. Schaefer III,
 J. Kong, A. I. Krylov, P. M. W. Gill, M. Head-Gordon,
 Q-Chem, Version 3.1, Q-Chem, Inc., Pittsburgh, PA (2007).

 Additional authors for Version 3.1: 
 Z. Gan, Y. Zhao, N. E. Schultz, D. Truhlar, E. Epifanovsky and M. Oana.

 Additional authors for Version 3.2: 
 R. Baer, B. R. Brooks, D. Casanova, J.-D. Chai, C.-L. Cheng, 
 C. Cramer, D. Crittenden, A. Ghysels, G. Hawkins, E. G. Hohenstein, 
 C. Kelley, W. Kurlancheek, D. Liotard, E. Livshits, P. Manohar, 
 A. Marenich, D. Neuhauser, R. Olson, M. A. Rohrdanz, K. S. Thanthiriwatte, 
 A. J. W. Thom, V. Vanovschi, C. F. Williams, Q. Wu and Z.-Q. You. 


 Intel X86 Linux Version

 Q-chem begins on Tue Apr 30 22:35:21 2013  

 Parallel job on  1  processors
Processing $rem in /usr/local/qchem/config/preferences.

theFileMan(): MAXOPENFILES=974 MAX_SUB_FILE_NUM=16
Maximum size of a physical file is 2.0 GB, maximum size of a tmp-file is 32.0 GB


--------------------------------------------------------------
User input:
--------------------------------------------------------------

$molecule
-1,2
C
H,1,CH
F,1,CF,2,FCH
F,1,CF,2,FCH,3,120.,0
F,1,CF,2,FCH,3,-120.,0

CH=1.09277054
CF=1.34203912
FCH=110.36172274

$end

$comment
negative
$end

$xc_functional
C PBE   1.00
X wPBE  1.00
$end

$rem
SYMMETRY_DECOMPOSITION	0
exchange 		general
LRC_DFT                 true
BASIS                   g3large
omega			550
mem_static              760
max_scf_cycles          200
scf_final_print         1
sym_ignore              true
$end

--------------------------------------------------------------
 Writing REM_CC_EA            5
 ----------------------------------------------------
       Standard Nuclear Orientation (Angstroms)
    I     Atom         X            Y            Z
 ----------------------------------------------------
    1      C       0.000000     0.000000     0.000000
    2      H       0.000000     0.000000     1.092771
    3      F       1.258181     0.000000    -0.466957
    4      F      -0.629091    -1.089617    -0.466957
    5      F      -0.629091     1.089617    -0.466957
 ----------------------------------------------------
 Nuclear Repulsion Energy =   132.9203195221 hartrees
 There are       18 alpha and       17 beta electrons
 Requested basis set is G3large
 There are 46 shells and 178 basis functions

Total QAlloc Memory Limit   2000 MB
Mega-Array Size       743 MB
MEM_STATIC part       760 MB

                       Distance Matrix (Angstroms)
             C (  1)   H (  2)   F (  3)   F (  4)
   H (  2)  1.092771
   F (  3)  1.342039  2.003939
   F (  4)  1.342039  2.003939  2.179234
   F (  5)  1.342039  2.003939  2.179234  2.179234
 
 A cutoff of  1.0D-08 yielded    970 shell pairs
 There are  14683 function pairs ( 18907 Cartesian)
Evaluating contribution to one-electron hamiltonian from nuclear
 Smallest overlap matrix eigenvalue = 9.74E-04
 Multipole matrices computed through 2nd order

  Scale SEOQF with 1.000000e-01/1.000000e-01/1.000000e-01

 Standard Electronic Orientation quadrupole field applied
 Nucleus-field energy     =     0.0000000015 hartrees
 Guess from superposition of atomic densities
 Warning:  Energy on first SCF cycle will be non-variational
 Long-range K will be added via erf
 Coulomb attenuation parameter = 0.55 bohr**(-1)
 An unrestricted Kohn-Sham SCF calculation will be
 performed using Pulay DIIS extrapolation
 Exchange:  wPBE + LR-HF      Correlation:  PBE
 Using SG-1 standard quadrature grid
 SCF converges when DIIS error is below 1.0E-05
 Requested basis set is G3large
 There are 46 shells and 178 basis functions
 A cutoff of  1.0D-08 yielded    970 shell pairs
 There are  14683 function pairs ( 18907 Cartesian)
 Warning!  Inaccurate integrated density:
   Number of electrons =    35
   Numerical integral  =    34.000050282957
   Relative error      =    -2.8569991916 %
 ---------------------------------------
  Cycle       Energy         DIIS Error
 ---------------------------------------
    1    -338.8766633823      3.29E-02
    2    -338.0370682885      6.64E-03
    3    -338.0846167376      5.95E-03
    4    -338.1606055747      4.94E-04
    5    -338.1617693373      1.90E-04
    6    -338.1620343518      6.19E-05
    7    -338.1620890705      2.91E-05
    8    -338.1621105814      9.05E-06 Convergence criterion met
 ---------------------------------------
 One-Electron    Energy =  -738.4440037722
 Total Coulomb   Energy =   304.5150631764
 Alpha Exchange  Energy =    -4.7242353766
 Beta  Exchange  Energy =    -4.6293644444
 DFT   Exchange  Energy =   -26.6163533753
 DFT Correlation Energy =    -1.1835363129
 Nuclear Repu.   Energy =   132.9203195236
 Nuclear Attr.   Energy = -1075.7950106953
 Kinetic         Energy =   337.3510069231
 <S^2> = 0.7501
 SCF time:  CPU 61.31 s  wall 62.40 s
 Final Alpha MO Eigenvalues
            1           2           3           4           5           6
    1 -24.4459137 -24.4459000 -24.4458429 -10.2953462  -1.3847319  -1.2874028
            7           8           9          10          11          12
    1  -1.2873800  -0.7699569  -0.6465405  -0.6331005  -0.6330893  -0.5100524
           13          14          15          16          17          18
    1  -0.5100475  -0.4702484  -0.4702287  -0.4496780  -0.4093527   0.0276689
           19          20          21          22          23
    1   0.1949096   0.2114501   0.2114750   0.2799654   0.3867428
 Final Beta MO Eigenvalues
            1           2           3           4           5           6
    1 -24.4459201 -24.4459064 -24.4458499 -10.2944805  -1.3844764  -1.2873560
            7           8           9          10          11          12
    1  -1.2873350  -0.7684525  -0.6441430  -0.6327688  -0.6327585  -0.5099895
           13          14          15          16          17          18
    1  -0.5099837  -0.4702345  -0.4702154  -0.4497271  -0.4074631   0.1847066
           19          20          21          22
    1   0.2152139   0.2225137   0.2225477   0.2969727
 Analysis of SCF Wavefunction
 
 --------------------------------------------------------------
                    Orbital Energies (a.u.)
 --------------------------------------------------------------
 
 Alpha MOs
 -- Occupied --
-24.446 -24.446 -24.446 -10.295  -1.385  -1.287  -1.287  -0.770
 -0.647  -0.633  -0.633  -0.510  -0.510  -0.470  -0.470  -0.450
 -0.409   0.028
 -- Virtual --
  0.195   0.211   0.211   0.280   0.387   0.401   0.401   0.432
  0.432   0.454   0.465   0.465   0.482   0.533   0.533   0.533
  0.551   0.610   0.627   0.627   0.752   0.812   0.812   0.887
  1.038   1.038   1.125   1.258   1.336   1.336   1.424   1.424
  1.517   1.517   1.582   1.582   1.605   1.665   1.694   1.712
  1.729   1.729   2.092   2.092   2.193   2.228   2.238   2.238
  2.286   2.329   2.329   2.401   2.538   2.538   2.778   2.778
  2.832   2.877   2.985   2.985   3.060   3.511   3.511   3.521
  3.623   3.624   3.691   3.691   3.823   3.966   3.993   3.993
  4.033   4.081   4.415   4.415   4.604   4.604   5.550   6.407
  6.407   6.491   6.506   6.506   6.519   6.814   6.864   6.864
  6.867   6.880   6.880   6.881   6.896   6.896   6.918   6.935
  6.935   7.014   7.015   7.065   7.232   7.232   7.310   7.471
  7.471   7.552   7.684   7.905   7.905   9.313   9.313   9.328
  9.401   9.401   9.462   9.657   9.723   9.723   9.814   9.970
 10.028  10.028  10.295  10.295  24.637  27.976  27.976  28.094
 40.979  41.004  41.150  41.248  41.332  50.282  50.292  50.315
 50.328  50.342  50.342  50.407  50.449  50.454  50.504  50.566
 50.585  50.591  50.651  50.665  55.766  55.766  55.829  55.837
 55.837  55.863  56.166  56.291  56.291  66.796  66.796  66.853
 
 Beta MOs
 -- Occupied --
-24.446 -24.446 -24.446 -10.294  -1.384  -1.287  -1.287  -0.768
 -0.644  -0.633  -0.633  -0.510  -0.510  -0.470  -0.470  -0.450
 -0.407
 -- Virtual --
  0.185   0.215   0.223   0.223   0.297   0.398   0.403   0.403
  0.432   0.432   0.455   0.467   0.467   0.483   0.533   0.534
  0.534   0.551   0.611   0.627   0.627   0.751   0.812   0.812
  0.887   1.038   1.038   1.126   1.259   1.336   1.336   1.424
  1.424   1.517   1.517   1.582   1.582   1.605   1.665   1.693
  1.712   1.729   1.729   2.091   2.091   2.193   2.229   2.238
  2.238   2.286   2.329   2.330   2.401   2.539   2.539   2.779
  2.779   2.832   2.877   2.986   2.986   3.061   3.513   3.513
  3.523   3.624   3.624   3.692   3.692   3.824   3.967   3.995
  3.995   4.035   4.081   4.416   4.416   4.604   4.604   5.551
  6.407   6.407   6.491   6.506   6.506   6.518   6.814   6.864
  6.864   6.867   6.880   6.880   6.881   6.896   6.896   6.918
  6.935   6.935   7.015   7.015   7.065   7.232   7.232   7.310
  7.471   7.471   7.552   7.684   7.905   7.906   9.313   9.313
  9.328   9.401   9.401   9.462   9.657   9.723   9.723   9.814
  9.970  10.028  10.028  10.295  10.295  24.638  27.977  27.977
 28.096  40.979  41.006  41.151  41.249  41.333  50.282  50.292
 50.315  50.328  50.341  50.342  50.407  50.449  50.454  50.504
 50.566  50.585  50.591  50.651  50.665  55.766  55.766  55.829
 55.837  55.837  55.863  56.166  56.291  56.291  66.796  66.796
 66.853
 --------------------------------------------------------------
 
          Ground-State Mulliken Net Atomic Charges

     Atom                 Charge (a.u.)    Spin (a.u.)
  --------------------------------------------------------
      1 C                     2.651057      -2.251293
      2 H                    -2.906018       3.116600
      3 F                    -0.248297       0.044930
      4 F                    -0.248385       0.044883
      5 F                    -0.248356       0.044881
  --------------------------------------------------------
  Sum of atomic charges =    -1.000000
  Sum of spin   charges =     1.000000

 -----------------------------------------------------------------
                    Cartesian Multipole Moments
 -----------------------------------------------------------------
    Charge (ESU x 10^10)
                -4.8032
    Dipole Moment (Debye)
         X       0.0010      Y       0.0007      Z     -10.1138
       Tot      10.1138
    Quadrupole Moments (Debye-Ang)
        XX     -36.3859     XY       0.0000     YY     -36.3859
        XZ       0.0009     YZ       0.0006     ZZ     -62.2978
    Octapole Moments (Debye-Ang^2)
       XXX      -1.6491    XXY       0.0013    XYY       1.6593
       YYY       0.0040    XXZ     -24.2063    XYZ       0.0001
       YYZ     -24.2060    XZZ       0.0035    YZZ       0.0021
       ZZZ    -127.2490
    Hexadecapole Moments (Debye-Ang^3)
      XXXX    -198.1755   XXXY       0.0001   XXYY     -66.0589
      XYYY       0.0001   YYYY    -198.1762   XXXZ      -0.1052
      XXYZ       0.0013   XYYZ       0.1128   YYYZ       0.0039
      XXZZ    -125.0406   XYZZ       0.0000   YYZZ    -125.0404
      XZZZ       0.0064   YZZZ       0.0046   ZZZZ    -636.9797
 -----------------------------------------------------------------
 Total job time:  63.55s(wall), 61.50s(cpu) 
 Tue Apr 30 22:36:24 2013

        *************************************************************
        *                                                           *
        *  Thank you very much for using Q-Chem.  Have a nice day.  *
        *                                                           *
        *************************************************************


0 sent ACK to 0 
now end server 0 ... 
 
**********************************************************************
Job 2 of 3 
**********************************************************************
 
Process 0 of 1 is on cl082.stfx.acenet.ca - thread support 1
initial socket setup ...start
initial socket setup ...done 
now start server 0 ... 

cmd = /usr/bin/ssh clhead /usr/local/qchem/bin/get_hostid 968760467 > /scratch/tmp/5956259.1.short.q/qchem21428/lic.dat
                  Welcome to Q-Chem
     A Quantum Leap Into The Future Of Chemistry

 Y. Shao, L. Fusti-Molnar, Y. Jung, J. Kussmann, C. Ochsenfeld,
 S. T. Brown, A. T. B. Gilbert, L. V. Slipchenko,S. V. Levchenko,
 D. P. O'Neill, R. A. DiStasio Jr., R. C. Lochan, T. Wang,
 G. J. O. Beran, N. A. Besley, J. M. Herbert, C. Y. Lin,
 T. Van Voorhis, S. H. Chien, A. Sodt, R. P. Steele, 
 V. A. Rassolov, P. E. Maslen, P. P. Korambath, R. D. Adamson,
 B. Austin, J. Baker, E. F. C. Byrd, H. Dachsel, R. J. Doerksen,
 A. Dreuw, B. D. Dunietz, A. D. Dutoi, T. R. Furlani,
 S. R. Gwaltney, A. Heyden, S. Hirata, C.-P. Hsu, G. Kedziora,
 R. Z. Khaliullin, P. Klunzinger, A. M. Lee, M. S. Lee, W. Liang,
 I. Lotan, N. Nair, B. Peters, E. I. Proynov, P. A. Pieniazek, 
 Y. M. Rhee, J. Ritchie, E. Rosta, C. D. Sherrill, 
 A. C. Simmonett, J. E. Subotnik, H. L. Woodcock III,
 W. Zhang, A. T. Bell, A. K. Chakraborty, D. M. Chipman,
 F. J. Keil, A. Warshel, W. J. Hehre, H. F. Schaefer III,
 J. Kong, A. I. Krylov, P. M. W. Gill, M. Head-Gordon,
 Q-Chem, Version 3.1, Q-Chem, Inc., Pittsburgh, PA (2007).

 Additional authors for Version 3.1: 
 Z. Gan, Y. Zhao, N. E. Schultz, D. Truhlar, E. Epifanovsky and M. Oana.

 Additional authors for Version 3.2: 
 R. Baer, B. R. Brooks, D. Casanova, J.-D. Chai, C.-L. Cheng, 
 C. Cramer, D. Crittenden, A. Ghysels, G. Hawkins, E. G. Hohenstein, 
 C. Kelley, W. Kurlancheek, D. Liotard, E. Livshits, P. Manohar, 
 A. Marenich, D. Neuhauser, R. Olson, M. A. Rohrdanz, K. S. Thanthiriwatte, 
 A. J. W. Thom, V. Vanovschi, C. F. Williams, Q. Wu and Z.-Q. You. 


 Intel X86 Linux Version

 Q-chem begins on Tue Apr 30 22:36:27 2013  

 Parallel job on  1  processors
Processing $rem in /usr/local/qchem/config/preferences.

theFileMan(): MAXOPENFILES=974 MAX_SUB_FILE_NUM=16
Maximum size of a physical file is 2.0 GB, maximum size of a tmp-file is 32.0 GB


--------------------------------------------------------------
User input:
--------------------------------------------------------------

$molecule
0,1
C
H,1,CH
F,1,CF,2,FCH
F,1,CF,2,FCH,3,120.,0
F,1,CF,2,FCH,3,-120.,0

CH=1.09277054
CF=1.34203912
FCH=110.36172274

$end

$comment
neutral
$end

$xc_functional
C PBE   1.00
X wPBE  1.00
$end


$rem
SYMMETRY_DECOMPOSITION	0
LRC_DFT                 true
exchange 		general
BASIS                   g3large
omega			550
mem_static              760
max_scf_cycles          200
scf_final_print         1
sym_ignore              true
$end

--------------------------------------------------------------
 Writing REM_CC_EA            5
 ----------------------------------------------------
       Standard Nuclear Orientation (Angstroms)
    I     Atom         X            Y            Z
 ----------------------------------------------------
    1      C       0.000000     0.000000     0.000000
    2      H       0.000000     0.000000     1.092771
    3      F       1.258181     0.000000    -0.466957
    4      F      -0.629091    -1.089617    -0.466957
    5      F      -0.629091     1.089617    -0.466957
 ----------------------------------------------------
 Nuclear Repulsion Energy =   132.9203195221 hartrees
 There are       17 alpha and       17 beta electrons
 Requested basis set is G3large
 There are 46 shells and 178 basis functions

Total QAlloc Memory Limit   2000 MB
Mega-Array Size       743 MB
MEM_STATIC part       760 MB

                       Distance Matrix (Angstroms)
             C (  1)   H (  2)   F (  3)   F (  4)
   H (  2)  1.092771
   F (  3)  1.342039  2.003939
   F (  4)  1.342039  2.003939  2.179234
   F (  5)  1.342039  2.003939  2.179234  2.179234
 
 A cutoff of  1.0D-08 yielded    970 shell pairs
 There are  14683 function pairs ( 18907 Cartesian)
Evaluating contribution to one-electron hamiltonian from nuclear
 Smallest overlap matrix eigenvalue = 9.74E-04
 Multipole matrices computed through 2nd order

  Scale SEOQF with 1.000000e-01/1.000000e-01/1.000000e-01

 Standard Electronic Orientation quadrupole field applied
 Nucleus-field energy     =     0.0000000015 hartrees
 Guess from superposition of atomic densities
 Warning:  Energy on first SCF cycle will be non-variational
 Long-range K will be added via erf
 Coulomb attenuation parameter = 0.55 bohr**(-1)
 A restricted Kohn-Sham SCF calculation will be
 performed using Pulay DIIS extrapolation
 Exchange:  wPBE + LR-HF      Correlation:  PBE
 Using SG-1 standard quadrature grid
 SCF converges when DIIS error is below 1.0E-05
 Requested basis set is G3large
 There are 46 shells and 178 basis functions
 A cutoff of  1.0D-08 yielded    970 shell pairs
 There are  14683 function pairs ( 18907 Cartesian)
 ---------------------------------------
  Cycle       Energy         DIIS Error
 ---------------------------------------
    1    -338.8766633823      3.29E-02
    2    -338.0634211100      6.84E-03
    3    -338.1119070200      6.19E-03
    4    -338.1936487843      5.11E-04
    5    -338.1944999878      1.82E-04
    6    -338.1946269300      5.71E-05
    7    -338.1946374081      2.57E-05
    8    -338.1946395270      3.85E-06 Convergence criterion met
 ---------------------------------------
 One-Electron    Energy =  -733.5429958321
 Total Coulomb   Energy =   299.4647698712
 Alpha Exchange  Energy =    -4.6292487031
 Beta  Exchange  Energy =    -4.6292487031
 DFT   Exchange  Energy =   -26.6029628529
 DFT Correlation Energy =    -1.1752728306
 Nuclear Repu.   Energy =   132.9203195236
 Nuclear Attr.   Energy = -1070.7929529460
 Kinetic         Energy =   337.2499571139
 SCF time:  CPU 49.57 s  wall 50.38 s
 Final Alpha MO Eigenvalues
            1           2           3           4           5           6
    1 -24.5891132 -24.5890918 -24.5890690 -10.4560672  -1.5290671  -1.4308338
            7           8           9          10          11          12
    1  -1.4308239  -0.9187735  -0.7974002  -0.7761962  -0.7761895  -0.6512594
           13          14          15          16          17          18
    1  -0.6512520  -0.6124387  -0.6124264  -0.5908939  -0.5626765   0.0415119
           19          20          21          22
    1   0.0974609   0.0974650   0.0983178   0.1552932
 Analysis of SCF Wavefunction
 
 --------------------------------------------------------------
                    Orbital Energies (a.u.)
 --------------------------------------------------------------
 
 Alpha MOs
 -- Occupied --
-24.589 -24.589 -24.589 -10.456  -1.529  -1.431  -1.431  -0.919
 -0.797  -0.776  -0.776  -0.651  -0.651  -0.612  -0.612  -0.591
 -0.563
 -- Virtual --
  0.042   0.097   0.097   0.098   0.155   0.234   0.266   0.266
  0.301   0.301   0.319   0.335   0.335   0.363   0.404   0.404
  0.409   0.428   0.470   0.499   0.499   0.583   0.657   0.657
  0.742   0.883   0.883   0.982   1.104   1.178   1.178   1.267
  1.267   1.380   1.380   1.445   1.445   1.472   1.530   1.533
  1.555   1.590   1.590   1.951   1.951   2.050   2.082   2.097
  2.097   2.146   2.187   2.187   2.260   2.390   2.390   2.629
  2.629   2.675   2.725   2.830   2.830   2.913   3.355   3.355
  3.369   3.475   3.475   3.539   3.539   3.670   3.817   3.841
  3.841   3.877   3.918   4.270   4.270   4.431   4.431   5.379
  6.265   6.265   6.349   6.365   6.365   6.377   6.671   6.722
  6.722   6.726   6.738   6.738   6.740   6.755   6.755   6.777
  6.793   6.793   6.872   6.872   6.923   7.090   7.090   7.166
  7.327   7.327   7.407   7.540   7.761   7.761   9.171   9.171
  9.186   9.259   9.259   9.320   9.515   9.580   9.580   9.672
  9.827   9.886   9.886  10.152  10.152  24.477  27.816  27.816
 27.934  40.819  40.844  40.990  41.088  41.172  50.139  50.149
 50.172  50.185  50.199  50.199  50.264  50.305  50.311  50.361
 50.422  50.442  50.448  50.507  50.522  55.623  55.623  55.686
 55.694  55.694  55.720  56.022  56.148  56.148  66.653  66.653
 66.709
 --------------------------------------------------------------
 
          Ground-State Mulliken Net Atomic Charges

     Atom                 Charge (a.u.)
  ----------------------------------------
      1 C                     0.353396
      2 H                     0.168966
      3 F                    -0.174066
      4 F                    -0.174157
      5 F                    -0.174138
  ----------------------------------------
  Sum of atomic charges =     0.000000

 -----------------------------------------------------------------
                    Cartesian Multipole Moments
 -----------------------------------------------------------------
    Charge (ESU x 10^10)
                 0.0000
    Dipole Moment (Debye)
         X       0.0001      Y       0.0001      Z       1.7693
       Tot       1.7693
    Quadrupole Moments (Debye-Ang)
        XX     -22.4246     XY       0.0001     YY     -22.4248
        XZ       0.0000     YZ      -0.0001     ZZ     -19.6941
    Octapole Moments (Debye-Ang^2)
       XXX      -1.2616    XXY       0.0001    XYY       1.2620
       YYY       0.0002    XXZ       7.0352    XYZ       0.0000
       YYZ       7.0352    XZZ       0.0000    YZZ       0.0000
       ZZZ      20.0668
    Hexadecapole Moments (Debye-Ang^3)
      XXXX     -85.7555   XXXY       0.0003   XXYY     -28.5855
      XYYY       0.0001   YYYY     -85.7569   XXXZ       0.0546
      XXYZ       0.0000   XYYZ      -0.0547   YYYZ      -0.0001
      XXZZ     -20.7371   XYZZ       0.0001   YYZZ     -20.7373
      XZZZ       0.0000   YZZZ       0.0000   ZZZZ     -36.7720
 -----------------------------------------------------------------
 Total job time:  50.57s(wall), 49.75s(cpu) 
 Tue Apr 30 22:37:18 2013

        *************************************************************
        *                                                           *
        *  Thank you very much for using Q-Chem.  Have a nice day.  *
        *                                                           *
        *************************************************************


0 sent ACK to 0 
now end server 0 ... 
 
**********************************************************************
Job 3 of 3 
**********************************************************************
 
Process 0 of 1 is on cl082.stfx.acenet.ca - thread support 1
initial socket setup ...start
initial socket setup ...done 
now start server 0 ... 

cmd = /usr/bin/ssh clhead /usr/local/qchem/bin/get_hostid 2041495343 > /scratch/tmp/5956259.1.short.q/qchem21428/lic.dat
                  Welcome to Q-Chem
     A Quantum Leap Into The Future Of Chemistry

 Y. Shao, L. Fusti-Molnar, Y. Jung, J. Kussmann, C. Ochsenfeld,
 S. T. Brown, A. T. B. Gilbert, L. V. Slipchenko,S. V. Levchenko,
 D. P. O'Neill, R. A. DiStasio Jr., R. C. Lochan, T. Wang,
 G. J. O. Beran, N. A. Besley, J. M. Herbert, C. Y. Lin,
 T. Van Voorhis, S. H. Chien, A. Sodt, R. P. Steele, 
 V. A. Rassolov, P. E. Maslen, P. P. Korambath, R. D. Adamson,
 B. Austin, J. Baker, E. F. C. Byrd, H. Dachsel, R. J. Doerksen,
 A. Dreuw, B. D. Dunietz, A. D. Dutoi, T. R. Furlani,
 S. R. Gwaltney, A. Heyden, S. Hirata, C.-P. Hsu, G. Kedziora,
 R. Z. Khaliullin, P. Klunzinger, A. M. Lee, M. S. Lee, W. Liang,
 I. Lotan, N. Nair, B. Peters, E. I. Proynov, P. A. Pieniazek, 
 Y. M. Rhee, J. Ritchie, E. Rosta, C. D. Sherrill, 
 A. C. Simmonett, J. E. Subotnik, H. L. Woodcock III,
 W. Zhang, A. T. Bell, A. K. Chakraborty, D. M. Chipman,
 F. J. Keil, A. Warshel, W. J. Hehre, H. F. Schaefer III,
 J. Kong, A. I. Krylov, P. M. W. Gill, M. Head-Gordon,
 Q-Chem, Version 3.1, Q-Chem, Inc., Pittsburgh, PA (2007).

 Additional authors for Version 3.1: 
 Z. Gan, Y. Zhao, N. E. Schultz, D. Truhlar, E. Epifanovsky and M. Oana.

 Additional authors for Version 3.2: 
 R. Baer, B. R. Brooks, D. Casanova, J.-D. Chai, C.-L. Cheng, 
 C. Cramer, D. Crittenden, A. Ghysels, G. Hawkins, E. G. Hohenstein, 
 C. Kelley, W. Kurlancheek, D. Liotard, E. Livshits, P. Manohar, 
 A. Marenich, D. Neuhauser, R. Olson, M. A. Rohrdanz, K. S. Thanthiriwatte, 
 A. J. W. Thom, V. Vanovschi, C. F. Williams, Q. Wu and Z.-Q. You. 


 Intel X86 Linux Version

 Q-chem begins on Tue Apr 30 22:37:20 2013  

 Parallel job on  1  processors
Processing $rem in /usr/local/qchem/config/preferences.

theFileMan(): MAXOPENFILES=974 MAX_SUB_FILE_NUM=16
Maximum size of a physical file is 2.0 GB, maximum size of a tmp-file is 32.0 GB


--------------------------------------------------------------
User input:
--------------------------------------------------------------

$molecule
1,2
C
H,1,CH
F,1,CF,2,FCH
F,1,CF,2,FCH,3,120.,0
F,1,CF,2,FCH,3,-120.,0

CH=1.09277054
CF=1.34203912
FCH=110.36172274

$end

$comment
positive
$end

$xc_functional
C PBE   1.00
X wPBE  1.00
$end

$rem
SYMMETRY_DECOMPOSITION	0
LRC_DFT                 true
exchange 		general
BASIS                   g3large
omega			550
mem_static              760
max_scf_cycles          200
scf_final_print         1
sym_ignore              true
$end

--------------------------------------------------------------
 Writing REM_CC_EA            5
 ----------------------------------------------------
       Standard Nuclear Orientation (Angstroms)
    I     Atom         X            Y            Z
 ----------------------------------------------------
    1      C       0.000000     0.000000     0.000000
    2      H       0.000000     0.000000     1.092771
    3      F       1.258181     0.000000    -0.466957
    4      F      -0.629091    -1.089617    -0.466957
    5      F      -0.629091     1.089617    -0.466957
 ----------------------------------------------------
 Nuclear Repulsion Energy =   132.9203195221 hartrees
 There are       17 alpha and       16 beta electrons
 Requested basis set is G3large
 There are 46 shells and 178 basis functions

Total QAlloc Memory Limit   2000 MB
Mega-Array Size       743 MB
MEM_STATIC part       760 MB

                       Distance Matrix (Angstroms)
             C (  1)   H (  2)   F (  3)   F (  4)
   H (  2)  1.092771
   F (  3)  1.342039  2.003939
   F (  4)  1.342039  2.003939  2.179234
   F (  5)  1.342039  2.003939  2.179234  2.179234
 
 A cutoff of  1.0D-08 yielded    970 shell pairs
 There are  14683 function pairs ( 18907 Cartesian)
Evaluating contribution to one-electron hamiltonian from nuclear
 Smallest overlap matrix eigenvalue = 9.74E-04
 Multipole matrices computed through 2nd order

  Scale SEOQF with 1.000000e-01/1.000000e-01/1.000000e-01

 Standard Electronic Orientation quadrupole field applied
 Nucleus-field energy     =     0.0000000015 hartrees
 Guess from superposition of atomic densities
 Warning:  Energy on first SCF cycle will be non-variational
 Long-range K will be added via erf
 Coulomb attenuation parameter = 0.55 bohr**(-1)
 An unrestricted Kohn-Sham SCF calculation will be
 performed using Pulay DIIS extrapolation
 Exchange:  wPBE + LR-HF      Correlation:  PBE
 Using SG-1 standard quadrature grid
 SCF converges when DIIS error is below 1.0E-05
 Requested basis set is G3large
 There are 46 shells and 178 basis functions
 A cutoff of  1.0D-08 yielded    970 shell pairs
 There are  14683 function pairs ( 18907 Cartesian)
 Warning!  Inaccurate integrated density:
   Number of electrons =    33
   Numerical integral  =    34.000050282957
   Relative error      =     3.0304554029 %
 ---------------------------------------
  Cycle       Energy         DIIS Error
 ---------------------------------------
    1    -338.8766633823      3.29E-02
    2    -337.4316021512      7.41E-03
    3    -337.5109844887      6.98E-03
    4    -337.6280569085      1.16E-03
    5    -337.6316600476      3.33E-04
    6    -337.6326195421      2.19E-04
    7    -337.6330694517      7.87E-05
    8    -337.6335630483      5.76E-05
    9    -337.6338875010      5.38E-05
   10    -337.6341714362      2.90E-05
   11    -337.6342979713      2.03E-05
   12    -337.6343223647      1.39E-05
   13    -337.6343302206      9.57E-06 Convergence criterion met
 ---------------------------------------
 One-Electron    Energy =  -722.3341354156
 Total Coulomb   Energy =   288.3091491130
 Alpha Exchange  Energy =    -4.6556051439
 Beta  Exchange  Energy =    -4.3269184436
 DFT   Exchange  Energy =   -26.4098597871
 DFT Correlation Energy =    -1.1372800670
 Nuclear Repu.   Energy =   132.9203195236
 Nuclear Attr.   Energy = -1059.0144116958
 Kinetic         Energy =   336.6802762802
 <S^2> = 0.7608
 SCF time:  CPU 99.58 s  wall 100.79 s
 Final Alpha MO Eigenvalues
            1           2           3           4           5           6
    1 -24.9396912 -24.9390098 -24.9373804 -10.8071174  -1.8620841  -1.7645708
            7           8           9          10          11          12
    1  -1.7634402  -1.2704434  -1.1379684  -1.1017067  -1.1011096  -0.9819780
           13          14          15          16          17          18
    1  -0.9816022  -0.9367569  -0.9363012  -0.9283060  -0.9118805  -0.1375195
           19          20          21          22
    1  -0.1020645  -0.1019662  -0.0811755  -0.0225331
 Final Beta MO Eigenvalues
            1           2           3           4           5           6
    1 -24.9325462 -24.9319371 -24.9304833 -10.8061524  -1.8474081  -1.7468623
            7           8           9          10          11          12
    1  -1.7461000  -1.2206233  -1.0996064  -1.0851991  -1.0848618  -0.9471517
           13          14          15          16          17          18
    1  -0.9468411  -0.9042565  -0.8969630  -0.8968188  -0.5575106  -0.1303418
           19          20          21
    1  -0.0933399  -0.0933176  -0.0776670
 Analysis of SCF Wavefunction
 
 --------------------------------------------------------------
                    Orbital Energies (a.u.)
 --------------------------------------------------------------
 
 Alpha MOs
 -- Occupied --
-24.940 -24.939 -24.937 -10.807  -1.862  -1.765  -1.763  -1.270
 -1.138  -1.102  -1.101  -0.982  -0.982  -0.937  -0.936  -0.928
 -0.912
 -- Virtual --
 -0.138  -0.102  -0.102  -0.081  -0.023  -0.022  -0.015  -0.001
  0.028   0.100   0.100   0.117   0.117   0.144   0.205   0.205
  0.213   0.220   0.260   0.275   0.275   0.285   0.386   0.386
  0.483   0.578   0.579   0.708   0.819   0.883   0.883   0.980
  0.980   1.109   1.109   1.165   1.166   1.202   1.235   1.259
  1.274   1.316   1.316   1.660   1.661   1.734   1.760   1.789
  1.789   1.849   1.875   1.876   1.955   2.070   2.070   2.306
  2.306   2.316   2.410   2.497   2.498   2.588   3.016   3.016
  3.035   3.156   3.156   3.204   3.204   3.335   3.497   3.509
  3.509   3.545   3.554   3.953   3.953   4.045   4.045   4.991
  5.937   5.937   6.014   6.028   6.029   6.057   6.340   6.395
  6.396   6.402   6.413   6.413   6.415   6.428   6.428   6.449
  6.467   6.468   6.541   6.541   6.601   6.769   6.770   6.832
  6.991   6.992   7.069   7.210   7.428   7.429   8.830   8.831
  8.846   8.915   8.916   8.975   9.184   9.240   9.240   9.329
  9.491   9.551   9.551   9.818   9.820  24.128  27.468  27.468
 27.580  40.470  40.488  40.638  40.735  40.822  49.786  49.797
 49.821  49.829  49.846  49.846  49.916  49.953  49.959  50.010
 50.073  50.093  50.097  50.157  50.173  55.275  55.275  55.333
 55.341  55.341  55.375  55.672  55.800  55.801  66.304  66.305
 66.361
 
 Beta MOs
 -- Occupied --
-24.933 -24.932 -24.930 -10.806  -1.847  -1.747  -1.746  -1.221
 -1.100  -1.085  -1.085  -0.947  -0.947  -0.904  -0.897  -0.897
 -- Virtual --
 -0.558  -0.130  -0.093  -0.093  -0.078  -0.015  -0.015  -0.010
  0.014   0.034   0.102   0.103   0.118   0.118   0.148   0.205
  0.206   0.214   0.224   0.261   0.276   0.276   0.322   0.389
  0.389   0.491   0.588   0.588   0.712   0.825   0.889   0.889
  0.989   0.990   1.114   1.114   1.178   1.178   1.216   1.248
  1.262   1.289   1.320   1.320   1.668   1.669   1.744   1.780
  1.797   1.798   1.860   1.884   1.884   1.957   2.086   2.086
  2.311   2.312   2.360   2.422   2.514   2.515   2.605   3.023
  3.023   3.049   3.162   3.162   3.216   3.217   3.349   3.495
  3.514   3.514   3.551   3.589   3.959   3.960   4.099   4.099
  5.046   5.950   5.951   6.035   6.051   6.052   6.063   6.358
  6.410   6.410   6.414   6.426   6.427   6.428   6.442   6.442
  6.465   6.479   6.480   6.557   6.558   6.610   6.774   6.775
  6.849   7.008   7.009   7.086   7.220   7.437   7.438   8.852
  8.853   8.867   8.940   8.941   9.003   9.195   9.262   9.262
  9.355   9.507   9.568   9.568   9.835   9.836  24.130  27.468
 27.468  27.586  40.469  40.493  40.640  40.737  40.822  49.802
 49.813  49.835  49.850  49.863  49.863  49.926  49.968  49.974
 50.024  50.085  50.104  50.110  50.170  50.184  55.283  55.284
 55.348  55.355  55.355  55.380  55.682  55.807  55.808  66.311
 66.313  66.369
 --------------------------------------------------------------
 
          Ground-State Mulliken Net Atomic Charges

     Atom                 Charge (a.u.)    Spin (a.u.)
  --------------------------------------------------------
      1 C                     0.338368      -0.009119
      2 H                     0.421135       0.285911
      3 F                     0.081710       0.244108
      4 F                     0.078156       0.237099
      5 F                     0.080631       0.242002
  --------------------------------------------------------
  Sum of atomic charges =     1.000000
  Sum of spin   charges =     1.000000

 -----------------------------------------------------------------
                    Cartesian Multipole Moments
 -----------------------------------------------------------------
    Charge (ESU x 10^10)
                 4.8032
    Dipole Moment (Debye)
         X       0.0130      Y       0.0124      Z       1.3341
       Tot       1.3342
    Quadrupole Moments (Debye-Ang)
        XX     -17.5654     XY      -0.0086     YY     -17.5836
        XZ      -0.0082     YZ      -0.0077     ZZ     -14.7501
    Octapole Moments (Debye-Ang^2)
       XXX       0.9715    XXY       0.0077    XYY      -0.9396
       YYY       0.0226    XXZ       4.8341    XYZ       0.0029
       YYZ       4.8410    XZZ       0.0093    YZZ       0.0089
       ZZZ      19.6015
    Hexadecapole Moments (Debye-Ang^3)
      XXXX     -72.6251   XXXY      -0.0106   XXYY     -24.2189
      XYYY      -0.0133   YYYY     -72.6762   XXXZ      -1.1242
      XXYZ      -0.0035   XYYZ       1.1101   YYYZ      -0.0092
      XXZZ     -16.7225   XYZZ      -0.0050   YYZZ     -16.7340
      XZZZ      -0.0146   YZZZ      -0.0140   ZZZZ     -26.3017
 -----------------------------------------------------------------
 Total job time:  100.98s(wall), 99.76s(cpu) 
 Tue Apr 30 22:39:01 2013

        *************************************************************
        *                                                           *
        *  Thank you very much for using Q-Chem.  Have a nice day.  *
        *                                                           *
        *************************************************************


0 sent ACK to 0 
now end server 0 ... 
