Process 0 of 1 is on cl111.stfx.acenet.ca - thread support 1
initial socket setup ...start
initial socket setup ...done 
now start server 0 ... 

cmd = /usr/bin/ssh clhead /usr/local/qchem/bin/get_hostid 1749350935 > /scratch/tmp/6067153.1.short.q/qchem28867/lic.dat
                  Welcome to Q-Chem
     A Quantum Leap Into The Future Of Chemistry

 Y. Shao, L. Fusti-Molnar, Y. Jung, J. Kussmann, C. Ochsenfeld,
 S. T. Brown, A. T. B. Gilbert, L. V. Slipchenko,S. V. Levchenko,
 D. P. O'Neill, R. A. DiStasio Jr., R. C. Lochan, T. Wang,
 G. J. O. Beran, N. A. Besley, J. M. Herbert, C. Y. Lin,
 T. Van Voorhis, S. H. Chien, A. Sodt, R. P. Steele, 
 V. A. Rassolov, P. E. Maslen, P. P. Korambath, R. D. Adamson,
 B. Austin, J. Baker, E. F. C. Byrd, H. Dachsel, R. J. Doerksen,
 A. Dreuw, B. D. Dunietz, A. D. Dutoi, T. R. Furlani,
 S. R. Gwaltney, A. Heyden, S. Hirata, C.-P. Hsu, G. Kedziora,
 R. Z. Khaliullin, P. Klunzinger, A. M. Lee, M. S. Lee, W. Liang,
 I. Lotan, N. Nair, B. Peters, E. I. Proynov, P. A. Pieniazek, 
 Y. M. Rhee, J. Ritchie, E. Rosta, C. D. Sherrill, 
 A. C. Simmonett, J. E. Subotnik, H. L. Woodcock III,
 W. Zhang, A. T. Bell, A. K. Chakraborty, D. M. Chipman,
 F. J. Keil, A. Warshel, W. J. Hehre, H. F. Schaefer III,
 J. Kong, A. I. Krylov, P. M. W. Gill, M. Head-Gordon,
 Q-Chem, Version 3.1, Q-Chem, Inc., Pittsburgh, PA (2007).

 Additional authors for Version 3.1: 
 Z. Gan, Y. Zhao, N. E. Schultz, D. Truhlar, E. Epifanovsky and M. Oana.

 Additional authors for Version 3.2: 
 R. Baer, B. R. Brooks, D. Casanova, J.-D. Chai, C.-L. Cheng, 
 C. Cramer, D. Crittenden, A. Ghysels, G. Hawkins, E. G. Hohenstein, 
 C. Kelley, W. Kurlancheek, D. Liotard, E. Livshits, P. Manohar, 
 A. Marenich, D. Neuhauser, R. Olson, M. A. Rohrdanz, K. S. Thanthiriwatte, 
 A. J. W. Thom, V. Vanovschi, C. F. Williams, Q. Wu and Z.-Q. You. 


 Intel X86 Linux Version

 Q-chem begins on Wed Jul 24 16:11:07 2013  

 Parallel job on  1  processors
Processing $rem in /usr/local/qchem/config/preferences.

theFileMan(): MAXOPENFILES=974 MAX_SUB_FILE_NUM=16
Maximum size of a physical file is 2.0 GB, maximum size of a tmp-file is 32.0 GB


--------------------------------------------------------------
User input:
--------------------------------------------------------------

$molecule
0,1
C
O,1,co
F,1,cf,2,fco
C,1,cc,2,cco,3,180.,0
H,4,ch1,1,h1cc,2,0.,0
H,4,ch2,1,h2cc,2,hcco,0
H,4,ch2,1,h2cc,2,-hcco,0

co=1.19038568
cf=1.36270354
cc=1.50014117
ch1=1.09017909
ch2=1.0950597
fco=120.57845698
cco=129.08781785
h1cc=109.96680842
h2cc=109.64917534
hcco=121.23034195

$end


$comment
b3lyp opt
$end

$rem
   EXCHANGE B3LYP
   UNRESTRICTED TRUE
   SYMMETRY_DECOMPOSITION	0
   BASIS                   g3large
   JOBTYPE                 opt
   mem_static              760
   max_scf_cycles          200
   scf_final_print         1
   sym_ignore              true
$end


--------------------------------------------------------------
 Writing REM_CC_EA            7
 ----------------------------------------------------
       Standard Nuclear Orientation (Angstroms)
    I     Atom         X            Y            Z
 ----------------------------------------------------
    1      C       0.000000     0.000000     0.000000
    2      O       0.000000     0.000000     1.190386
    3      F       1.173197     0.000000    -0.693231
    4      C      -1.164380     0.000000    -0.945855
    5      H      -2.099381     0.000000    -0.385263
    6      H      -1.113052     0.881849    -1.593052
    7      H      -1.113052    -0.881849    -1.593052
 ----------------------------------------------------
 Nuclear Repulsion Energy =   118.2556110334 hartrees
 There are       16 alpha and       16 beta electrons
 Requested basis set is G3large
 There are 58 shells and 198 basis functions

Total QAlloc Memory Limit   2000 MB
Mega-Array Size       743 MB
MEM_STATIC part       760 MB
 A cutoff of  1.0D-11 yielded   1609 shell pairs
 There are  18909 function pairs ( 23856 Cartesian)
Evaluating contribution to one-electron hamiltonian from nuclear
 Smallest overlap matrix eigenvalue = 1.33E-04
 Multipole matrices computed through 2nd order

  Scale SEOQF with 1.000000e-01/1.000000e-01/1.000000e-01

 Standard Electronic Orientation quadrupole field applied
 Nucleus-field energy     =    -0.0000000017 hartrees
 Guess from superposition of atomic densities
 Warning:  Energy on first SCF cycle will be non-variational
 An unrestricted hybrid HF-DFT SCF calculation will be
 performed using Pulay DIIS extrapolation
 Exchange:     0.2000 Hartree-Fock + 0.0800 Slater + 0.7200 Becke88
 Correlation:  0.8100 LYP + 0.1900 VWN1RPA
 Using SG-1 standard quadrature grid
 SCF converges when DIIS error is below 1.0E-08
 ---------------------------------------
  Cycle       Energy         DIIS Error
 ---------------------------------------
    1    -253.7223015244      3.28E-02
    2    -253.0645764454      5.93E-03
    3    -252.8015113918      1.05E-02
    4    -253.1764383069      2.20E-03
    5    -253.1938994618      5.26E-04
    6    -253.1945411374      2.30E-04
    7    -253.1947230279      4.08E-05
    8    -253.1947284911      9.78E-06
    9    -253.1947288062      2.06E-06
   10    -253.1947288781      3.37E-07
   11    -253.1947288513      7.85E-08
   12    -253.1947288561      1.91E-08
   13    -253.1947288565      3.01E-09 Convergence criterion met
 ---------------------------------------
 One-Electron    Energy =  -581.4242449353
 Total Coulomb   Energy =   240.9943901097
 Alpha Exchange  Energy =    -2.9677935175
 Beta  Exchange  Energy =    -2.9677935175
 DFT   Exchange  Energy =   -23.6440858915
 DFT Correlation Energy =    -1.4408121362
 Nuclear Repu.   Energy =   118.2556110317
 Nuclear Attr.   Energy =  -833.7456134592
 Kinetic         Energy =   252.3213685240
 <S^2> = 0.0000
 SCF time:  CPU 142.79 s  wall 143.42 s
 Final Alpha MO Eigenvalues
            1           2           3           4           5           6
    1 -24.7086799 -19.1514965 -10.3502318 -10.2093135  -1.2532099  -1.0849799
            7           8           9          10          11          12
    1  -0.7855638  -0.6235737  -0.5293251  -0.5188783  -0.5079426  -0.4458359
           13          14          15          16          17          18
    1  -0.4398973  -0.4104398  -0.3867308  -0.3248046  -0.0347784  -0.0165824
           19          20          21
    1   0.0266641   0.0281850   0.0348074
 Final Beta MO Eigenvalues
            1           2           3           4           5           6
    1 -24.7086799 -19.1514965 -10.3502318 -10.2093135  -1.2532099  -1.0849799
            7           8           9          10          11          12
    1  -0.7855638  -0.6235737  -0.5293251  -0.5188783  -0.5079426  -0.4458359
           13          14          15          16          17          18
    1  -0.4398973  -0.4104398  -0.3867308  -0.3248046  -0.0347784  -0.0165824
           19          20          21
    1   0.0266641   0.0281850   0.0348074
 Analysis of SCF Wavefunction
 
 --------------------------------------------------------------
                    Orbital Energies (a.u.)
 --------------------------------------------------------------
 
 Alpha MOs
 -- Occupied --
-24.709 -19.151 -10.350 -10.209  -1.253  -1.085  -0.786  -0.624
 -0.529  -0.519  -0.508  -0.446  -0.440  -0.410  -0.387  -0.325
 -- Virtual --
 -0.035  -0.017   0.027   0.028   0.035   0.070   0.073   0.084
  0.088   0.089   0.108   0.125   0.151   0.161   0.191   0.218
  0.234   0.244   0.244   0.273   0.282   0.303   0.324   0.343
  0.375   0.407   0.431   0.456   0.475   0.492   0.541   0.553
  0.597   0.612   0.628   0.638   0.725   0.736   0.747   0.829
  0.862   0.936   0.962   1.026   1.058   1.069   1.073   1.109
  1.110   1.147   1.187   1.215   1.298   1.332   1.339   1.360
  1.392   1.398   1.409   1.470   1.528   1.566   1.637   1.643
  1.754   1.857   1.929   2.032   2.094   2.144   2.216   2.418
  2.497   2.552   2.581   2.606   2.670   2.722   2.725   2.745
  2.884   2.901   2.998   3.005   3.062   3.082   3.109   3.226
  3.269   3.274   3.317   3.356   3.397   3.485   3.499   3.520
  3.556   3.569   3.701   3.799   3.847   3.914   3.953   4.053
  4.116   4.172   4.221   4.223   4.377   4.378   4.452   4.518
  4.631   4.967   5.043   5.052   5.102   5.148   5.410   5.447
  5.581   5.587   5.655   6.181   6.206   6.261   6.430   6.604
  6.613   6.628   6.724   6.742   6.835   6.877   6.934   7.030
  7.204   7.387   7.439   7.520   7.643   9.082   9.134   9.442
  9.631   9.939  24.233  24.589  27.269  27.679  28.065  28.086
 28.122  28.429  40.809  40.941  40.995  41.009  41.019  41.076
 41.164  41.176  41.246  41.285  43.699  43.742  43.851  43.931
 43.951  45.811  45.938  46.667  50.116  50.133  50.170  50.268
 50.320  50.466  55.730  55.802  56.155  66.823
 
 Beta MOs
 -- Occupied --
-24.709 -19.151 -10.350 -10.209  -1.253  -1.085  -0.786  -0.624
 -0.529  -0.519  -0.508  -0.446  -0.440  -0.410  -0.387  -0.325
 -- Virtual --
 -0.035  -0.017   0.027   0.028   0.035   0.070   0.073   0.084
  0.088   0.089   0.108   0.125   0.151   0.161   0.191   0.218
  0.234   0.244   0.244   0.273   0.282   0.303   0.324   0.343
  0.375   0.407   0.431   0.456   0.475   0.492   0.541   0.553
  0.597   0.612   0.628   0.638   0.725   0.736   0.747   0.829
  0.862   0.936   0.962   1.026   1.058   1.069   1.073   1.109
  1.110   1.147   1.187   1.215   1.298   1.332   1.339   1.360
  1.392   1.398   1.409   1.470   1.528   1.566   1.637   1.643
  1.754   1.857   1.929   2.032   2.094   2.144   2.216   2.418
  2.497   2.552   2.581   2.606   2.670   2.722   2.725   2.745
  2.884   2.901   2.998   3.005   3.062   3.082   3.109   3.226
  3.269   3.274   3.317   3.356   3.397   3.485   3.499   3.520
  3.556   3.569   3.701   3.799   3.847   3.914   3.953   4.053
  4.116   4.172   4.221   4.223   4.377   4.378   4.452   4.518
  4.631   4.967   5.043   5.052   5.102   5.148   5.410   5.447
  5.581   5.587   5.655   6.181   6.206   6.261   6.430   6.604
  6.613   6.628   6.724   6.742   6.835   6.877   6.934   7.030
  7.204   7.387   7.439   7.520   7.643   9.082   9.134   9.442
  9.631   9.939  24.233  24.589  27.269  27.679  28.065  28.086
 28.122  28.429  40.809  40.941  40.995  41.009  41.019  41.076
 41.164  41.176  41.246  41.285  43.699  43.742  43.851  43.931
 43.951  45.811  45.938  46.667  50.116  50.133  50.170  50.268
 50.320  50.466  55.730  55.802  56.155  66.823
 --------------------------------------------------------------
 
          Ground-State Mulliken Net Atomic Charges

     Atom                 Charge (a.u.)    Spin (a.u.)
  --------------------------------------------------------
      1 C                     0.284248       0.000000
      2 O                    -0.316286       0.000000
      3 F                    -0.159278       0.000000
      4 C                    -0.212399       0.000000
      5 H                     0.130678       0.000000
      6 H                     0.136519       0.000000
      7 H                     0.136519       0.000000
  --------------------------------------------------------
  Sum of atomic charges =     0.000000
  Sum of spin   charges =     0.000000

 -----------------------------------------------------------------
                    Cartesian Multipole Moments
 -----------------------------------------------------------------
    Charge (ESU x 10^10)
                 0.0000
    Dipole Moment (Debye)
         X      -2.0334      Y       0.0000      Z      -2.2973
       Tot       3.0680
    Quadrupole Moments (Debye-Ang)
        XX     -22.7576     XY       0.0000     YY     -21.5657
        XZ       1.7542     YZ       0.0000     ZZ     -24.7818
    Octapole Moments (Debye-Ang^2)
       XXX       5.1414    XXY       0.0000    XYY       2.9366
       YYY       0.0000    XXZ       4.3359    XYZ       0.0000
       YYZ       3.0691    XZZ       1.3806    YZZ       0.0000
       ZZZ       7.8816
    Hexadecapole Moments (Debye-Ang^3)
      XXXX    -129.0861   XXXY       0.0000   XXYY     -26.8946
      XYYY       0.0000   YYYY     -25.5519   XXXZ     -14.2823
      XXYZ       0.0000   XYYZ      -3.5039   YYYZ       0.0000
      XXZZ     -45.1087   XYZZ       0.0000   YYZZ     -23.9207
      XZZZ     -11.9511   YZZZ       0.0000   ZZZZ    -134.6512
 -----------------------------------------------------------------
 Calculating analytic gradient of the SCF energy
 Gradient of XC Energy
            1           2           3           4           5           6
    1  -0.0546015  -0.0019420   0.1877333   0.0320414  -0.1742251   0.0054969
    2  -0.0000000   0.0000000   0.0000000  -0.0000000   0.0000000   0.1504599
    3  -0.2277898   0.4362228  -0.1018664   0.0234557   0.0970802  -0.1135513
            7
    1   0.0054969
    2  -0.1504599
    3  -0.1135513
 Gradient of SCF Energy
            1           2           3           4           5           6
    1   0.0045106  -0.0016345   0.0002375   0.0003769  -0.0031335  -0.0001785
    2  -0.0000000   0.0000000   0.0000000  -0.0000000  -0.0000000   0.0026430
    3  -0.0122515   0.0170225  -0.0020267   0.0000356   0.0015700  -0.0021750
            7
    1  -0.0001785
    2  -0.0026430
    3  -0.0021750
 Max gradient component =       1.702E-02
 RMS gradient           =       4.894E-03
 Gradient time:  CPU 49.95 s  wall 50.17 s
 Geometry Optimization Parameters
   NAtoms,    NIC,     NZ,  NCons,   NDum,   NFix, NCnnct, MaxDiis
        7      35       7       0       0       0       0       0


** GEOMETRY OPTIMIZATION IN DELOCALIZED INTERNAL COORDINATES **
   Searching for a Minimum

   Optimization Cycle:   1

                       Coordinates (Angstroms)
     ATOM              X           Y           Z
    1  C           0.000000    0.000000    0.000000
    2  O           0.000000    0.000000    1.190386
    3  F           1.173197    0.000000   -0.693231
    4  C          -1.164380    0.000000   -0.945855
    5  H          -2.099381    0.000000   -0.385263
    6  H          -1.113052    0.881849   -1.593052
    7  H          -1.113052   -0.881849   -1.593052
   Point Group: c1    Number of degrees of freedom:  15


   Energy is   -253.194728857


 Attempting to Generate Delocalized Internal Coordinates

 12 Hessian modes will be used to form the next step
  Hessian Eigenvalues:
     0.076510    0.160000    0.160000    0.160000    0.250000    0.250000
     0.323625    0.342344    0.342344    0.347920    0.524048    1.098063

 Minimum Search - Taking Simple RFO Step
 Searching for Lamda that Minimizes Along All modes
 Value Taken    Lamda =  -0.00046954
 Step Taken.  Stepsize is  0.030070

                             Maximum     Tolerance    Cnvgd?
         Gradient           0.010922      0.000300      NO
         Displacement       0.021396      0.001200      NO
         Energy change     *********      0.000001      NO


 New Cartesian Coordinates Obtained by Inverse Iteration

 Displacement from previous Coordinates is:  0.033499
 Writing REM_CC_EA            7
 ----------------------------------------------------
       Standard Nuclear Orientation (Angstroms)
    I     Atom         X            Y            Z
 ----------------------------------------------------
    1      C      -0.005609     0.000000    -0.003381
    2      O      -0.000314     0.000000     1.178788
    3      F       1.170644     0.000000    -0.688966
    4      C      -1.164754     0.000000    -0.944934
    5      H      -2.094468     0.000000    -0.385823
    6      H      -1.111084     0.878293    -1.587876
    7      H      -1.111084    -0.878293    -1.587876
 ----------------------------------------------------
 Nuclear Repulsion Energy =   118.7533181462 hartrees
 There are       16 alpha and       16 beta electrons
 Applying Cartesian multipole field
    Component          Value
    ---------          -----
     (2,0,0)        1.00000E-11
     (0,2,0)        2.00000E-11
     (0,0,2)       -3.00000E-11
 Nucleus-field energy     =    -0.0000000017 hartrees
 Requested basis set is G3large
 There are 58 shells and 198 basis functions
 A cutoff of  1.0D-11 yielded   1609 shell pairs
 There are  18909 function pairs ( 23856 Cartesian)
Evaluating contribution to one-electron hamiltonian from nuclear
 Smallest overlap matrix eigenvalue = 1.30E-04
 Multipole matrices computed through 2nd order
 Guess MOs from SCF MO coefficient file
Reading MOs from coefficient file
Reading MOs from coefficient file
 An unrestricted hybrid HF-DFT SCF calculation will be
 performed using Pulay DIIS extrapolation
 Exchange:     0.2000 Hartree-Fock + 0.0800 Slater + 0.7200 Becke88
 Correlation:  0.8100 LYP + 0.1900 VWN1RPA
 Using SG-1 standard quadrature grid
 SCF converges when DIIS error is below 1.0E-08
 ---------------------------------------
  Cycle       Energy         DIIS Error
 ---------------------------------------
    1    -253.2003764431      3.70E-04
    2    -253.1949427008      8.58E-05
    3    -253.1949222545      1.22E-04
    4    -253.1949714332      1.48E-05
    5    -253.1949719499      6.90E-06
    6    -253.1949719189      3.55E-06
    7    -253.1949719231      4.10E-07
    8    -253.1949719580      8.43E-08
    9    -253.1949719671      3.11E-08
   10    -253.1949719626      4.47E-09 Convergence criterion met
 ---------------------------------------
 One-Electron    Energy =  -582.4071170197
 Total Coulomb   Energy =   241.4974384484
 Alpha Exchange  Energy =    -2.9697406064
 Beta  Exchange  Energy =    -2.9697406064
 DFT   Exchange  Energy =   -23.6574149179
 DFT Correlation Energy =    -1.4417154051
 Nuclear Repu.   Energy =   118.7533181445
 Nuclear Attr.   Energy =  -834.8017709412
 Kinetic         Energy =   252.3946539214
 <S^2> = 0.0000
 SCF time:  CPU 107.70 s  wall 108.05 s
 Final Alpha MO Eigenvalues
            1           2           3           4           5           6
    1 -24.7067743 -19.1502374 -10.3476752 -10.2072802  -1.2527382  -1.0885816
            7           8           9          10          11          12
    1  -0.7878245  -0.6227198  -0.5304379  -0.5198856  -0.5078729  -0.4468286
           13          14          15          16          17          18
    1  -0.4405537  -0.4105326  -0.3877357  -0.3248584  -0.0319088  -0.0162669
           19          20          21
    1   0.0268911   0.0282641   0.0350666
 Final Beta MO Eigenvalues
            1           2           3           4           5           6
    1 -24.7067743 -19.1502374 -10.3476752 -10.2072802  -1.2527382  -1.0885816
            7           8           9          10          11          12
    1  -0.7878245  -0.6227198  -0.5304379  -0.5198856  -0.5078729  -0.4468286
           13          14          15          16          17          18
    1  -0.4405537  -0.4105326  -0.3877357  -0.3248584  -0.0319088  -0.0162669
           19          20          21
    1   0.0268911   0.0282641   0.0350666
 Analysis of SCF Wavefunction
 
 --------------------------------------------------------------
                    Orbital Energies (a.u.)
 --------------------------------------------------------------
 
 Alpha MOs
 -- Occupied --
-24.707 -19.150 -10.348 -10.207  -1.253  -1.089  -0.788  -0.623
 -0.530  -0.520  -0.508  -0.447  -0.441  -0.411  -0.388  -0.325
 -- Virtual --
 -0.032  -0.016   0.027   0.028   0.035   0.071   0.073   0.084
  0.088   0.089   0.108   0.126   0.152   0.162   0.193   0.219
  0.234   0.244   0.246   0.275   0.283   0.304   0.324   0.343
  0.376   0.407   0.433   0.459   0.476   0.495   0.542   0.556
  0.598   0.614   0.631   0.641   0.725   0.739   0.748   0.831
  0.864   0.939   0.962   1.028   1.058   1.070   1.075   1.110
  1.114   1.149   1.190   1.218   1.300   1.334   1.341   1.362
  1.393   1.400   1.412   1.472   1.530   1.570   1.640   1.647
  1.768   1.860   1.930   2.035   2.093   2.145   2.223   2.419
  2.501   2.555   2.585   2.606   2.673   2.724   2.727   2.753
  2.885   2.900   3.002   3.003   3.062   3.087   3.110   3.230
  3.268   3.275   3.320   3.362   3.401   3.488   3.500   3.526
  3.561   3.567   3.710   3.810   3.860   3.920   3.967   4.069
  4.128   4.183   4.231   4.242   4.387   4.389   4.462   4.527
  4.636   4.971   5.045   5.054   5.115   5.155   5.420   5.462
  5.602   5.609   5.680   6.182   6.216   6.291   6.443   6.607
  6.616   6.633   6.734   6.746   6.841   6.884   6.951   7.033
  7.206   7.397   7.457   7.526   7.644   9.085   9.137   9.445
  9.637   9.942  24.262  24.613  27.275  27.698  28.076  28.096
 28.132  28.441  40.813  40.944  40.998  41.014  41.027  41.084
 41.167  41.181  41.253  41.295  43.701  43.744  43.853  43.935
 43.958  45.819  45.950  46.685  50.118  50.135  50.187  50.270
 50.326  50.470  55.732  55.805  56.159  66.827
 
 Beta MOs
 -- Occupied --
-24.707 -19.150 -10.348 -10.207  -1.253  -1.089  -0.788  -0.623
 -0.530  -0.520  -0.508  -0.447  -0.441  -0.411  -0.388  -0.325
 -- Virtual --
 -0.032  -0.016   0.027   0.028   0.035   0.071   0.073   0.084
  0.088   0.089   0.108   0.126   0.152   0.162   0.193   0.219
  0.234   0.244   0.246   0.275   0.283   0.304   0.324   0.343
  0.376   0.407   0.433   0.459   0.476   0.495   0.542   0.556
  0.598   0.614   0.631   0.641   0.725   0.739   0.748   0.831
  0.864   0.939   0.962   1.028   1.058   1.070   1.075   1.110
  1.114   1.149   1.190   1.218   1.300   1.334   1.341   1.362
  1.393   1.400   1.412   1.472   1.530   1.570   1.640   1.647
  1.768   1.860   1.930   2.035   2.093   2.145   2.223   2.419
  2.501   2.555   2.585   2.606   2.673   2.724   2.727   2.753
  2.885   2.900   3.002   3.003   3.062   3.087   3.110   3.230
  3.268   3.275   3.320   3.362   3.401   3.488   3.500   3.526
  3.561   3.567   3.710   3.810   3.860   3.920   3.967   4.069
  4.128   4.183   4.231   4.242   4.387   4.389   4.462   4.527
  4.636   4.971   5.045   5.054   5.115   5.155   5.420   5.462
  5.602   5.609   5.680   6.182   6.216   6.291   6.443   6.607
  6.616   6.633   6.734   6.746   6.841   6.884   6.951   7.033
  7.206   7.397   7.457   7.526   7.644   9.085   9.137   9.445
  9.637   9.942  24.262  24.613  27.275  27.698  28.076  28.096
 28.132  28.441  40.813  40.944  40.998  41.014  41.027  41.084
 41.167  41.181  41.253  41.295  43.701  43.744  43.853  43.935
 43.958  45.819  45.950  46.685  50.118  50.135  50.187  50.270
 50.326  50.470  55.732  55.805  56.159  66.827
 --------------------------------------------------------------
 
          Ground-State Mulliken Net Atomic Charges

     Atom                 Charge (a.u.)    Spin (a.u.)
  --------------------------------------------------------
      1 C                     0.288239       0.000000
      2 O                    -0.317151       0.000000
      3 F                    -0.162468       0.000000
      4 C                    -0.216243       0.000000
      5 H                     0.131791       0.000000
      6 H                     0.137916       0.000000
      7 H                     0.137916       0.000000
  --------------------------------------------------------
  Sum of atomic charges =     0.000000
  Sum of spin   charges =     0.000000

 -----------------------------------------------------------------
                    Cartesian Multipole Moments
 -----------------------------------------------------------------
    Charge (ESU x 10^10)
                 0.0000
    Dipole Moment (Debye)
         X      -2.0567      Y       0.0000      Z      -2.2746
       Tot       3.0666
    Quadrupole Moments (Debye-Ang)
        XX     -22.7461     XY       0.0000     YY     -21.5208
        XZ       1.7591     YZ       0.0000     ZZ     -24.7247
    Octapole Moments (Debye-Ang^2)
       XXX       5.1964    XXY       0.0000    XYY       2.9443
       YYY       0.0000    XXZ       4.4151    XYZ       0.0000
       YYZ       3.1316    XZZ       1.4224    YZZ       0.0000
       ZZZ       8.1142
    Hexadecapole Moments (Debye-Ang^3)
      XXXX    -128.6912   XXXY       0.0000   XXYY     -26.7852
      XYYY       0.0000   YYYY     -25.3797   XXXZ     -14.2443
      XXYZ       0.0000   XYYZ      -3.5115   YYYZ       0.0000
      XXZZ     -44.8116   XYZZ       0.0000   YYZZ     -23.6812
      XZZZ     -11.9330   YZZZ       0.0000   ZZZZ    -133.1488
 -----------------------------------------------------------------
 Calculating analytic gradient of the SCF energy
 Gradient of XC Energy
            1           2           3           4           5           6
    1  -0.0582584   0.0010360   0.1877917   0.0315361  -0.1745461   0.0062204
    2   0.0000000  -0.0000000  -0.0000000  -0.0000000   0.0000000   0.1509999
    3  -0.2330907   0.4368601  -0.0983305   0.0237983   0.0976436  -0.1134404
            7
    1   0.0062204
    2  -0.1509999
    3  -0.1134404
 Gradient of SCF Energy
            1           2           3           4           5           6
    1   0.0013908   0.0001210  -0.0012436  -0.0003387  -0.0000020   0.0000362
    2   0.0000000  -0.0000000  -0.0000000   0.0000000   0.0000000   0.0000367
    3  -0.0032574   0.0017004   0.0012066   0.0002046   0.0000197   0.0000631
            7
    1   0.0000362
    2  -0.0000367
    3   0.0000631
 Max gradient component =       3.257E-03
 RMS gradient           =       9.417E-04
 Gradient time:  CPU 49.28 s  wall 49.35 s
 Geometry Optimization Parameters
   NAtoms,    NIC,     NZ,  NCons,   NDum,   NFix, NCnnct, MaxDiis
        7      35       7       0       0       0       0       0

 Cartesian Hessian Update
 Hessian Updated using BFGS Update


** GEOMETRY OPTIMIZATION IN DELOCALIZED INTERNAL COORDINATES **
   Searching for a Minimum

   Optimization Cycle:   2

                       Coordinates (Angstroms)
     ATOM              X           Y           Z
    1  C          -0.005609    0.000000   -0.003381
    2  O          -0.000314    0.000000    1.178788
    3  F           1.170644    0.000000   -0.688966
    4  C          -1.164754    0.000000   -0.944934
    5  H          -2.094468    0.000000   -0.385823
    6  H          -1.111084    0.878293   -1.587876
    7  H          -1.111084   -0.878293   -1.587876
   Point Group: c1    Number of degrees of freedom:  15


   Energy is   -253.194971963

 Hessian Updated using BFGS Update

 10 Hessian modes will be used to form the next step
  Hessian Eigenvalues:
     0.076511    0.159933    0.160590    0.247821    0.258894    0.324446
     0.342781    0.348034    0.538801    1.002902

 Minimum Search - Taking Simple RFO Step
 Searching for Lamda that Minimizes Along All modes
 Value Taken    Lamda =  -0.00001198
 Step Taken.  Stepsize is  0.005206

                             Maximum     Tolerance    Cnvgd?
         Gradient           0.002205      0.000300      NO
         Displacement       0.003990      0.001200      NO
         Energy change     -0.000243      0.000001      NO


 New Cartesian Coordinates Obtained by Inverse Iteration

 Displacement from previous Coordinates is:  0.004663
 Writing REM_CC_EA            7
 ----------------------------------------------------
       Standard Nuclear Orientation (Angstroms)
    I     Atom         X            Y            Z
 ----------------------------------------------------
    1      C      -0.006226     0.000000    -0.002111
    2      O      -0.000682     0.000000     1.179005
    3      F       1.170299     0.000000    -0.690666
    4      C      -1.164390     0.000000    -0.944634
    5      H      -2.094334     0.000000    -0.386168
    6      H      -1.110668     0.878005    -1.587747
    7      H      -1.110668    -0.878005    -1.587747
 ----------------------------------------------------
 Nuclear Repulsion Energy =   118.7445492666 hartrees
 There are       16 alpha and       16 beta electrons
 Applying Cartesian multipole field
    Component          Value
    ---------          -----
     (2,0,0)        1.00000E-11
     (0,2,0)        2.00000E-11
     (0,0,2)       -3.00000E-11
 Nucleus-field energy     =    -0.0000000017 hartrees
 Requested basis set is G3large
 There are 58 shells and 198 basis functions
 A cutoff of  1.0D-11 yielded   1609 shell pairs
 There are  18909 function pairs ( 23856 Cartesian)
Evaluating contribution to one-electron hamiltonian from nuclear
 Smallest overlap matrix eigenvalue = 1.30E-04
 Multipole matrices computed through 2nd order
 Guess MOs from SCF MO coefficient file
Reading MOs from coefficient file
Reading MOs from coefficient file
 An unrestricted hybrid HF-DFT SCF calculation will be
 performed using Pulay DIIS extrapolation
 Exchange:     0.2000 Hartree-Fock + 0.0800 Slater + 0.7200 Becke88
 Correlation:  0.8100 LYP + 0.1900 VWN1RPA
 Using SG-1 standard quadrature grid
 SCF converges when DIIS error is below 1.0E-08
 ---------------------------------------
  Cycle       Energy         DIIS Error
 ---------------------------------------
    1    -253.1944930884      7.13E-05
    2    -253.1949776784      2.67E-05
    3    -253.1949730772      4.69E-05
    4    -253.1949802771      3.57E-06
    5    -253.1949804759      2.28E-06
    6    -253.1949804406      3.69E-07
    7    -253.1949804097      8.44E-08
    8    -253.1949804268      2.10E-08
    9    -253.1949804244      4.45E-09 Convergence criterion met
 ---------------------------------------
 One-Electron    Energy =  -582.3907554447
 Total Coulomb   Energy =   241.4901665657
 Alpha Exchange  Energy =    -2.9697706620
 Beta  Exchange  Energy =    -2.9697706620
 DFT   Exchange  Energy =   -23.6576784262
 DFT Correlation Energy =    -1.4417210599
 Nuclear Repu.   Energy =   118.7445492649
 Nuclear Attr.   Energy =  -834.7873919547
 Kinetic         Energy =   252.3966365100
 <S^2> = 0.0000
 SCF time:  CPU 95.41 s  wall 95.69 s
 Final Alpha MO Eigenvalues
            1           2           3           4           5           6
    1 -24.7062305 -19.1506461 -10.3476361 -10.2071864  -1.2517651  -1.0894539
            7           8           9          10          11          12
    1  -0.7878287  -0.6222419  -0.5303798  -0.5195867  -0.5078709  -0.4469918
           13          14          15          16          17          18
    1  -0.4402838  -0.4102936  -0.3881936  -0.3252715  -0.0318507  -0.0162516
           19          20          21
    1   0.0269329   0.0282594   0.0350522
 Final Beta MO Eigenvalues
            1           2           3           4           5           6
    1 -24.7062305 -19.1506461 -10.3476361 -10.2071864  -1.2517651  -1.0894539
            7           8           9          10          11          12
    1  -0.7878287  -0.6222419  -0.5303798  -0.5195867  -0.5078709  -0.4469918
           13          14          15          16          17          18
    1  -0.4402838  -0.4102936  -0.3881936  -0.3252715  -0.0318507  -0.0162516
           19          20          21
    1   0.0269329   0.0282594   0.0350522
 Analysis of SCF Wavefunction
 
 --------------------------------------------------------------
                    Orbital Energies (a.u.)
 --------------------------------------------------------------
 
 Alpha MOs
 -- Occupied --
-24.706 -19.151 -10.348 -10.207  -1.252  -1.089  -0.788  -0.622
 -0.530  -0.520  -0.508  -0.447  -0.440  -0.410  -0.388  -0.325
 -- Virtual --
 -0.032  -0.016   0.027   0.028   0.035   0.071   0.073   0.084
  0.088   0.089   0.108   0.126   0.152   0.162   0.193   0.219
  0.234   0.244   0.246   0.275   0.283   0.304   0.324   0.343
  0.376   0.407   0.433   0.459   0.476   0.495   0.542   0.556
  0.598   0.614   0.631   0.641   0.725   0.740   0.747   0.831
  0.864   0.940   0.962   1.028   1.057   1.070   1.075   1.110
  1.113   1.149   1.190   1.218   1.300   1.334   1.342   1.362
  1.393   1.400   1.413   1.473   1.531   1.571   1.640   1.647
  1.767   1.861   1.931   2.036   2.094   2.145   2.222   2.420
  2.500   2.553   2.584   2.606   2.673   2.723   2.727   2.752
  2.885   2.899   3.002   3.003   3.062   3.087   3.110   3.230
  3.269   3.275   3.320   3.362   3.401   3.486   3.500   3.525
  3.561   3.568   3.711   3.810   3.860   3.920   3.967   4.070
  4.129   4.183   4.232   4.243   4.388   4.389   4.462   4.527
  4.636   4.971   5.045   5.054   5.115   5.156   5.421   5.463
  5.602   5.609   5.681   6.183   6.217   6.294   6.445   6.607
  6.616   6.633   6.733   6.746   6.840   6.883   6.953   7.031
  7.206   7.397   7.453   7.525   7.643   9.085   9.137   9.444
  9.636   9.941  24.263  24.612  27.275  27.699  28.078  28.096
 28.132  28.442  40.813  40.944  40.997  41.014  41.027  41.085
 41.167  41.181  41.253  41.295  43.701  43.744  43.853  43.935
 43.958  45.820  45.951  46.686  50.119  50.136  50.188  50.270
 50.325  50.471  55.732  55.805  56.157  66.827
 
 Beta MOs
 -- Occupied --
-24.706 -19.151 -10.348 -10.207  -1.252  -1.089  -0.788  -0.622
 -0.530  -0.520  -0.508  -0.447  -0.440  -0.410  -0.388  -0.325
 -- Virtual --
 -0.032  -0.016   0.027   0.028   0.035   0.071   0.073   0.084
  0.088   0.089   0.108   0.126   0.152   0.162   0.193   0.219
  0.234   0.244   0.246   0.275   0.283   0.304   0.324   0.343
  0.376   0.407   0.433   0.459   0.476   0.495   0.542   0.556
  0.598   0.614   0.631   0.641   0.725   0.740   0.747   0.831
  0.864   0.940   0.962   1.028   1.057   1.070   1.075   1.110
  1.113   1.149   1.190   1.218   1.300   1.334   1.342   1.362
  1.393   1.400   1.413   1.473   1.531   1.571   1.640   1.647
  1.767   1.861   1.931   2.036   2.094   2.145   2.222   2.420
  2.500   2.553   2.584   2.606   2.673   2.723   2.727   2.752
  2.885   2.899   3.002   3.003   3.062   3.087   3.110   3.230
  3.269   3.275   3.320   3.362   3.401   3.486   3.500   3.525
  3.561   3.568   3.711   3.810   3.860   3.920   3.967   4.070
  4.129   4.183   4.232   4.243   4.388   4.389   4.462   4.527
  4.636   4.971   5.045   5.054   5.115   5.156   5.421   5.463
  5.602   5.609   5.681   6.183   6.217   6.294   6.445   6.607
  6.616   6.633   6.733   6.746   6.840   6.883   6.953   7.031
  7.206   7.397   7.453   7.525   7.643   9.085   9.137   9.444
  9.636   9.941  24.263  24.612  27.275  27.699  28.078  28.096
 28.132  28.442  40.813  40.944  40.997  41.014  41.027  41.085
 41.167  41.181  41.253  41.295  43.701  43.744  43.853  43.935
 43.958  45.820  45.951  46.686  50.119  50.136  50.188  50.270
 50.325  50.471  55.732  55.805  56.157  66.827
 --------------------------------------------------------------
 
          Ground-State Mulliken Net Atomic Charges

     Atom                 Charge (a.u.)    Spin (a.u.)
  --------------------------------------------------------
      1 C                     0.288857       0.000000
      2 O                    -0.316106       0.000000
      3 F                    -0.163719       0.000000
      4 C                    -0.216834       0.000000
      5 H                     0.131591       0.000000
      6 H                     0.138106       0.000000
      7 H                     0.138106       0.000000
  --------------------------------------------------------
  Sum of atomic charges =     0.000000
  Sum of spin   charges =     0.000000

 -----------------------------------------------------------------
                    Cartesian Multipole Moments
 -----------------------------------------------------------------
    Charge (ESU x 10^10)
                 0.0000
    Dipole Moment (Debye)
         X      -2.0631      Y       0.0000      Z      -2.2608
       Tot       3.0606
    Quadrupole Moments (Debye-Ang)
        XX     -22.7566     XY       0.0000     YY     -21.5199
        XZ       1.7672     YZ       0.0000     ZZ     -24.7175
    Octapole Moments (Debye-Ang^2)
       XXX       5.1984    XXY       0.0000    XYY       2.9442
       YYY       0.0000    XXZ       4.4280    XYZ       0.0000
       YYZ       3.1402    XZZ       1.4146    YZZ       0.0000
       ZZZ       8.1294
    Hexadecapole Moments (Debye-Ang^3)
      XXXX    -128.6950   XXXY       0.0000   XXYY     -26.7802
      XYYY       0.0000   YYYY     -25.3719   XXXZ     -14.1809
      XXYZ       0.0000   XYYZ      -3.4943   YYYZ       0.0000
      XXZZ     -44.8062   XYZZ       0.0000   YYZZ     -23.6858
      XZZZ     -11.8655   YZZZ       0.0000   ZZZZ    -133.1636
 -----------------------------------------------------------------
 Calculating analytic gradient of the SCF energy
 Gradient of XC Energy
            1           2           3           4           5           6
    1  -0.0575574   0.0009924   0.1868537   0.0318729  -0.1745538   0.0061961
    2  -0.0000000   0.0000000   0.0000000  -0.0000000   0.0000000   0.1509408
    3  -0.2331495   0.4374980  -0.0985855   0.0238063   0.0975351  -0.1135522
            7
    1   0.0061961
    2  -0.1509408
    3  -0.1135522
 Gradient of SCF Energy
            1           2           3           4           5           6
    1   0.0009568  -0.0001298  -0.0008055  -0.0001184   0.0001280  -0.0000155
    2  -0.0000000   0.0000000  -0.0000000   0.0000000   0.0000000  -0.0000536
    3  -0.0010585   0.0003215   0.0004990   0.0001400  -0.0000073   0.0000527
            7
    1  -0.0000155
    2   0.0000536
    3   0.0000527
 Max gradient component =       1.059E-03
 RMS gradient           =       3.852E-04
 Gradient time:  CPU 54.23 s  wall 54.29 s
 Geometry Optimization Parameters
   NAtoms,    NIC,     NZ,  NCons,   NDum,   NFix, NCnnct, MaxDiis
        7      35       7       0       0       0       0       0

 Cartesian Hessian Update
 Hessian Updated using BFGS Update


** GEOMETRY OPTIMIZATION IN DELOCALIZED INTERNAL COORDINATES **
   Searching for a Minimum

   Optimization Cycle:   3

                       Coordinates (Angstroms)
     ATOM              X           Y           Z
    1  C          -0.006226    0.000000   -0.002111
    2  O          -0.000682    0.000000    1.179005
    3  F           1.170299    0.000000   -0.690666
    4  C          -1.164390    0.000000   -0.944634
    5  H          -2.094334    0.000000   -0.386168
    6  H          -1.110668    0.878005   -1.587747
    7  H          -1.110668   -0.878005   -1.587747
   Point Group: c1    Number of degrees of freedom:  15


   Energy is   -253.194980424

 Hessian Updated using BFGS Update

 11 Hessian modes will be used to form the next step
  Hessian Eigenvalues:
     0.076480    0.158860    0.162274    0.193614    0.287341    0.326298
     0.342344    0.343197    0.352636    0.367660    1.045878

 Minimum Search - Taking Simple RFO Step
 Searching for Lamda that Minimizes Along All modes
 Value Taken    Lamda =  -0.00000472
 Step Taken.  Stepsize is  0.004551

                             Maximum     Tolerance    Cnvgd?
         Gradient           0.000896      0.000300      NO
         Displacement       0.003602      0.001200      NO
         Energy change     -0.000008      0.000001      NO


 New Cartesian Coordinates Obtained by Inverse Iteration

 Displacement from previous Coordinates is:  0.004590
 Writing REM_CC_EA            7
 ----------------------------------------------------
       Standard Nuclear Orientation (Angstroms)
    I     Atom         X            Y            Z
 ----------------------------------------------------
    1      C      -0.006880     0.000000    -0.001031
    2      O       0.000239     0.000000     1.179516
    3      F       1.170545     0.000000    -0.691651
    4      C      -1.164571     0.000000    -0.944467
    5      H      -2.095368     0.000000    -0.387050
    6      H      -1.110316     0.877976    -1.587692
    7      H      -1.110316    -0.877976    -1.587692
 ----------------------------------------------------
 Nuclear Repulsion Energy =   118.7090364712 hartrees
 There are       16 alpha and       16 beta electrons
 Applying Cartesian multipole field
    Component          Value
    ---------          -----
     (2,0,0)        1.00000E-11
     (0,2,0)        2.00000E-11
     (0,0,2)       -3.00000E-11
 Nucleus-field energy     =    -0.0000000017 hartrees
 Requested basis set is G3large
 There are 58 shells and 198 basis functions
 A cutoff of  1.0D-11 yielded   1609 shell pairs
 There are  18909 function pairs ( 23856 Cartesian)
Evaluating contribution to one-electron hamiltonian from nuclear
 Smallest overlap matrix eigenvalue = 1.30E-04
 Multipole matrices computed through 2nd order
 Guess MOs from SCF MO coefficient file
Reading MOs from coefficient file
Reading MOs from coefficient file
 An unrestricted hybrid HF-DFT SCF calculation will be
 performed using Pulay DIIS extrapolation
 Exchange:     0.2000 Hartree-Fock + 0.0800 Slater + 0.7200 Becke88
 Correlation:  0.8100 LYP + 0.1900 VWN1RPA
 Using SG-1 standard quadrature grid
 SCF converges when DIIS error is below 1.0E-08
 ---------------------------------------
  Cycle       Energy         DIIS Error
 ---------------------------------------
    1    -253.1942069198      6.44E-05
    2    -253.1949808611      2.37E-05
    3    -253.1949772122      4.16E-05
    4    -253.1949828672      3.14E-06
    5    -253.1949830345      2.08E-06
    6    -253.1949830010      2.56E-07
    7    -253.1949830050      5.17E-08
    8    -253.1949830101      2.02E-08
    9    -253.1949830096      3.28E-09 Convergence criterion met
 ---------------------------------------
 One-Electron    Energy =  -582.3227447111
 Total Coulomb   Energy =   241.4570491333
 Alpha Exchange  Energy =    -2.9696997091
 Beta  Exchange  Energy =    -2.9696997091
 DFT   Exchange  Energy =   -23.6572461512
 DFT Correlation Energy =    -1.4416783318
 Nuclear Repu.   Energy =   118.7090364695
 Nuclear Attr.   Energy =  -834.7175015784
 Kinetic         Energy =   252.3947568673
 <S^2> = 0.0000
 SCF time:  CPU 93.46 s  wall 93.78 s
 Final Alpha MO Eigenvalues
            1           2           3           4           5           6
    1 -24.7056585 -19.1509936 -10.3476917 -10.2073408  -1.2507380  -1.0899569
            7           8           9          10          11          12
    1  -0.7878335  -0.6217245  -0.5302704  -0.5192036  -0.5077774  -0.4470714
           13          14          15          16          17          18
    1  -0.4400764  -0.4101205  -0.3884760  -0.3255801  -0.0319311  -0.0162749
           19          20          21
    1   0.0269440   0.0282138   0.0350450
 Final Beta MO Eigenvalues
            1           2           3           4           5           6
    1 -24.7056585 -19.1509936 -10.3476917 -10.2073408  -1.2507380  -1.0899569
            7           8           9          10          11          12
    1  -0.7878335  -0.6217245  -0.5302704  -0.5192036  -0.5077774  -0.4470714
           13          14          15          16          17          18
    1  -0.4400764  -0.4101205  -0.3884760  -0.3255801  -0.0319311  -0.0162749
           19          20          21
    1   0.0269440   0.0282138   0.0350450
 Analysis of SCF Wavefunction
 
 --------------------------------------------------------------
                    Orbital Energies (a.u.)
 --------------------------------------------------------------
 
 Alpha MOs
 -- Occupied --
-24.706 -19.151 -10.348 -10.207  -1.251  -1.090  -0.788  -0.622
 -0.530  -0.519  -0.508  -0.447  -0.440  -0.410  -0.388  -0.326
 -- Virtual --
 -0.032  -0.016   0.027   0.028   0.035   0.071   0.073   0.084
  0.088   0.089   0.108   0.126   0.151   0.162   0.193   0.219
  0.234   0.244   0.245   0.275   0.283   0.304   0.324   0.343
  0.376   0.407   0.433   0.459   0.476   0.495   0.541   0.556
  0.598   0.614   0.631   0.641   0.725   0.740   0.747   0.831
  0.863   0.940   0.962   1.028   1.057   1.070   1.075   1.110
  1.113   1.149   1.190   1.218   1.300   1.334   1.342   1.362
  1.393   1.400   1.413   1.473   1.531   1.571   1.640   1.647
  1.767   1.861   1.932   2.036   2.094   2.144   2.221   2.420
  2.500   2.552   2.584   2.606   2.673   2.723   2.727   2.751
  2.885   2.898   3.002   3.002   3.062   3.087   3.110   3.230
  3.269   3.275   3.320   3.362   3.401   3.485   3.499   3.524
  3.561   3.569   3.712   3.810   3.859   3.920   3.966   4.069
  4.128   4.183   4.232   4.243   4.388   4.388   4.462   4.527
  4.637   4.971   5.045   5.054   5.114   5.155   5.421   5.464
  5.602   5.609   5.682   6.183   6.218   6.297   6.445   6.607
  6.617   6.633   6.733   6.745   6.840   6.883   6.954   7.029
  7.206   7.396   7.450   7.522   7.643   9.085   9.137   9.443
  9.634   9.940  24.262  24.610  27.275  27.699  28.077  28.096
 28.132  28.444  40.812  40.944  40.997  41.014  41.027  41.085
 41.167  41.181  41.253  41.295  43.700  43.744  43.853  43.935
 43.958  45.820  45.951  46.687  50.119  50.136  50.189  50.270
 50.325  50.471  55.733  55.805  56.154  66.827
 
 Beta MOs
 -- Occupied --
-24.706 -19.151 -10.348 -10.207  -1.251  -1.090  -0.788  -0.622
 -0.530  -0.519  -0.508  -0.447  -0.440  -0.410  -0.388  -0.326
 -- Virtual --
 -0.032  -0.016   0.027   0.028   0.035   0.071   0.073   0.084
  0.088   0.089   0.108   0.126   0.151   0.162   0.193   0.219
  0.234   0.244   0.245   0.275   0.283   0.304   0.324   0.343
  0.376   0.407   0.433   0.459   0.476   0.495   0.541   0.556
  0.598   0.614   0.631   0.641   0.725   0.740   0.747   0.831
  0.863   0.940   0.962   1.028   1.057   1.070   1.075   1.110
  1.113   1.149   1.190   1.218   1.300   1.334   1.342   1.362
  1.393   1.400   1.413   1.473   1.531   1.571   1.640   1.647
  1.767   1.861   1.932   2.036   2.094   2.144   2.221   2.420
  2.500   2.552   2.584   2.606   2.673   2.723   2.727   2.751
  2.885   2.898   3.002   3.002   3.062   3.087   3.110   3.230
  3.269   3.275   3.320   3.362   3.401   3.485   3.499   3.524
  3.561   3.569   3.712   3.810   3.859   3.920   3.966   4.069
  4.128   4.183   4.232   4.243   4.388   4.388   4.462   4.527
  4.637   4.971   5.045   5.054   5.114   5.155   5.421   5.464
  5.602   5.609   5.682   6.183   6.218   6.297   6.445   6.607
  6.617   6.633   6.733   6.745   6.840   6.883   6.954   7.029
  7.206   7.396   7.450   7.522   7.643   9.085   9.137   9.443
  9.634   9.940  24.262  24.610  27.275  27.699  28.077  28.096
 28.132  28.444  40.812  40.944  40.997  41.014  41.027  41.085
 41.167  41.181  41.253  41.295  43.700  43.744  43.853  43.935
 43.958  45.820  45.951  46.687  50.119  50.136  50.189  50.270
 50.325  50.471  55.733  55.805  56.154  66.827
 --------------------------------------------------------------
 
          Ground-State Mulliken Net Atomic Charges

     Atom                 Charge (a.u.)    Spin (a.u.)
  --------------------------------------------------------
      1 C                     0.288992       0.000000
      2 O                    -0.315223       0.000000
      3 F                    -0.164925       0.000000
      4 C                    -0.216770       0.000000
      5 H                     0.131404       0.000000
      6 H                     0.138261       0.000000
      7 H                     0.138261       0.000000
  --------------------------------------------------------
  Sum of atomic charges =     0.000000
  Sum of spin   charges =     0.000000

 -----------------------------------------------------------------
                    Cartesian Multipole Moments
 -----------------------------------------------------------------
    Charge (ESU x 10^10)
                 0.0000
    Dipole Moment (Debye)
         X      -2.0746      Y       0.0000      Z      -2.2514
       Tot       3.0615
    Quadrupole Moments (Debye-Ang)
        XX     -22.7638     XY       0.0000     YY     -21.5202
        XZ       1.7756     YZ       0.0000     ZZ     -24.7128
    Octapole Moments (Debye-Ang^2)
       XXX       5.1648    XXY       0.0000    XYY       2.9376
       YYY       0.0000    XXZ       4.4326    XYZ       0.0000
       YYZ       3.1421    XZZ       1.3990    YZZ       0.0000
       ZZZ       8.1304
    Hexadecapole Moments (Debye-Ang^3)
      XXXX    -128.7567   XXXY       0.0000   XXYY     -26.7942
      XYYY       0.0000   YYYY     -25.3699   XXXZ     -14.1553
      XXYZ       0.0000   XYYZ      -3.4899   YYYZ       0.0000
      XXZZ     -44.8238   XYZZ       0.0000   YYZZ     -23.6911
      XZZZ     -11.8427   YZZZ       0.0000   ZZZZ    -133.2013
 -----------------------------------------------------------------
 Calculating analytic gradient of the SCF energy
 Gradient of XC Energy
            1           2           3           4           5           6
    1  -0.0575040   0.0016107   0.1861240   0.0318690  -0.1746571   0.0062787
    2  -0.0000000   0.0000000   0.0000000  -0.0000000   0.0000000   0.1509191
    3  -0.2335391   0.4380513  -0.0984682   0.0238944   0.0972755  -0.1136070
            7
    1   0.0062787
    2  -0.1509191
    3  -0.1136070
 Gradient of SCF Energy
            1           2           3           4           5           6
    1   0.0002574  -0.0000336  -0.0001235  -0.0000386   0.0000128  -0.0000372
    2  -0.0000000   0.0000000   0.0000000   0.0000000   0.0000000  -0.0000229
    3   0.0001869  -0.0002460   0.0000393   0.0000202   0.0000134  -0.0000069
            7
    1  -0.0000372
    2   0.0000229
    3  -0.0000069
 Max gradient component =       2.574E-04
 RMS gradient           =       9.405E-05
 Gradient time:  CPU 48.86 s  wall 48.92 s
 Geometry Optimization Parameters
   NAtoms,    NIC,     NZ,  NCons,   NDum,   NFix, NCnnct, MaxDiis
        7      35       7       0       0       0       0       0

 Cartesian Hessian Update
 Hessian Updated using BFGS Update


** GEOMETRY OPTIMIZATION IN DELOCALIZED INTERNAL COORDINATES **
   Searching for a Minimum

   Optimization Cycle:   4

                       Coordinates (Angstroms)
     ATOM              X           Y           Z
    1  C          -0.006880    0.000000   -0.001031
    2  O           0.000239    0.000000    1.179516
    3  F           1.170545    0.000000   -0.691651
    4  C          -1.164571    0.000000   -0.944467
    5  H          -2.095368    0.000000   -0.387050
    6  H          -1.110316    0.877976   -1.587692
    7  H          -1.110316   -0.877976   -1.587692
   Point Group: c1    Number of degrees of freedom:  15


   Energy is   -253.194983010

 Hessian Updated using BFGS Update

 10 Hessian modes will be used to form the next step
  Hessian Eigenvalues:
     0.076466    0.155011    0.161228    0.174589    0.286526    0.328444
     0.343301    0.352975    0.368628    1.077103

 Minimum Search - Taking Simple RFO Step
 Searching for Lamda that Minimizes Along All modes
 Value Taken    Lamda =   0.00000000
 Step Taken.  Stepsize is  0.000955

                             Maximum     Tolerance    Cnvgd?
         Gradient           0.000209      0.000300     YES
         Displacement       0.000573      0.001200     YES
         Energy change     -0.000003      0.000001      NO


                       Distance Matrix (Angstroms)
             C (  1)   O (  2)   F (  3)   C (  4)   H (  5)   H (  6)
   O (  2)  1.180569
   F (  3)  1.365023  2.207008
   C (  4)  1.493426  2.422414  2.348762
   H (  5)  2.123862  2.616428  3.280087  1.084940
   H (  6)  2.122712  3.108314  2.603087  1.089736  1.784015
   H (  7)  2.122712  3.108314  2.603086  1.089736  1.784015  1.755953

 


 ******************************
 **  OPTIMIZATION CONVERGED  **
 ******************************
 Analysis of SCF Wavefunction
 
 --------------------------------------------------------------
                    Orbital Energies (a.u.)
 --------------------------------------------------------------
 
 Alpha MOs
 -- Occupied --
-24.706 -19.151 -10.348 -10.207  -1.251  -1.090  -0.788  -0.622
 -0.530  -0.519  -0.508  -0.447  -0.440  -0.410  -0.388  -0.326
 -- Virtual --
 -0.032  -0.016   0.027   0.028   0.035   0.071   0.073   0.084
  0.088   0.089   0.108   0.126   0.151   0.162   0.193   0.219
  0.234   0.244   0.245   0.275   0.283   0.304   0.324   0.343
  0.376   0.407   0.433   0.459   0.476   0.495   0.541   0.556
  0.598   0.614   0.631   0.641   0.725   0.740   0.747   0.831
  0.863   0.940   0.962   1.028   1.057   1.070   1.075   1.110
  1.113   1.149   1.190   1.218   1.300   1.334   1.342   1.362
  1.393   1.400   1.413   1.473   1.531   1.571   1.640   1.647
  1.767   1.861   1.932   2.036   2.094   2.144   2.221   2.420
  2.500   2.552   2.584   2.606   2.673   2.723   2.727   2.751
  2.885   2.898   3.002   3.002   3.062   3.087   3.110   3.230
  3.269   3.275   3.320   3.362   3.401   3.485   3.499   3.524
  3.561   3.569   3.712   3.810   3.859   3.920   3.966   4.069
  4.128   4.183   4.232   4.243   4.388   4.388   4.462   4.527
  4.637   4.971   5.045   5.054   5.114   5.155   5.421   5.464
  5.602   5.609   5.682   6.183   6.218   6.297   6.445   6.607
  6.617   6.633   6.733   6.745   6.840   6.883   6.954   7.029
  7.206   7.396   7.450   7.522   7.643   9.085   9.137   9.443
  9.634   9.940  24.262  24.610  27.275  27.699  28.077  28.096
 28.132  28.444  40.812  40.944  40.997  41.014  41.027  41.085
 41.167  41.181  41.253  41.295  43.700  43.744  43.853  43.935
 43.958  45.820  45.951  46.687  50.119  50.136  50.189  50.270
 50.325  50.471  55.733  55.805  56.154  66.827
 
 Beta MOs
 -- Occupied --
-24.706 -19.151 -10.348 -10.207  -1.251  -1.090  -0.788  -0.622
 -0.530  -0.519  -0.508  -0.447  -0.440  -0.410  -0.388  -0.326
 -- Virtual --
 -0.032  -0.016   0.027   0.028   0.035   0.071   0.073   0.084
  0.088   0.089   0.108   0.126   0.151   0.162   0.193   0.219
  0.234   0.244   0.245   0.275   0.283   0.304   0.324   0.343
  0.376   0.407   0.433   0.459   0.476   0.495   0.541   0.556
  0.598   0.614   0.631   0.641   0.725   0.740   0.747   0.831
  0.863   0.940   0.962   1.028   1.057   1.070   1.075   1.110
  1.113   1.149   1.190   1.218   1.300   1.334   1.342   1.362
  1.393   1.400   1.413   1.473   1.531   1.571   1.640   1.647
  1.767   1.861   1.932   2.036   2.094   2.144   2.221   2.420
  2.500   2.552   2.584   2.606   2.673   2.723   2.727   2.751
  2.885   2.898   3.002   3.002   3.062   3.087   3.110   3.230
  3.269   3.275   3.320   3.362   3.401   3.485   3.499   3.524
  3.561   3.569   3.712   3.810   3.859   3.920   3.966   4.069
  4.128   4.183   4.232   4.243   4.388   4.388   4.462   4.527
  4.637   4.971   5.045   5.054   5.114   5.155   5.421   5.464
  5.602   5.609   5.682   6.183   6.218   6.297   6.445   6.607
  6.617   6.633   6.733   6.745   6.840   6.883   6.954   7.029
  7.206   7.396   7.450   7.522   7.643   9.085   9.137   9.443
  9.634   9.940  24.262  24.610  27.275  27.699  28.077  28.096
 28.132  28.444  40.812  40.944  40.997  41.014  41.027  41.085
 41.167  41.181  41.253  41.295  43.700  43.744  43.853  43.935
 43.958  45.820  45.951  46.687  50.119  50.136  50.189  50.270
 50.325  50.471  55.733  55.805  56.154  66.827
 --------------------------------------------------------------
 
          Ground-State Mulliken Net Atomic Charges

     Atom                 Charge (a.u.)    Spin (a.u.)
  --------------------------------------------------------
      1 C                     0.288992       0.000000
      2 O                    -0.315223       0.000000
      3 F                    -0.164925       0.000000
      4 C                    -0.216770       0.000000
      5 H                     0.131404       0.000000
      6 H                     0.138261       0.000000
      7 H                     0.138261       0.000000
  --------------------------------------------------------
  Sum of atomic charges =     0.000000
  Sum of spin   charges =     0.000000

 -----------------------------------------------------------------
                    Cartesian Multipole Moments
 -----------------------------------------------------------------
    Charge (ESU x 10^10)
                 0.0000
    Dipole Moment (Debye)
         X      -2.0746      Y       0.0000      Z      -2.2514
       Tot       3.0615
    Quadrupole Moments (Debye-Ang)
        XX     -22.7638     XY       0.0000     YY     -21.5202
        XZ       1.7756     YZ       0.0000     ZZ     -24.7128
    Octapole Moments (Debye-Ang^2)
       XXX       5.1648    XXY       0.0000    XYY       2.9376
       YYY       0.0000    XXZ       4.4326    XYZ       0.0000
       YYZ       3.1421    XZZ       1.3990    YZZ       0.0000
       ZZZ       8.1304
    Hexadecapole Moments (Debye-Ang^3)
      XXXX    -128.7567   XXXY       0.0000   XXYY     -26.7942
      XYYY       0.0000   YYYY     -25.3699   XXXZ     -14.1553
      XXYZ       0.0000   XYYZ      -3.4899   YYYZ       0.0000
      XXZZ     -44.8238   XYZZ       0.0000   YYZZ     -23.6911
      XZZZ     -11.8427   YZZZ       0.0000   ZZZZ    -133.2013
 -----------------------------------------------------------------
 Total job time:  644.58s(wall), 642.53s(cpu) 
 Wed Jul 24 16:21:52 2013

        *************************************************************
        *                                                           *
        *  Thank you very much for using Q-Chem.  Have a nice day.  *
        *                                                           *
        *************************************************************


0 sent ACK to 0 
now end server 0 ... 
 
**********************************************************************
Job 2 of 2 
**********************************************************************
 
Process 0 of 1 is on cl111.stfx.acenet.ca - thread support 1
initial socket setup ...start
initial socket setup ...done 
now start server 0 ... 

cmd = /usr/bin/ssh clhead /usr/local/qchem/bin/get_hostid 407318120 > /scratch/tmp/6067153.1.short.q/qchem28867/lic.dat
                  Welcome to Q-Chem
     A Quantum Leap Into The Future Of Chemistry

 Y. Shao, L. Fusti-Molnar, Y. Jung, J. Kussmann, C. Ochsenfeld,
 S. T. Brown, A. T. B. Gilbert, L. V. Slipchenko,S. V. Levchenko,
 D. P. O'Neill, R. A. DiStasio Jr., R. C. Lochan, T. Wang,
 G. J. O. Beran, N. A. Besley, J. M. Herbert, C. Y. Lin,
 T. Van Voorhis, S. H. Chien, A. Sodt, R. P. Steele, 
 V. A. Rassolov, P. E. Maslen, P. P. Korambath, R. D. Adamson,
 B. Austin, J. Baker, E. F. C. Byrd, H. Dachsel, R. J. Doerksen,
 A. Dreuw, B. D. Dunietz, A. D. Dutoi, T. R. Furlani,
 S. R. Gwaltney, A. Heyden, S. Hirata, C.-P. Hsu, G. Kedziora,
 R. Z. Khaliullin, P. Klunzinger, A. M. Lee, M. S. Lee, W. Liang,
 I. Lotan, N. Nair, B. Peters, E. I. Proynov, P. A. Pieniazek, 
 Y. M. Rhee, J. Ritchie, E. Rosta, C. D. Sherrill, 
 A. C. Simmonett, J. E. Subotnik, H. L. Woodcock III,
 W. Zhang, A. T. Bell, A. K. Chakraborty, D. M. Chipman,
 F. J. Keil, A. Warshel, W. J. Hehre, H. F. Schaefer III,
 J. Kong, A. I. Krylov, P. M. W. Gill, M. Head-Gordon,
 Q-Chem, Version 3.1, Q-Chem, Inc., Pittsburgh, PA (2007).

 Additional authors for Version 3.1: 
 Z. Gan, Y. Zhao, N. E. Schultz, D. Truhlar, E. Epifanovsky and M. Oana.

 Additional authors for Version 3.2: 
 R. Baer, B. R. Brooks, D. Casanova, J.-D. Chai, C.-L. Cheng, 
 C. Cramer, D. Crittenden, A. Ghysels, G. Hawkins, E. G. Hohenstein, 
 C. Kelley, W. Kurlancheek, D. Liotard, E. Livshits, P. Manohar, 
 A. Marenich, D. Neuhauser, R. Olson, M. A. Rohrdanz, K. S. Thanthiriwatte, 
 A. J. W. Thom, V. Vanovschi, C. F. Williams, Q. Wu and Z.-Q. You. 


 Intel X86 Linux Version

 Q-chem begins on Wed Jul 24 16:21:54 2013  

 Parallel job on  1  processors
Processing $rem in /usr/local/qchem/config/preferences.

theFileMan(): MAXOPENFILES=974 MAX_SUB_FILE_NUM=16
Maximum size of a physical file is 2.0 GB, maximum size of a tmp-file is 32.0 GB


--------------------------------------------------------------
User input:
--------------------------------------------------------------

$molecule 
READ 
$end 

$rem
   EXCHANGE B3LYP
   UNRESTRICTED TRUE
   SYMMETRY_DECOMPOSITION       0
   BASIS                   g3large
   JOBTYPE                 freq
   mem_static              760
   max_scf_cycles          200
   scf_final_print         1
   sym_ignore              true
   JOBTYPE                 freq
   IDERIV 1
   SCF_GUESS READ
$end
--------------------------------------------------------------
 Writing REM_CC_EA            7
 ----------------------------------------------------
       Standard Nuclear Orientation (Angstroms)
    I     Atom         X            Y            Z
 ----------------------------------------------------
    1      C      -0.006880     0.000000    -0.001031
    2      O       0.000239     0.000000     1.179516
    3      F       1.170545     0.000000    -0.691651
    4      C      -1.164571     0.000000    -0.944467
    5      H      -2.095368     0.000000    -0.387050
    6      H      -1.110316     0.877976    -1.587692
    7      H      -1.110316    -0.877976    -1.587692
 ----------------------------------------------------
 Nuclear Repulsion Energy =   118.7090364712 hartrees
 There are       16 alpha and       16 beta electrons
 Requested basis set is G3large
 There are 58 shells and 198 basis functions

Total QAlloc Memory Limit   2000 MB
Mega-Array Size       759 MB
MEM_STATIC part       760 MB

                       Distance Matrix (Angstroms)
             C (  1)   O (  2)   F (  3)   C (  4)   H (  5)   H (  6)
   O (  2)  1.180569
   F (  3)  1.365023  2.207008
   C (  4)  1.493426  2.422414  2.348762
   H (  5)  2.123862  2.616428  3.280087  1.084940
   H (  6)  2.122712  3.108314  2.603087  1.089736  1.784015
   H (  7)  2.122712  3.108314  2.603086  1.089736  1.784015  1.755953

 
 A cutoff of  1.0D-11 yielded   1609 shell pairs
 There are  18909 function pairs ( 23856 Cartesian)
Evaluating contribution to one-electron hamiltonian from nuclear
 Smallest overlap matrix eigenvalue = 1.30E-04
 Multipole matrices computed through 2nd order
 Guess MOs from SCF MO coefficient file
Reading MOs from coefficient file
Reading MOs from coefficient file
 An unrestricted hybrid HF-DFT SCF calculation will be
 performed using Pulay DIIS extrapolation
 Exchange:     0.2000 Hartree-Fock + 0.0800 Slater + 0.7200 Becke88
 Correlation:  0.8100 LYP + 0.1900 VWN1RPA
 Using SG-1 standard quadrature grid
 SCF converges when DIIS error is below 1.0E-08
 ---------------------------------------
  Cycle       Energy         DIIS Error
 ---------------------------------------
    1    -253.1949829020      7.78E-10
    2    -253.1949829024      1.01E-09 Convergence criterion met
 ---------------------------------------
 One-Electron    Energy =  -582.3227440995
 Total Coulomb   Energy =   241.4570484212
 Alpha Exchange  Energy =    -2.9696996985
 Beta  Exchange  Energy =    -2.9696996985
 DFT   Exchange  Energy =   -23.6572459781
 DFT Correlation Energy =    -1.4416783202
 Nuclear Repu.   Energy =   118.7090364712
 Nuclear Attr.   Energy =  -834.7175003264
 Kinetic         Energy =   252.3947562269
 <S^2> = 0.0000
 SCF time:  CPU 23.62 s  wall 24.01 s
 Final Alpha MO Eigenvalues
            1           2           3           4           5           6
    1 -24.7056585 -19.1509936 -10.3476917 -10.2073408  -1.2507380  -1.0899569
            7           8           9          10          11          12
    1  -0.7878335  -0.6217245  -0.5302704  -0.5192036  -0.5077774  -0.4470714
           13          14          15          16          17          18
    1  -0.4400764  -0.4101205  -0.3884760  -0.3255801  -0.0319310  -0.0162749
           19          20          21
    1   0.0269440   0.0282138   0.0350450
 Final Beta MO Eigenvalues
            1           2           3           4           5           6
    1 -24.7056585 -19.1509936 -10.3476917 -10.2073408  -1.2507380  -1.0899569
            7           8           9          10          11          12
    1  -0.7878335  -0.6217245  -0.5302704  -0.5192036  -0.5077774  -0.4470714
           13          14          15          16          17          18
    1  -0.4400764  -0.4101205  -0.3884760  -0.3255801  -0.0319310  -0.0162749
           19          20          21
    1   0.0269440   0.0282138   0.0350450
 Analysis of SCF Wavefunction
 
 --------------------------------------------------------------
                    Orbital Energies (a.u.)
 --------------------------------------------------------------
 
 Alpha MOs
 -- Occupied --
-24.706 -19.151 -10.348 -10.207  -1.251  -1.090  -0.788  -0.622
 -0.530  -0.519  -0.508  -0.447  -0.440  -0.410  -0.388  -0.326
 -- Virtual --
 -0.032  -0.016   0.027   0.028   0.035   0.071   0.073   0.084
  0.088   0.089   0.108   0.126   0.151   0.162   0.193   0.219
  0.234   0.244   0.245   0.275   0.283   0.304   0.324   0.343
  0.376   0.407   0.433   0.459   0.476   0.495   0.541   0.556
  0.598   0.614   0.631   0.641   0.725   0.740   0.747   0.831
  0.863   0.940   0.962   1.028   1.057   1.070   1.075   1.110
  1.113   1.149   1.190   1.218   1.300   1.334   1.342   1.362
  1.393   1.400   1.413   1.473   1.531   1.571   1.640   1.647
  1.767   1.861   1.932   2.036   2.094   2.144   2.221   2.420
  2.500   2.552   2.584   2.606   2.673   2.723   2.727   2.751
  2.885   2.898   3.002   3.002   3.062   3.087   3.110   3.230
  3.269   3.275   3.320   3.362   3.401   3.485   3.499   3.524
  3.561   3.569   3.712   3.810   3.859   3.920   3.966   4.069
  4.128   4.183   4.232   4.243   4.388   4.388   4.462   4.527
  4.637   4.971   5.045   5.054   5.114   5.155   5.421   5.464
  5.602   5.609   5.682   6.183   6.218   6.297   6.445   6.607
  6.617   6.633   6.733   6.745   6.840   6.883   6.954   7.029
  7.206   7.396   7.450   7.522   7.643   9.085   9.137   9.443
  9.634   9.940  24.262  24.610  27.275  27.699  28.077  28.096
 28.132  28.444  40.812  40.944  40.997  41.014  41.027  41.085
 41.167  41.181  41.253  41.295  43.700  43.744  43.853  43.935
 43.958  45.820  45.951  46.687  50.119  50.136  50.189  50.270
 50.325  50.471  55.733  55.805  56.154  66.827
 
 Beta MOs
 -- Occupied --
-24.706 -19.151 -10.348 -10.207  -1.251  -1.090  -0.788  -0.622
 -0.530  -0.519  -0.508  -0.447  -0.440  -0.410  -0.388  -0.326
 -- Virtual --
 -0.032  -0.016   0.027   0.028   0.035   0.071   0.073   0.084
  0.088   0.089   0.108   0.126   0.151   0.162   0.193   0.219
  0.234   0.244   0.245   0.275   0.283   0.304   0.324   0.343
  0.376   0.407   0.433   0.459   0.476   0.495   0.541   0.556
  0.598   0.614   0.631   0.641   0.725   0.740   0.747   0.831
  0.863   0.940   0.962   1.028   1.057   1.070   1.075   1.110
  1.113   1.149   1.190   1.218   1.300   1.334   1.342   1.362
  1.393   1.400   1.413   1.473   1.531   1.571   1.640   1.647
  1.767   1.861   1.932   2.036   2.094   2.144   2.221   2.420
  2.500   2.552   2.584   2.606   2.673   2.723   2.727   2.751
  2.885   2.898   3.002   3.002   3.062   3.087   3.110   3.230
  3.269   3.275   3.320   3.362   3.401   3.485   3.499   3.524
  3.561   3.569   3.712   3.810   3.859   3.920   3.966   4.069
  4.128   4.183   4.232   4.243   4.388   4.388   4.462   4.527
  4.637   4.971   5.045   5.054   5.114   5.155   5.421   5.464
  5.602   5.609   5.682   6.183   6.218   6.297   6.445   6.607
  6.617   6.633   6.733   6.745   6.840   6.883   6.954   7.029
  7.206   7.396   7.450   7.522   7.643   9.085   9.137   9.443
  9.634   9.940  24.262  24.610  27.275  27.699  28.077  28.096
 28.132  28.444  40.812  40.944  40.997  41.014  41.027  41.085
 41.167  41.181  41.253  41.295  43.700  43.744  43.853  43.935
 43.958  45.820  45.951  46.687  50.119  50.136  50.189  50.270
 50.325  50.471  55.733  55.805  56.154  66.827
 --------------------------------------------------------------
 
          Ground-State Mulliken Net Atomic Charges

     Atom                 Charge (a.u.)    Spin (a.u.)
  --------------------------------------------------------
      1 C                     0.288992       0.000000
      2 O                    -0.315223       0.000000
      3 F                    -0.164925       0.000000
      4 C                    -0.216770       0.000000
      5 H                     0.131404       0.000000
      6 H                     0.138261       0.000000
      7 H                     0.138261       0.000000
  --------------------------------------------------------
  Sum of atomic charges =     0.000000
  Sum of spin   charges =     0.000000

 -----------------------------------------------------------------
                    Cartesian Multipole Moments
 -----------------------------------------------------------------
    Charge (ESU x 10^10)
                 0.0000
    Dipole Moment (Debye)
         X      -2.0746      Y       0.0000      Z      -2.2514
       Tot       3.0615
    Quadrupole Moments (Debye-Ang)
        XX     -22.7638     XY       0.0000     YY     -21.5202
        XZ       1.7756     YZ       0.0000     ZZ     -24.7128
    Octapole Moments (Debye-Ang^2)
       XXX       5.1648    XXY       0.0000    XYY       2.9376
       YYY       0.0000    XXZ       4.4326    XYZ       0.0000
       YYZ       3.1421    XZZ       1.3990    YZZ       0.0000
       ZZZ       8.1304
    Hexadecapole Moments (Debye-Ang^3)
      XXXX    -128.7567   XXXY       0.0000   XXYY     -26.7942
      XYYY       0.0000   YYYY     -25.3699   XXXZ     -14.1553
      XXYZ       0.0000   XYYZ      -3.4899   YYYZ       0.0000
      XXZZ     -44.8238   XYZZ       0.0000   YYZZ     -23.6911
      XZZZ     -11.8427   YZZZ       0.0000   ZZZZ    -133.2013
 -----------------------------------------------------------------
 Calculating analytic gradient of the SCF energy
 Gradient of XC Energy
            1           2           3           4           5           6
    1  -0.0575040   0.0016107   0.1861240   0.0318690  -0.1746571   0.0062787
    2  -0.0000000   0.0000000   0.0000000  -0.0000000   0.0000000   0.1509191
    3  -0.2335391   0.4380513  -0.0984682   0.0238944   0.0972755  -0.1136070
            7
    1   0.0062787
    2  -0.1509191
    3  -0.1136070
 Gradient of SCF Energy
            1           2           3           4           5           6
    1   0.0002574  -0.0000336  -0.0001235  -0.0000386   0.0000128  -0.0000372
    2  -0.0000000   0.0000000   0.0000000   0.0000000   0.0000000  -0.0000229
    3   0.0001868  -0.0002460   0.0000393   0.0000202   0.0000134  -0.0000069
            7
    1  -0.0000372
    2   0.0000229
    3  -0.0000069
 Max gradient component =       2.574E-04
 RMS gradient           =       9.405E-05
 Gradient time:  CPU 48.61 s  wall 48.68 s
 ######################################################
 ######################################################
 # Starting finite difference calculation for IDERIV  #
 Finite diff step size: 1.89e-03 a.u.
 Writing REM_CC_EA            7
 ----------------------------------------------------
       Standard Nuclear Orientation (Angstroms)
    I     Atom         X            Y            Z
 ----------------------------------------------------
    1      C      -0.005880     0.000000    -0.001031
    2      O       0.000239     0.000000     1.179516
    3      F       1.170545     0.000000    -0.691651
    4      C      -1.164571     0.000000    -0.944467
    5      H      -2.095368     0.000000    -0.387050
    6      H      -1.110316     0.877976    -1.587692
    7      H      -1.110316    -0.877976    -1.587692
 ----------------------------------------------------
 Nuclear Repulsion Energy =   118.7143304917 hartrees
 There are       16 alpha and       16 beta electrons

                       Distance Matrix (Angstroms)
             C (  1)   O (  2)   F (  3)   C (  4)   H (  5)   H (  6)
   O (  2)  1.180563
   F (  3)  1.364160  2.207008
   C (  4)  1.494201  2.422414  2.348762
   H (  5)  2.124845  2.616428  3.280087  1.084940
   H (  6)  2.123232  3.108314  2.603087  1.089736  1.784015
   H (  7)  2.123232  3.108314  2.603086  1.089736  1.784015  1.755953

 
 Requested basis set is G3large
 There are 58 shells and 198 basis functions
 A cutoff of  1.0D-11 yielded   1609 shell pairs
 There are  18909 function pairs ( 23856 Cartesian)
Evaluating contribution to one-electron hamiltonian from nuclear
 Smallest overlap matrix eigenvalue = 1.30E-04
 Multipole matrices computed through 2nd order
 Guess MOs from SCF MO coefficient file
Reading MOs from coefficient file
Reading MOs from coefficient file
 An unrestricted hybrid HF-DFT SCF calculation will be
 performed using Pulay DIIS extrapolation
 Exchange:     0.2000 Hartree-Fock + 0.0800 Slater + 0.7200 Becke88
 Correlation:  0.8100 LYP + 0.1900 VWN1RPA
 Using SG-1 standard quadrature grid
 SCF converges when DIIS error is below 1.0E-08
 ---------------------------------------
  Cycle       Energy         DIIS Error
 ---------------------------------------
    1    -253.1953545780      3.57E-05
    2    -253.1949811501      1.05E-05
    3    -253.1949806987      1.60E-05
    4    -253.1949815285      2.39E-06
    5    -253.1949815016      1.40E-06
    6    -253.1949815300      1.93E-07
    7    -253.1949815106      4.98E-08
    8    -253.1949815141      9.50E-09 Convergence criterion met
 ---------------------------------------
 One-Electron    Energy =  -582.3314976892
 Total Coulomb   Energy =   241.4605947808
 Alpha Exchange  Energy =    -2.9697139354
 Beta  Exchange  Energy =    -2.9697139354
 DFT   Exchange  Energy =   -23.6573003530
 DFT Correlation Energy =    -1.4416808735
 Nuclear Repu.   Energy =   118.7143304917
 Nuclear Attr.   Energy =  -834.7264522918
 Kinetic         Energy =   252.3949546026
 <S^2> = 0.0000
 SCF time:  CPU 82.93 s  wall 83.27 s
 Final Alpha MO Eigenvalues
            1           2           3           4           5           6
    1 -24.7059803 -19.1509117 -10.3477009 -10.2072627  -1.2512549  -1.0899375
            7           8           9          10          11          12
    1  -0.7875808  -0.6219977  -0.5302730  -0.5193724  -0.5078574  -0.4470221
           13          14          15          16          17          18
    1  -0.4401105  -0.4101781  -0.3884766  -0.3254954  -0.0318156  -0.0162551
           19          20          21
    1   0.0269498   0.0282439   0.0350524
 Final Beta MO Eigenvalues
            1           2           3           4           5           6
    1 -24.7059803 -19.1509117 -10.3477009 -10.2072627  -1.2512549  -1.0899375
            7           8           9          10          11          12
    1  -0.7875808  -0.6219977  -0.5302730  -0.5193724  -0.5078574  -0.4470221
           13          14          15          16          17          18
    1  -0.4401105  -0.4101781  -0.3884766  -0.3254954  -0.0318156  -0.0162551
           19          20          21
    1   0.0269498   0.0282439   0.0350524
 Analysis of SCF Wavefunction
 
 --------------------------------------------------------------
                    Orbital Energies (a.u.)
 --------------------------------------------------------------
 
 Alpha MOs
 -- Occupied --
-24.706 -19.151 -10.348 -10.207  -1.251  -1.090  -0.788  -0.622
 -0.530  -0.519  -0.508  -0.447  -0.440  -0.410  -0.388  -0.325
 -- Virtual --
 -0.032  -0.016   0.027   0.028   0.035   0.071   0.073   0.084
  0.088   0.089   0.108   0.126   0.152   0.162   0.193   0.219
  0.234   0.244   0.245   0.275   0.283   0.304   0.324   0.343
  0.376   0.407   0.433   0.459   0.476   0.494   0.542   0.556
  0.598   0.614   0.631   0.641   0.725   0.740   0.747   0.831
  0.863   0.940   0.962   1.028   1.057   1.070   1.075   1.110
  1.113   1.149   1.190   1.218   1.300   1.334   1.342   1.362
  1.393   1.400   1.413   1.473   1.531   1.571   1.640   1.647
  1.766   1.861   1.932   2.036   2.094   2.145   2.221   2.420
  2.500   2.552   2.584   2.606   2.673   2.723   2.727   2.751
  2.885   2.898   3.002   3.002   3.062   3.087   3.110   3.230
  3.269   3.275   3.320   3.362   3.401   3.486   3.500   3.524
  3.561   3.568   3.711   3.810   3.859   3.920   3.966   4.069
  4.128   4.183   4.232   4.241   4.387   4.388   4.462   4.527
  4.636   4.971   5.045   5.054   5.114   5.155   5.421   5.464
  5.602   5.609   5.681   6.183   6.218   6.296   6.446   6.607
  6.616   6.633   6.733   6.746   6.840   6.883   6.954   7.030
  7.206   7.397   7.451   7.524   7.643   9.085   9.137   9.443
  9.635   9.941  24.262  24.610  27.275  27.697  28.078  28.096
 28.131  28.444  40.812  40.944  40.997  41.014  41.027  41.085
 41.167  41.181  41.253  41.294  43.700  43.744  43.853  43.935
 43.958  45.820  45.951  46.687  50.119  50.136  50.189  50.270
 50.325  50.471  55.732  55.805  56.155  66.827
 
 Beta MOs
 -- Occupied --
-24.706 -19.151 -10.348 -10.207  -1.251  -1.090  -0.788  -0.622
 -0.530  -0.519  -0.508  -0.447  -0.440  -0.410  -0.388  -0.325
 -- Virtual --
 -0.032  -0.016   0.027   0.028   0.035   0.071   0.073   0.084
  0.088   0.089   0.108   0.126   0.152   0.162   0.193   0.219
  0.234   0.244   0.245   0.275   0.283   0.304   0.324   0.343
  0.376   0.407   0.433   0.459   0.476   0.494   0.542   0.556
  0.598   0.614   0.631   0.641   0.725   0.740   0.747   0.831
  0.863   0.940   0.962   1.028   1.057   1.070   1.075   1.110
  1.113   1.149   1.190   1.218   1.300   1.334   1.342   1.362
  1.393   1.400   1.413   1.473   1.531   1.571   1.640   1.647
  1.766   1.861   1.932   2.036   2.094   2.145   2.221   2.420
  2.500   2.552   2.584   2.606   2.673   2.723   2.727   2.751
  2.885   2.898   3.002   3.002   3.062   3.087   3.110   3.230
  3.269   3.275   3.320   3.362   3.401   3.486   3.500   3.524
  3.561   3.568   3.711   3.810   3.859   3.920   3.966   4.069
  4.128   4.183   4.232   4.241   4.387   4.388   4.462   4.527
  4.636   4.971   5.045   5.054   5.114   5.155   5.421   5.464
  5.602   5.609   5.681   6.183   6.218   6.296   6.446   6.607
  6.616   6.633   6.733   6.746   6.840   6.883   6.954   7.030
  7.206   7.397   7.451   7.524   7.643   9.085   9.137   9.443
  9.635   9.941  24.262  24.610  27.275  27.697  28.078  28.096
 28.131  28.444  40.812  40.944  40.997  41.014  41.027  41.085
 41.167  41.181  41.253  41.294  43.700  43.744  43.853  43.935
 43.958  45.820  45.951  46.687  50.119  50.136  50.189  50.270
 50.325  50.471  55.732  55.805  56.155  66.827
 --------------------------------------------------------------
 
          Ground-State Mulliken Net Atomic Charges

     Atom                 Charge (a.u.)    Spin (a.u.)
  --------------------------------------------------------
      1 C                     0.288841       0.000000
      2 O                    -0.315308       0.000000
      3 F                    -0.164270       0.000000
      4 C                    -0.216971       0.000000
      5 H                     0.131394       0.000000
      6 H                     0.138157       0.000000
      7 H                     0.138157       0.000000
  --------------------------------------------------------
  Sum of atomic charges =     0.000000
  Sum of spin   charges =     0.000000

 -----------------------------------------------------------------
                    Cartesian Multipole Moments
 -----------------------------------------------------------------
    Charge (ESU x 10^10)
                 0.0000
    Dipole Moment (Debye)
         X      -2.0667      Y       0.0000      Z      -2.2522
       Tot       3.0568
    Quadrupole Moments (Debye-Ang)
        XX     -22.7617     XY       0.0000     YY     -21.5214
        XZ       1.7693     YZ       0.0000     ZZ     -24.7172
    Octapole Moments (Debye-Ang^2)
       XXX       5.1654    XXY       0.0000    XYY       2.9384
       YYY       0.0000    XXZ       4.4320    XYZ       0.0000
       YYZ       3.1436    XZZ       1.4025    YZZ       0.0000
       ZZZ       8.1339
    Hexadecapole Moments (Debye-Ang^3)
      XXXX    -128.7526   XXXY       0.0000   XXYY     -26.7951
      XYYY       0.0000   YYYY     -25.3743   XXXZ     -14.1700
      XXYZ       0.0000   XYYZ      -3.4959   YYYZ       0.0000
      XXZZ     -44.8287   XYZZ       0.0000   YYZZ     -23.6969
      XZZZ     -11.8674   YZZZ       0.0000   ZZZZ    -133.2274
 -----------------------------------------------------------------
 Calculating analytic gradient of the SCF energy
 Gradient of XC Energy
            1           2           3           4           5           6
    1  -0.0572448   0.0011336   0.1863569   0.0318838  -0.1746804   0.0062754
    2  -0.0000000   0.0000000   0.0000000  -0.0000000   0.0000000   0.1509013
[...]
    1  -0.0216710   0.0000062  -0.0181768   0.0043845  -0.0001938   0.0023190
    2   0.0000000  -0.0031790  -0.0000000   0.0272316   0.0013285   0.0192780
    3   0.0173238   0.0000056   0.0112322  -0.0144674   0.0007755  -0.0177134
    4   0.0036594  -0.0000017   0.0010620  -0.0025139  -0.0004851  -0.0039474
    5   0.0000010  -0.0003394  -0.0000005  -0.0041808  -0.0010070  -0.0030695
    6  -0.0002637   0.0000005   0.0009721  -0.0031343  -0.0021862  -0.0010823
    7  -0.0058244  -0.0000006  -0.0072017  -0.0008482   0.0008071   0.0008123
    8   0.0000000   0.0026418   0.0000012  -0.0025864   0.0005125  -0.0019936
    9  -0.0028001  -0.0000027  -0.0004365   0.0012110  -0.0009041   0.0012664
   10  -0.2503420  -0.0000020   0.1268071  -0.0496247  -0.0107149   0.0088085
   11   0.0000000  -0.0483855   0.0000008  -0.0107946  -0.2169888   0.1311287
   12   0.1191268  -0.0000016  -0.1248284   0.0089362   0.1294830  -0.1342571
   13   0.2718535  -0.0000016  -0.1318252   0.0011616  -0.0007122  -0.0007797
   14  -0.0000016   0.0460874   0.0000008  -0.0231009   0.0015890   0.0117163
   15  -0.1318252   0.0000008   0.1303702   0.0146678  -0.0020609  -0.0086555
   16   0.0011616  -0.0231009   0.0146678   0.0479528   0.0123658  -0.0067978
   17  -0.0007122   0.0015890  -0.0020609   0.0123658   0.2357618  -0.1410831
   18  -0.0007797   0.0117163  -0.0086555  -0.0067978  -0.1410831   0.1477903
   19   0.0011616   0.0231005   0.0146676  -0.0005117  -0.0010657  -0.0004156
   20   0.0007121   0.0015861   0.0020607   0.0010652  -0.0211946  -0.0159772
   21  -0.0007818  -0.0117188  -0.0086546  -0.0004159   0.0159776   0.0126502
           19          20          21
    1   0.0043849   0.0001938   0.0023241
    2  -0.0272322   0.0013297  -0.0192791
    3  -0.0144693  -0.0007747  -0.0177161
    4  -0.0025137   0.0004852  -0.0039479
    5   0.0041807  -0.0010054   0.0030726
    6  -0.0031326   0.0021855  -0.0010810
    7  -0.0008482  -0.0008073   0.0008088
    8   0.0025859   0.0005116   0.0019942
    9   0.0012113   0.0009042   0.0012679
   10  -0.0496253   0.0107152   0.0088102
   11   0.0107945  -0.2169888  -0.1311317
   12   0.0089360  -0.1294823  -0.1342581
   13   0.0011616   0.0007121  -0.0007818
   14   0.0231005   0.0015861  -0.0117188
   15   0.0146676   0.0020607  -0.0086546
   16  -0.0005117   0.0010652  -0.0004159
   17  -0.0010657  -0.0211946   0.0159776
   18  -0.0004156  -0.0159772   0.0126502
   19   0.0479529  -0.0123650  -0.0067980
   20  -0.0123650   0.2357619   0.1410844
   21  -0.0067980   0.1410844   0.1477915
 Writing REM_CC_EA            7
 ----------------------------------------------------
       Standard Nuclear Orientation (Angstroms)
    I     Atom         X            Y            Z
 ----------------------------------------------------
    1      C      -0.006880     0.000000    -0.001031
    2      O       0.000239     0.000000     1.179516
    3      F       1.170545     0.000000    -0.691651
    4      C      -1.164571     0.000000    -0.944467
    5      H      -2.095368     0.000000    -0.387050
    6      H      -1.110316     0.877976    -1.587692
    7      H      -1.110316    -0.877976    -1.587692
 ----------------------------------------------------
 Nuclear Repulsion Energy =   118.7090364712 hartrees
 There are       16 alpha and       16 beta electrons
 old dipole drv.
            1           2           3           4           5           6
    1   1.6457667  -0.0000221  -0.2362601  -0.5613348   0.0000617   0.0611731
    2  -0.0000000   0.3286786   0.0000029  -0.0000003  -0.3212271   0.0000041
    3  -0.1760894   0.0000097   1.7774463  -0.1282083   0.0000470  -1.1519906
            7           8           9          10          11          12
    1  -1.0653883  -0.0001799   0.3147914  -0.1133772  -0.0000675  -0.1995865
    2   0.0000006  -0.1745300  -0.0000029   0.0000004   0.0500458   0.0000541
    3   0.4393127   0.0000148  -0.6047291  -0.1204256   0.0000506  -0.1828499
           13          14          15          16          17          18
    1  -0.0185840  -0.0000412   0.0600578   0.0564573  -0.0079848  -0.0001004
    2  -0.0000000   0.0918103  -0.0000019  -0.0303305   0.0125735   0.0498511
    3   0.0255166  -0.0001217   0.0321563  -0.0200892   0.0687326   0.0648411
           19          20          21
    1   0.0564648   0.0079792  -0.0001251
    2   0.0303538   0.0125787  -0.0498578
    3  -0.0200587  -0.0687383   0.0649485
 New transposed dipole drv.
            1           2           3
    1   1.6457667  -0.0000000  -0.1760894
    2  -0.0000221   0.3286786   0.0000097
    3  -0.2362601   0.0000029   1.7774463
    4  -0.5613348  -0.0000003  -0.1282083
    5   0.0000617  -0.3212271   0.0000470
    6   0.0611731   0.0000041  -1.1519906
    7  -1.0653883   0.0000006   0.4393127
    8  -0.0001799  -0.1745300   0.0000148
    9   0.3147914  -0.0000029  -0.6047291
   10  -0.1133772   0.0000004  -0.1204256
   11  -0.0000675   0.0500458   0.0000506
   12  -0.1995865   0.0000541  -0.1828499
   13  -0.0185840  -0.0000000   0.0255166
   14  -0.0000412   0.0918103  -0.0001217
   15   0.0600578  -0.0000019   0.0321563
   16   0.0564573  -0.0303305  -0.0200892
   17  -0.0079848   0.0125735   0.0687326
   18  -0.0001004   0.0498511   0.0648411
   19   0.0564648   0.0303538  -0.0200587
   20   0.0079792   0.0125787  -0.0687383
   21  -0.0001251  -0.0498578   0.0649485
FINAL TENSOR RESULT:
Order 2, Length 21
Order 1, Length 21
   0.4714162  -0.0000019   0.0897258  -0.1068785  -0.0000077  -0.0565143  -0.1943278   0.0000112   0.0411088  -0.1573064   0.0000072  -0.0607901  -0.0216710   0.0000062  -0.0181768   0.0043845  -0.0001938   0.0023190   0.0043849   0.0001938   0.0023241
Order 1, Length 21
  -0.0000019   0.2239907   0.0000047   0.0000002  -0.0760101  -0.0000071  -0.0000014  -0.0532911   0.0000005   0.0000040  -0.0941710   0.0000035   0.0000000  -0.0031790  -0.0000000   0.0272316   0.0013285   0.0192780  -0.0272322   0.0013297  -0.0192791
Order 1, Length 21
   0.0897258   0.0000047   1.0542724  -0.0308024   0.0000017  -0.8356884   0.0144166  -0.0000033  -0.0783916  -0.0617333  -0.0000048  -0.1159814   0.0173238   0.0000056   0.0112322  -0.0144674   0.0007755  -0.0177134  -0.0144693  -0.0007747  -0.0177161
Order 1, Length 21
  -0.1068785   0.0000002  -0.0308024   0.1021097   0.0000013   0.0005291  -0.0021980  -0.0000021   0.0673808   0.0083345  -0.0000012  -0.0302740   0.0036594  -0.0000017   0.0010620  -0.0025139  -0.0004851  -0.0039474  -0.0025137   0.0004852  -0.0039479
Order 1, Length 21
  -0.0000077  -0.0760101   0.0000017   0.0000013   0.0282735  -0.0000054   0.0000017   0.0203322   0.0000014   0.0000000   0.0297594  -0.0000004   0.0000010  -0.0003394  -0.0000005  -0.0041808  -0.0010070  -0.0030695   0.0041807  -0.0010054   0.0030726
Order 1, Length 21
  -0.0565143  -0.0000071  -0.8356884   0.0005291  -0.0000054   0.9500175   0.0677604   0.0000034  -0.0726573  -0.0052381   0.0000035  -0.0404920  -0.0002637   0.0000005   0.0009721  -0.0031343  -0.0021862  -0.0010823  -0.0031326   0.0021855  -0.0010810
Order 1, Length 21
  -0.1943278  -0.0000014   0.0144166  -0.0021980   0.0000017   0.0677604   0.2516522  -0.0000055  -0.0982757  -0.0476055  -0.0000041   0.0216809  -0.0058244  -0.0000006  -0.0072017  -0.0008482   0.0008071   0.0008123  -0.0008482  -0.0008073   0.0008088
Order 1, Length 21
   0.0000112  -0.0532911  -0.0000033  -0.0000021   0.0203322   0.0000034  -0.0000055   0.0146401   0.0000015   0.0000000   0.0146543  -0.0000037   0.0000000   0.0026418   0.0000012  -0.0025864   0.0005125  -0.0019936   0.0025859   0.0005116   0.0019942
Order 1, Length 21
   0.0411088   0.0000005  -0.0783916   0.0673808   0.0000014  -0.0726573  -0.0982757   0.0000015   0.1405633  -0.0098365   0.0000005   0.0083856  -0.0028001  -0.0000027  -0.0004365   0.0012110  -0.0009041   0.0012664   0.0012113   0.0009042   0.0012679
Order 1, Length 21
  -0.1573064   0.0000040  -0.0617333   0.0083345   0.0000000  -0.0052381  -0.0476055   0.0000000  -0.0098365   0.5461685  -0.0000007  -0.0676155  -0.2503420  -0.0000020   0.1268071  -0.0496247  -0.0107149   0.0088085  -0.0496253   0.0107152   0.0088102
Order 1, Length 21
   0.0000072  -0.0941710  -0.0000048  -0.0000012   0.0297594   0.0000035  -0.0000041   0.0146543   0.0000005  -0.0000007   0.5321159   0.0000006   0.0000000  -0.0483855   0.0000008  -0.0107946  -0.2169888   0.1311287   0.0107945  -0.2169888  -0.1311317
Order 1, Length 21
  -0.0607901   0.0000035  -0.1159814  -0.0302740  -0.0000004  -0.0404920   0.0216809  -0.0000037   0.0083856  -0.0676155   0.0000006   0.5414333   0.1191268  -0.0000016  -0.1248284   0.0089362   0.1294830  -0.1342571   0.0089360  -0.1294823  -0.1342581
Order 1, Length 21
  -0.0216710   0.0000000   0.0173238   0.0036594   0.0000010  -0.0002637  -0.0058244   0.0000000  -0.0028001  -0.2503420   0.0000000   0.1191268   0.2718535  -0.0000016  -0.1318252   0.0011616  -0.0007122  -0.0007797   0.0011616   0.0007121  -0.0007818
Order 1, Length 21
   0.0000062  -0.0031790   0.0000056  -0.0000017  -0.0003394   0.0000005  -0.0000006   0.0026418  -0.0000027  -0.0000020  -0.0483855  -0.0000016  -0.0000016   0.0460874   0.0000008  -0.0231009   0.0015890   0.0117163   0.0231005   0.0015861  -0.0117188
Order 1, Length 21
  -0.0181768  -0.0000000   0.0112322   0.0010620  -0.0000005   0.0009721  -0.0072017   0.0000012  -0.0004365   0.1268071   0.0000008  -0.1248284  -0.1318252   0.0000008   0.1303702   0.0146678  -0.0020609  -0.0086555   0.0146676   0.0020607  -0.0086546
Order 1, Length 21
   0.0043845   0.0272316  -0.0144674  -0.0025139  -0.0041808  -0.0031343  -0.0008482  -0.0025864   0.0012110  -0.0496247  -0.0107946   0.0089362   0.0011616  -0.0231009   0.0146678   0.0479528   0.0123658  -0.0067978  -0.0005117   0.0010652  -0.0004159
Order 1, Length 21
  -0.0001938   0.0013285   0.0007755  -0.0004851  -0.0010070  -0.0021862   0.0008071   0.0005125  -0.0009041  -0.0107149  -0.2169888   0.1294830  -0.0007122   0.0015890  -0.0020609   0.0123658   0.2357618  -0.1410831  -0.0010657  -0.0211946   0.0159776
Order 1, Length 21
   0.0023190   0.0192780  -0.0177134  -0.0039474  -0.0030695  -0.0010823   0.0008123  -0.0019936   0.0012664   0.0088085   0.1311287  -0.1342571  -0.0007797   0.0117163  -0.0086555  -0.0067978  -0.1410831   0.1477903  -0.0004156  -0.0159772   0.0126502
Order 1, Length 21
   0.0043849  -0.0272322  -0.0144693  -0.0025137   0.0041807  -0.0031326  -0.0008482   0.0025859   0.0012113  -0.0496253   0.0107945   0.0089360   0.0011616   0.0231005   0.0146676  -0.0005117  -0.0010657  -0.0004156   0.0479529  -0.0123650  -0.0067980
Order 1, Length 21
   0.0001938   0.0013297  -0.0007747   0.0004852  -0.0010054   0.0021855  -0.0008073   0.0005116   0.0009042   0.0107152  -0.2169888  -0.1294823   0.0007121   0.0015861   0.0020607   0.0010652  -0.0211946  -0.0159772  -0.0123650   0.2357619   0.1410844
Order 1, Length 21
   0.0023241  -0.0192791  -0.0177161  -0.0039479   0.0030726  -0.0010810   0.0008088   0.0019942   0.0012679   0.0088102  -0.1311317  -0.1342581  -0.0007818  -0.0117188  -0.0086546  -0.0004159   0.0159776   0.0126502  -0.0067980   0.1410844   0.1477915


 # Finishing finite difference calculation for IDERIV #
 ######################################################
 ######################################################
 Requested basis set is G3large
 There are 58 shells and 198 basis functions
 **********************************************************************
 **                                                                  **
 **                       VIBRATIONAL ANALYSIS                       **
 **                       --------------------                       **
 **                                                                  **
 **        VIBRATIONAL FREQUENCIES (CM**-1) AND NORMAL MODES         **
 **     FORCE CONSTANTS (mDYN/ANGSTROM) AND REDUCED MASSES (AMU)     **
 **                  INFRARED INTENSITIES (KM/MOL)                   **
 **                                                                  **
 **********************************************************************
 

 Mode:                 1                      2                      3
 Frequency:       129.21                 412.61                 569.09
 Force Cnst:      0.0106                 0.3135                 0.4910
 Red. Mass:       1.0806                 3.1255                 2.5733
 IR Active:          YES                    YES                    YES
 IR Intens:        0.037                  0.145                  5.694
 Raman Active:       YES                    YES                    YES
               X      Y      Z        X      Y      Z        X      Y      Z
 C          0.000  0.008  0.000    0.067  0.000 -0.142    0.000  0.335  0.000
 O          0.000 -0.051  0.000   -0.109  0.000 -0.144    0.000 -0.118  0.000
 F          0.000  0.042  0.000    0.202  0.000  0.088    0.000 -0.081  0.000
 C          0.000  0.003  0.000   -0.167  0.000  0.127    0.000  0.015  0.000
 H          0.000  0.527  0.000    0.096  0.000  0.571    0.000 -0.356  0.000
 H          0.284 -0.324 -0.416   -0.494  0.011  0.116   -0.478 -0.199 -0.319
 H         -0.284 -0.324  0.416   -0.494 -0.011  0.116    0.478 -0.200  0.319
 TransDip   0.000 -0.006  0.000   -0.012  0.000  0.002    0.000  0.076  0.000

 Mode:                 4                      5                      6
 Frequency:       598.23                 827.28                1002.99
 Force Cnst:      1.6854                 2.6042                 1.1421
 Red. Mass:       7.9930                 6.4583                 1.9269
 IR Active:          YES                    YES                    YES
 IR Intens:       17.632                 70.766                 49.198
 Raman Active:       YES                    YES                    YES
               X      Y      Z        X      Y      Z        X      Y      Z
 C         -0.149  0.000 -0.083   -0.101  0.000  0.219   -0.152  0.000 -0.042
 O          0.426  0.000 -0.088   -0.027  0.000  0.247    0.013  0.000 -0.108
 F         -0.040  0.000  0.343    0.320  0.000 -0.198    0.065  0.000  0.007
 C         -0.286  0.000 -0.267   -0.310  0.000 -0.163   -0.027  0.000  0.187
 H         -0.353  0.000 -0.370   -0.530  0.000 -0.513   -0.367  0.000 -0.404
 H         -0.240  0.006 -0.257   -0.093 -0.015 -0.166    0.539 -0.071  0.131
 H         -0.240 -0.006 -0.257   -0.093  0.015 -0.166    0.539  0.071  0.131
 TransDip  -0.098  0.000 -0.092   -0.218  0.000  0.159   -0.224  0.000  0.022

 Mode:                 7                      8                      9
 Frequency:      1070.05                1188.47                1402.55
 Force Cnst:      1.2114                 2.6339                 1.4915
 Red. Mass:       1.7957                 3.1650                 1.2868
 IR Active:          YES                    YES                    YES
 IR Intens:        9.379                205.681                 32.000
 Raman Active:       YES                    YES                    YES
               X      Y      Z        X      Y      Z        X      Y      Z
 C          0.000  0.200  0.000    0.384  0.000 -0.037    0.045  0.000 -0.006
 O          0.000 -0.041  0.000   -0.057  0.000  0.006   -0.006  0.000  0.007
 F          0.000 -0.021  0.000   -0.081  0.000  0.030   -0.008  0.000  0.003
 C          0.000 -0.169  0.000   -0.165  0.000  0.057   -0.116  0.000 -0.099
 H          0.000  0.379  0.000   -0.542  0.000 -0.592    0.200  0.000  0.423
 H          0.418  0.153  0.442    0.181 -0.159 -0.158    0.444  0.268  0.330
 H         -0.418  0.153 -0.442    0.181  0.159 -0.158    0.444 -0.268  0.330
 TransDip   0.000  0.098  0.000    0.435  0.000 -0.146    0.166  0.000  0.073

 Mode:                10                     11                     12
 Frequency:      1472.79                1477.52                1906.52
 Force Cnst:      1.3394                 1.3447                26.1419
 Red. Mass:       1.0480                 1.0454                12.2069
 IR Active:          YES                    YES                    YES
 IR Intens:       14.858                  7.879                317.727
 Raman Active:       YES                    YES                    YES
               X      Y      Z        X      Y      Z        X      Y      Z
 C          0.016  0.000  0.006    0.000 -0.027  0.000    0.093  0.000  0.789
 O         -0.004  0.000 -0.019    0.000  0.003  0.000   -0.015  0.000 -0.529
 F         -0.001  0.000  0.001    0.000  0.003  0.000   -0.018  0.000 -0.008
 C          0.049  0.000 -0.021    0.000 -0.052  0.000   -0.041  0.000 -0.065
 H         -0.216  0.000 -0.438    0.000  0.721  0.000    0.069  0.000  0.179
 H         -0.242  0.348  0.446   -0.478  0.054  0.083   -0.055 -0.069 -0.124
 H         -0.242 -0.348  0.446    0.478  0.054 -0.083   -0.055  0.069 -0.124
 TransDip  -0.029  0.000  0.120    0.000  0.090  0.000   -0.005  0.000  0.571

 Mode:                13                     14                     15
 Frequency:      3058.35                3116.66                3165.01
 Force Cnst:      5.7104                 6.2932                 6.5127
 Red. Mass:       1.0362                 1.0996                 1.1035
 IR Active:          YES                    YES                    YES
 IR Intens:        0.141                  1.214                  2.916
 Raman Active:       YES                    YES                    YES
               X      Y      Z        X      Y      Z        X      Y      Z
 C         -0.001  0.000  0.001    0.000 -0.001  0.000   -0.001  0.000  0.003
 O          0.000  0.000 -0.001    0.000  0.000  0.000    0.000  0.000 -0.001
 F          0.000  0.000  0.000    0.000  0.000  0.000    0.001  0.000  0.000
 C          0.025  0.000  0.044    0.000 -0.091  0.000   -0.067  0.000  0.065
 H         -0.358  0.000  0.222    0.000 -0.017  0.000    0.780  0.000 -0.466
 H          0.034  0.521 -0.371    0.036  0.559 -0.426    0.005  0.238 -0.162
 H          0.034 -0.521 -0.371   -0.036  0.559  0.426    0.005 -0.238 -0.162
 TransDip   0.002  0.000  0.012    0.000 -0.035  0.000   -0.051  0.000  0.020

 STANDARD THERMODYNAMIC QUANTITIES AT   298.18 K  AND     1.00 ATM

   This Molecule has  0 Imaginary Frequencies
   Zero point vibrational energy:       30.589 kcal/mol

   Atom    1 Element C  Has Mass   12.00000
   Atom    2 Element O  Has Mass   15.99491
   Atom    3 Element F  Has Mass   18.99840
   Atom    4 Element C  Has Mass   12.00000
   Atom    5 Element H  Has Mass    1.00783
   Atom    6 Element H  Has Mass    1.00783
   Atom    7 Element H  Has Mass    1.00783
   Molecular Mass:    62.016800 amu
   Principal axes and moments of inertia in atomic units:
                             1           2           3
    Eigenvalues --      163.69153   186.26047   338.85488
          X               0.86187    -0.50713     0.00000
          Y               0.00000     0.00000     1.00000
          Z               0.50713     0.86187     0.00000
   Rotational Symmetry Number is   1
   The Molecule is an Asymmetric Top
   Translational Enthalpy:        0.889 kcal/mol
   Rotational Enthalpy:           0.889 kcal/mol
   Vibrational Enthalpy:         31.523 kcal/mol
   gas constant (RT):             0.593 kcal/mol
   Translational Entropy:        38.294  cal/mol.K
   Rotational Entropy:           23.850  cal/mol.K
   Vibrational Entropy:           5.273  cal/mol.K

   Total Enthalpy:               33.893 kcal/mol
   Total Entropy:                67.418  cal/mol.K
 Total job time:  5712.65s(wall), 5687.40s(cpu) 
 Wed Jul 24 17:57:07 2013

        *************************************************************
        *                                                           *
        *  Thank you very much for using Q-Chem.  Have a nice day.  *
        *                                                           *
        *************************************************************


0 sent ACK to 0 
now end server 0 ... 
