Process 0 of 1 is on cl248.stfx.acenet.ca - thread support 1
initial socket setup ...start
initial socket setup ...done 
now start server 0 ... 

cmd = /usr/bin/ssh clhead /usr/local/qchem/bin/get_hostid 798295525 > /scratch/tmp/6027732.1.long.q/qchem31188/lic.dat
                  Welcome to Q-Chem
     A Quantum Leap Into The Future Of Chemistry

 Y. Shao, L. Fusti-Molnar, Y. Jung, J. Kussmann, C. Ochsenfeld,
 S. T. Brown, A. T. B. Gilbert, L. V. Slipchenko,S. V. Levchenko,
 D. P. O'Neill, R. A. DiStasio Jr., R. C. Lochan, T. Wang,
 G. J. O. Beran, N. A. Besley, J. M. Herbert, C. Y. Lin,
 T. Van Voorhis, S. H. Chien, A. Sodt, R. P. Steele, 
 V. A. Rassolov, P. E. Maslen, P. P. Korambath, R. D. Adamson,
 B. Austin, J. Baker, E. F. C. Byrd, H. Dachsel, R. J. Doerksen,
 A. Dreuw, B. D. Dunietz, A. D. Dutoi, T. R. Furlani,
 S. R. Gwaltney, A. Heyden, S. Hirata, C.-P. Hsu, G. Kedziora,
 R. Z. Khaliullin, P. Klunzinger, A. M. Lee, M. S. Lee, W. Liang,
 I. Lotan, N. Nair, B. Peters, E. I. Proynov, P. A. Pieniazek, 
 Y. M. Rhee, J. Ritchie, E. Rosta, C. D. Sherrill, 
 A. C. Simmonett, J. E. Subotnik, H. L. Woodcock III,
 W. Zhang, A. T. Bell, A. K. Chakraborty, D. M. Chipman,
 F. J. Keil, A. Warshel, W. J. Hehre, H. F. Schaefer III,
 J. Kong, A. I. Krylov, P. M. W. Gill, M. Head-Gordon,
 Q-Chem, Version 3.1, Q-Chem, Inc., Pittsburgh, PA (2007).

 Additional authors for Version 3.1: 
 Z. Gan, Y. Zhao, N. E. Schultz, D. Truhlar, E. Epifanovsky and M. Oana.

 Additional authors for Version 3.2: 
 R. Baer, B. R. Brooks, D. Casanova, J.-D. Chai, C.-L. Cheng, 
 C. Cramer, D. Crittenden, A. Ghysels, G. Hawkins, E. G. Hohenstein, 
 C. Kelley, W. Kurlancheek, D. Liotard, E. Livshits, P. Manohar, 
 A. Marenich, D. Neuhauser, R. Olson, M. A. Rohrdanz, K. S. Thanthiriwatte, 
 A. J. W. Thom, V. Vanovschi, C. F. Williams, Q. Wu and Z.-Q. You. 


 Intel X86 Linux Version

 Q-chem begins on Mon Jun  3 17:03:52 2013  

 Parallel job on  1  processors
Processing $rem in /usr/local/qchem/config/preferences.

theFileMan(): MAXOPENFILES=974 MAX_SUB_FILE_NUM=16
Maximum size of a physical file is 2.0 GB, maximum size of a tmp-file is 32.0 GB


--------------------------------------------------------------
User input:
--------------------------------------------------------------

$molecule
-1,2
O
C1,O,r1
H1,C1,r2,O,a1
H,O,roh,C1,aoh,H1,toh,0
C2,C1,r3a,O,a2a,H1,t1a,0
C3,C1,r3b,O,a2b,H1,-t1b,0
H,C2,r4a,C1,a4a,H1,t2a,0
H,C3,r5a,C1,a5a,H1,-t2b,0
H,C2,r4b,C1,a4b,H1,t3a,0
H,C3,r5b,C1,a5b,H1,-t3b,0
H,C2,r4c,C1,a4c,H1,-t4a,0
H,C3,r5c,C1,a5c,H1,t4b,0

r1=1.43111827
r2=1.9557364
roh=2.07916264
r3a=1.52393712
r3b=1.53017411
r4a=1.09587708
r5a=1.09583825
r4b=1.09448657
r5b=1.09801539
r4c=1.0954512
r5c=1.0964078
a1=28.22171182
aoh=30.02045037
a2a=106.21524706
a2b=111.13113306
a4a=110.2041443
a5a=110.24366741
a4b=110.29321839
a5b=111.03931704
a4c=110.82961388
a5c=111.23833611
toh=-62.32359188
t1a=179.44473237
t1b=57.80032287
t2a=63.0172795
t2b=83.272013
t3a=-56.37337218
t3b=-36.4963859
t4a=176.72748761
t4b=156.21533884

$end

$comment
negative
$end

$xc_functional
C PBE   1.00
X wPBE  1.00
$end

$rem
SYMMETRY_DECOMPOSITION	0
exchange 		general
LRC_DFT                 true
BASIS                   g3large
omega			300
mem_static              760
max_scf_cycles          200
scf_final_print         1
sym_ignore              true
$end

--------------------------------------------------------------
 Writing REM_CC_EA           12
 ----------------------------------------------------
       Standard Nuclear Orientation (Angstroms)
    I     Atom         X            Y            Z
 ----------------------------------------------------
    1      O       0.000000     0.000000     0.000000
    2      C       0.000000     0.000000     1.431118
    3      H       0.924838     0.000000    -0.292129
    4      H       0.483161     0.921207     1.800236
    5      C      -1.463245     0.014181     1.856673
    6      C       0.760558    -1.207760     1.982752
    7      H      -1.967442    -0.894454     1.508657
    8      H       0.298586    -2.138301     1.634130
    9      H      -1.976608     0.877600     1.422084
   10      H       1.806714    -1.200668     1.649367
   11      H      -1.551233     0.066921     2.947310
   12      H       0.763328    -1.208441     3.079156
 ----------------------------------------------------
 Nuclear Repulsion Energy =   134.3979926221 hartrees
 There are       18 alpha and       17 beta electrons
 Requested basis set is G3large
 There are 88 shells and 248 basis functions

Total QAlloc Memory Limit   2000 MB
Mega-Array Size       743 MB
MEM_STATIC part       760 MB

                       Distance Matrix (Angstroms)
             O (  1)   C (  2)   H (  3)   H (  4)   C (  5)   C (  6)
   C (  2)  1.431118
   H (  3)  0.969878  1.955736
   H (  4)  2.079163  1.103773  2.328453
   C (  5)  2.364005  1.523937  3.212552  2.148110
   C (  6)  2.443039  1.530174  2.580844  2.154707  2.540539
   H (  7)  2.635701  2.162611  3.522521  3.063836  1.095877  2.786558
   H (  8)  2.707742  2.168571  2.945335  3.069568  2.790476  1.095838
   H (  9)  2.588336  2.162693  3.482398  2.489048  1.094487  3.486424
   H ( 10)  2.725111  2.180241  2.447185  2.505376  3.494491  1.098015
   H ( 11)  3.331282  2.170171  4.077912  2.486833  1.095451  2.810617
   H ( 12)  3.394731  2.181519  3.584965  2.499906  2.819024  1.096408
             H (  7)   H (  8)   H (  9)   H ( 10)   H ( 11)
   H (  8)  2.588007
   H (  9)  1.774192  3.783799
   H ( 10)  3.789170  1.775904  4.322543
   H ( 11)  1.779661  3.163745  1.778892  3.816706
   H ( 12)  3.165779  1.780091  3.821610  1.770031  2.645964
 
 A cutoff of  1.0D-08 yielded   3639 shell pairs
 There are  28920 function pairs ( 34904 Cartesian)
Evaluating contribution to one-electron hamiltonian from nuclear
 Smallest overlap matrix eigenvalue = 4.89E-05

 Q-Chem warning in module mkSTV.C, line 194:

 Overlap eigenvalue is smaller than square root of threshold

 Multipole matrices computed through 2nd order

  Scale SEOQF with 1.000000e-01/1.000000e-01/1.000000e-01

 Standard Electronic Orientation quadrupole field applied
 Nucleus-field energy     =    -0.0000000069 hartrees
 Guess from superposition of atomic densities
 Warning:  Energy on first SCF cycle will be non-variational
 Long-range K will be added via erf
 Coulomb attenuation parameter = 0.3 bohr**(-1)
 An unrestricted Kohn-Sham SCF calculation will be
 performed using Pulay DIIS extrapolation
 Exchange:  wPBE + LR-HF      Correlation:  PBE
 Using SG-1 standard quadrature grid
 SCF converges when DIIS error is below 1.0E-05
 Requested basis set is G3large
 There are 88 shells and 248 basis functions
 A cutoff of  1.0D-08 yielded   3639 shell pairs
 There are  28920 function pairs ( 34904 Cartesian)
 Warning!  Inaccurate integrated density:
   Number of electrons =    35
   Numerical integral  =    34.000227111547
   Relative error      =    -2.8564939670 %
 ---------------------------------------
  Cycle       Energy         DIIS Error
 ---------------------------------------
    1    -195.0165922972      2.72E-02
    2    -194.0700596669      4.38E-03
    3    -194.1154755445      4.48E-03
    4    -194.2312441560      6.29E-04
    5    -194.2351385768      2.82E-04
    6    -194.2367330670      7.16E-05
    7    -194.2372805892      3.48E-05
    8    -194.2375528048      2.28E-05
    9    -194.2377000284      1.50E-05
   10    -194.2378040602      9.65E-06 Convergence criterion met
 ---------------------------------------
 One-Electron    Energy =  -533.3639847453
 Total Coulomb   Energy =   232.5222359616
 Alpha Exchange  Energy =    -2.7214911996
 Beta  Exchange  Energy =    -2.6556381972
 DFT   Exchange  Energy =   -21.3044705212
 DFT Correlation Energy =    -1.1124479737
 Nuclear Repu.   Energy =   134.3979926152
 Nuclear Attr.   Energy =  -726.8069453990
 Kinetic         Energy =   193.4429606537
 <S^2> = 0.7502
 SCF time:  CPU 270.90 s  wall 271.75 s
 Final Alpha MO Eigenvalues
            1           2           3           4           5           6
    1 -18.7682308  -9.9657056  -9.9145367  -9.8999128  -0.9655679  -0.7409738
            7           8           9          10          11          12
    1  -0.6623655  -0.5550961  -0.4785498  -0.4222003  -0.3999478  -0.3563496
           13          14          15          16          17          18
    1  -0.3533910  -0.3295442  -0.3180808  -0.2847113  -0.2295912   0.0248953
           19          20          21          22          23
    1   0.1304988   0.1396291   0.1430033   0.1679136   0.1747362
 Final Beta MO Eigenvalues
            1           2           3           4           5           6
    1 -18.7679600  -9.9654687  -9.9144695  -9.8994975  -0.9649227  -0.7404084
            7           8           9          10          11          12
    1  -0.6616955  -0.5541955  -0.4772838  -0.4212105  -0.3994694  -0.3560228
           13          14          15          16          17          18
    1  -0.3529421  -0.3291110  -0.3173283  -0.2841281  -0.2289362   0.1309823
           19          20          21          22
    1   0.1484034   0.1518804   0.1567869   0.1725923
 Analysis of SCF Wavefunction
 
 --------------------------------------------------------------
                    Orbital Energies (a.u.)
 --------------------------------------------------------------
 
 Alpha MOs
 -- Occupied --
-18.768  -9.966  -9.915  -9.900  -0.966  -0.741  -0.662  -0.555
 -0.479  -0.422  -0.400  -0.356  -0.353  -0.330  -0.318  -0.285
 -0.230   0.025
 -- Virtual --
  0.130   0.140   0.143   0.168   0.175   0.178   0.186   0.235
  0.240   0.263   0.270   0.275   0.277   0.279   0.289   0.298
  0.301   0.320   0.332   0.354   0.373   0.388   0.397   0.411
  0.415   0.442   0.448   0.460   0.466   0.476   0.501   0.520
  0.532   0.566   0.612   0.632   0.660   0.680   0.690   0.698
  0.733   0.740   0.762   0.770   0.772   0.776   0.785   0.817
  0.821   0.845   0.850   0.867   0.878   0.920   0.957   1.006
  1.021   1.067   1.076   1.118   1.141   1.161   1.181   1.202
  1.240   1.272   1.282   1.317   1.334   1.349   1.364   1.385
  1.400   1.430   1.442   1.472   1.492   1.502   1.513   1.537
  1.539   1.560   1.571   1.617   1.655   1.660   1.673   1.693
  1.704   1.747   1.751   1.783   1.795   1.808   1.852   1.854
  1.975   2.081   2.247   2.282   2.475   2.543   2.590   2.709
  2.734   2.773   2.778   2.841   2.888   2.911   3.003   3.023
  3.039   3.072   3.121   3.132   3.147   3.177   3.213   3.301
  3.321   3.352   3.361   3.393   3.424   3.482   3.517   3.526
  3.535   3.562   3.607   3.639   3.710   3.743   3.750   3.777
  3.796   3.834   3.874   3.900   3.930   3.965   3.995   4.015
  4.053   4.084   4.167   4.171   4.185   4.197   4.235   4.298
  4.333   4.381   4.389   4.407   4.414   4.438   4.475   4.502
  4.524   4.532   4.618   4.638   4.674   4.744   4.767   4.801
  4.808   4.854   4.914   5.030   5.244   5.364   5.395   5.471
  5.546   5.580   5.662   5.718   5.746   5.817   5.837   5.864
  5.885   6.017   6.100   6.600   7.158   7.323   7.397   7.444
  7.738   7.850  24.217  24.321  24.427  27.681  27.854  28.160
 28.195  28.224  28.245  28.262  28.447  28.556  41.004  41.055
 41.065  41.069  41.100  41.107  41.241  41.269  41.279  41.293
 41.301  41.320  41.324  41.363  41.395  43.902  43.925  43.975
 44.014  44.082  45.781  46.097  46.472  49.971
 
 Beta MOs
 -- Occupied --
-18.768  -9.965  -9.914  -9.899  -0.965  -0.740  -0.662  -0.554
 -0.477  -0.421  -0.399  -0.356  -0.353  -0.329  -0.317  -0.284
 -0.229
 -- Virtual --
  0.131   0.148   0.152   0.157   0.173   0.182   0.184   0.190
  0.235   0.241   0.261   0.273   0.274   0.277   0.277   0.290
  0.299   0.301   0.319   0.332   0.355   0.373   0.388   0.396
  0.412   0.414   0.441   0.447   0.459   0.466   0.474   0.499
  0.518   0.530   0.565   0.611   0.631   0.659   0.680   0.689
  0.698   0.733   0.740   0.762   0.770   0.771   0.775   0.785
  0.816   0.821   0.844   0.851   0.867   0.878   0.920   0.958
  1.007   1.021   1.067   1.076   1.118   1.141   1.162   1.182
  1.203   1.240   1.273   1.282   1.318   1.334   1.350   1.364
  1.385   1.400   1.431   1.443   1.472   1.492   1.503   1.514
  1.537   1.539   1.561   1.571   1.618   1.655   1.660   1.674
  1.693   1.704   1.747   1.752   1.783   1.796   1.809   1.852
  1.855   1.975   2.081   2.248   2.283   2.476   2.544   2.590
  2.710   2.734   2.773   2.778   2.841   2.888   2.911   3.003
  3.023   3.039   3.072   3.121   3.133   3.147   3.177   3.214
  3.302   3.322   3.352   3.361   3.394   3.425   3.483   3.517
  3.526   3.536   3.563   3.607   3.640   3.711   3.743   3.750
  3.778   3.796   3.835   3.874   3.901   3.931   3.966   3.995
  4.016   4.053   4.085   4.167   4.172   4.186   4.197   4.235
  4.299   4.334   4.382   4.389   4.407   4.414   4.438   4.476
  4.503   4.524   4.532   4.618   4.639   4.674   4.745   4.768
  4.801   4.808   4.854   4.915   5.030   5.245   5.364   5.396
  5.472   5.546   5.580   5.663   5.718   5.747   5.817   5.837
  5.864   5.886   6.017   6.101   6.601   7.159   7.325   7.397
  7.444   7.739   7.850  24.217  24.321  24.427  27.682  27.854
 28.160  28.195  28.224  28.245  28.262  28.448  28.557  41.004
 41.055  41.065  41.070  41.101  41.107  41.241  41.269  41.279
 41.293  41.301  41.320  41.324  41.363  41.396  43.903  43.925
 43.975  44.015  44.082  45.781  46.097  46.472  49.972
 --------------------------------------------------------------
 
          Ground-State Mulliken Net Atomic Charges

     Atom                 Charge (a.u.)    Spin (a.u.)
  --------------------------------------------------------
      1 O                    -0.354933       0.071435
      2 C                     0.222380      -0.240362
      3 H                    -0.290754       0.557370
      4 H                    -0.847604       0.947322
      5 C                     0.441186      -0.739626
      6 C                     1.820882      -2.128938
      7 H                     0.068983       0.018566
      8 H                    -0.163229       0.256654
      9 H                    -0.086240       0.185626
     10 H                    -1.451434       1.562723
     11 H                    -0.073384       0.151678
     12 H                    -0.285852       0.357552
  --------------------------------------------------------
  Sum of atomic charges =    -1.000000
  Sum of spin   charges =     1.000000

 -----------------------------------------------------------------
                    Cartesian Multipole Moments
 -----------------------------------------------------------------
    Charge (ESU x 10^10)
                -4.8032
    Dipole Moment (Debye)
         X      -7.5086      Y       0.3395      Z      -5.5764
       Tot       9.3590
    Quadrupole Moments (Debye-Ang)
        XX     -64.9700     XY       3.6904     YY     -49.6640
        XZ      -9.7774     YZ      -0.3361     ZZ     -61.1971
    Octapole Moments (Debye-Ang^2)
       XXX    -110.8337    XXY      23.2383    XYY     -29.9539
       YYY      35.5242    XXZ     -89.0232    XYZ       3.7504
       YYZ     -72.5303    XZZ     -40.8878    YZZ      12.3708
       ZZZ    -239.5425
    Hexadecapole Moments (Debye-Ang^3)
      XXXX    -819.3354   XXXY     106.5023   XXYY    -199.4084
      XYYY      67.1328   YYYY    -394.6071   XXXZ    -118.1434
      XXYZ      34.4487   XYYZ     -32.9278   YYYZ      62.3883
      XXZZ    -329.6683   XYZZ      26.6029   YYZZ    -255.2221
      XZZZ    -108.1124   YZZZ      70.3901   ZZZZ   -1157.4748
 -----------------------------------------------------------------
 Total job time:  272.10s(wall), 271.24s(cpu) 
 Mon Jun  3 17:08:24 2013

        *************************************************************
        *                                                           *
        *  Thank you very much for using Q-Chem.  Have a nice day.  *
        *                                                           *
        *************************************************************


0 sent ACK to 0 
now end server 0 ... 
 
**********************************************************************
Job 2 of 3 
**********************************************************************
 
Process 0 of 1 is on cl248.stfx.acenet.ca - thread support 1
initial socket setup ...start
initial socket setup ...done 
now start server 0 ... 

cmd = /usr/bin/ssh clhead /usr/local/qchem/bin/get_hostid 604559606 > /scratch/tmp/6027732.1.long.q/qchem31188/lic.dat
                  Welcome to Q-Chem
     A Quantum Leap Into The Future Of Chemistry

 Y. Shao, L. Fusti-Molnar, Y. Jung, J. Kussmann, C. Ochsenfeld,
 S. T. Brown, A. T. B. Gilbert, L. V. Slipchenko,S. V. Levchenko,
 D. P. O'Neill, R. A. DiStasio Jr., R. C. Lochan, T. Wang,
 G. J. O. Beran, N. A. Besley, J. M. Herbert, C. Y. Lin,
 T. Van Voorhis, S. H. Chien, A. Sodt, R. P. Steele, 
 V. A. Rassolov, P. E. Maslen, P. P. Korambath, R. D. Adamson,
 B. Austin, J. Baker, E. F. C. Byrd, H. Dachsel, R. J. Doerksen,
 A. Dreuw, B. D. Dunietz, A. D. Dutoi, T. R. Furlani,
 S. R. Gwaltney, A. Heyden, S. Hirata, C.-P. Hsu, G. Kedziora,
 R. Z. Khaliullin, P. Klunzinger, A. M. Lee, M. S. Lee, W. Liang,
 I. Lotan, N. Nair, B. Peters, E. I. Proynov, P. A. Pieniazek, 
 Y. M. Rhee, J. Ritchie, E. Rosta, C. D. Sherrill, 
 A. C. Simmonett, J. E. Subotnik, H. L. Woodcock III,
 W. Zhang, A. T. Bell, A. K. Chakraborty, D. M. Chipman,
 F. J. Keil, A. Warshel, W. J. Hehre, H. F. Schaefer III,
 J. Kong, A. I. Krylov, P. M. W. Gill, M. Head-Gordon,
 Q-Chem, Version 3.1, Q-Chem, Inc., Pittsburgh, PA (2007).

 Additional authors for Version 3.1: 
 Z. Gan, Y. Zhao, N. E. Schultz, D. Truhlar, E. Epifanovsky and M. Oana.

 Additional authors for Version 3.2: 
 R. Baer, B. R. Brooks, D. Casanova, J.-D. Chai, C.-L. Cheng, 
 C. Cramer, D. Crittenden, A. Ghysels, G. Hawkins, E. G. Hohenstein, 
 C. Kelley, W. Kurlancheek, D. Liotard, E. Livshits, P. Manohar, 
 A. Marenich, D. Neuhauser, R. Olson, M. A. Rohrdanz, K. S. Thanthiriwatte, 
 A. J. W. Thom, V. Vanovschi, C. F. Williams, Q. Wu and Z.-Q. You. 


 Intel X86 Linux Version

 Q-chem begins on Mon Jun  3 17:08:27 2013  

 Parallel job on  1  processors
Processing $rem in /usr/local/qchem/config/preferences.

theFileMan(): MAXOPENFILES=974 MAX_SUB_FILE_NUM=16
Maximum size of a physical file is 2.0 GB, maximum size of a tmp-file is 32.0 GB


--------------------------------------------------------------
User input:
--------------------------------------------------------------

$molecule
0,1
O
C1,O,r1
H1,C1,r2,O,a1
H,O,roh,C1,aoh,H1,toh,0
C2,C1,r3a,O,a2a,H1,t1a,0
C3,C1,r3b,O,a2b,H1,-t1b,0
H,C2,r4a,C1,a4a,H1,t2a,0
H,C3,r5a,C1,a5a,H1,-t2b,0
H,C2,r4b,C1,a4b,H1,t3a,0
H,C3,r5b,C1,a5b,H1,-t3b,0
H,C2,r4c,C1,a4c,H1,-t4a,0
H,C3,r5c,C1,a5c,H1,t4b,0

r1=1.43111827
r2=1.9557364
roh=2.07916264
r3a=1.52393712
r3b=1.53017411
r4a=1.09587708
r5a=1.09583825
r4b=1.09448657
r5b=1.09801539
r4c=1.0954512
r5c=1.0964078
a1=28.22171182
aoh=30.02045037
a2a=106.21524706
a2b=111.13113306
a4a=110.2041443
a5a=110.24366741
a4b=110.29321839
a5b=111.03931704
a4c=110.82961388
a5c=111.23833611
toh=-62.32359188
t1a=179.44473237
t1b=57.80032287
t2a=63.0172795
t2b=83.272013
t3a=-56.37337218
t3b=-36.4963859
t4a=176.72748761
t4b=156.21533884

$end

$comment
neutral
$end

$xc_functional
C PBE   1.00
X wPBE  1.00
$end


$rem
SYMMETRY_DECOMPOSITION	0
LRC_DFT                 true
exchange 		general
BASIS                   g3large
omega			300
mem_static              760
max_scf_cycles          200
scf_final_print         1
sym_ignore              true
$end

--------------------------------------------------------------
 Writing REM_CC_EA           12
 ----------------------------------------------------
       Standard Nuclear Orientation (Angstroms)
    I     Atom         X            Y            Z
 ----------------------------------------------------
    1      O       0.000000     0.000000     0.000000
    2      C       0.000000     0.000000     1.431118
    3      H       0.924838     0.000000    -0.292129
    4      H       0.483161     0.921207     1.800236
    5      C      -1.463245     0.014181     1.856673
    6      C       0.760558    -1.207760     1.982752
    7      H      -1.967442    -0.894454     1.508657
    8      H       0.298586    -2.138301     1.634130
    9      H      -1.976608     0.877600     1.422084
   10      H       1.806714    -1.200668     1.649367
   11      H      -1.551233     0.066921     2.947310
   12      H       0.763328    -1.208441     3.079156
 ----------------------------------------------------
 Nuclear Repulsion Energy =   134.3979926221 hartrees
 There are       17 alpha and       17 beta electrons
 Requested basis set is G3large
 There are 88 shells and 248 basis functions

Total QAlloc Memory Limit   2000 MB
Mega-Array Size       743 MB
MEM_STATIC part       760 MB

                       Distance Matrix (Angstroms)
             O (  1)   C (  2)   H (  3)   H (  4)   C (  5)   C (  6)
   C (  2)  1.431118
   H (  3)  0.969878  1.955736
   H (  4)  2.079163  1.103773  2.328453
   C (  5)  2.364005  1.523937  3.212552  2.148110
   C (  6)  2.443039  1.530174  2.580844  2.154707  2.540539
   H (  7)  2.635701  2.162611  3.522521  3.063836  1.095877  2.786558
   H (  8)  2.707742  2.168571  2.945335  3.069568  2.790476  1.095838
   H (  9)  2.588336  2.162693  3.482398  2.489048  1.094487  3.486424
   H ( 10)  2.725111  2.180241  2.447185  2.505376  3.494491  1.098015
   H ( 11)  3.331282  2.170171  4.077912  2.486833  1.095451  2.810617
   H ( 12)  3.394731  2.181519  3.584965  2.499906  2.819024  1.096408
             H (  7)   H (  8)   H (  9)   H ( 10)   H ( 11)
   H (  8)  2.588007
   H (  9)  1.774192  3.783799
   H ( 10)  3.789170  1.775904  4.322543
   H ( 11)  1.779661  3.163745  1.778892  3.816706
   H ( 12)  3.165779  1.780091  3.821610  1.770031  2.645964
 
 A cutoff of  1.0D-08 yielded   3639 shell pairs
 There are  28920 function pairs ( 34904 Cartesian)
Evaluating contribution to one-electron hamiltonian from nuclear
 Smallest overlap matrix eigenvalue = 4.89E-05

 Q-Chem warning in module mkSTV.C, line 194:

 Overlap eigenvalue is smaller than square root of threshold

 Multipole matrices computed through 2nd order

  Scale SEOQF with 1.000000e-01/1.000000e-01/1.000000e-01

 Standard Electronic Orientation quadrupole field applied
 Nucleus-field energy     =    -0.0000000069 hartrees
 Guess from superposition of atomic densities
 Warning:  Energy on first SCF cycle will be non-variational
 Long-range K will be added via erf
 Coulomb attenuation parameter = 0.3 bohr**(-1)
 A restricted Kohn-Sham SCF calculation will be
 performed using Pulay DIIS extrapolation
 Exchange:  wPBE + LR-HF      Correlation:  PBE
 Using SG-1 standard quadrature grid
 SCF converges when DIIS error is below 1.0E-05
 Requested basis set is G3large
 There are 88 shells and 248 basis functions
 A cutoff of  1.0D-08 yielded   3639 shell pairs
 There are  28920 function pairs ( 34904 Cartesian)
 ---------------------------------------
  Cycle       Energy         DIIS Error
 ---------------------------------------
    1    -195.0165922972      2.72E-02
    2    -194.1534790195      4.04E-03
    3    -194.1892364084      3.77E-03
    4    -194.2651548918      5.86E-04
    5    -194.2668146191      2.10E-04
    6    -194.2671154753      3.92E-05
    7    -194.2671259565      8.43E-06 Convergence criterion met
 ---------------------------------------
 One-Electron    Energy =  -528.9091609675
 Total Coulomb   Energy =   227.9562967021
 Alpha Exchange  Energy =    -2.6567104495
 Beta  Exchange  Energy =    -2.6567104495
 DFT   Exchange  Energy =   -21.2941679621
 DFT Correlation Energy =    -1.1046654452
 Nuclear Repu.   Energy =   134.3979926152
 Nuclear Attr.   Energy =  -722.2891077156
 Kinetic         Energy =   193.3799467480
 SCF time:  CPU 146.81 s  wall 147.24 s
 Final Alpha MO Eigenvalues
            1           2           3           4           5           6
    1 -18.9055614 -10.1003060 -10.0397508 -10.0333324  -1.1025316  -0.8715573
            7           8           9          10          11          12
    1  -0.7923540  -0.6862014  -0.6126544  -0.5527607  -0.5338676  -0.4860515
           13          14          15          16          17          18
    1  -0.4748961  -0.4627491  -0.4484189  -0.4172551  -0.3649580   0.0349293
           19          20          21          22
    1   0.0531446   0.0559973   0.0608190   0.0804410
 Analysis of SCF Wavefunction
 
 --------------------------------------------------------------
                    Orbital Energies (a.u.)
 --------------------------------------------------------------
 
 Alpha MOs
 -- Occupied --
-18.906 -10.100 -10.040 -10.033  -1.103  -0.872  -0.792  -0.686
 -0.613  -0.553  -0.534  -0.486  -0.475  -0.463  -0.448  -0.417
 -0.365
 -- Virtual --
  0.035   0.053   0.056   0.061   0.080   0.084   0.090   0.097
  0.131   0.139   0.157   0.162   0.169   0.172   0.177   0.181
  0.189   0.194   0.217   0.220   0.240   0.255   0.269   0.273
  0.290   0.294   0.318   0.324   0.340   0.344   0.362   0.384
  0.401   0.412   0.445   0.492   0.512   0.533   0.552   0.567
  0.578   0.611   0.615   0.640   0.643   0.648   0.652   0.662
  0.687   0.692   0.714   0.723   0.747   0.754   0.789   0.830
  0.877   0.892   0.938   0.945   0.989   1.012   1.033   1.051
  1.072   1.112   1.145   1.156   1.186   1.203   1.225   1.234
  1.253   1.274   1.301   1.316   1.348   1.361   1.375   1.383
  1.409   1.413   1.431   1.440   1.482   1.527   1.535   1.543
  1.561   1.580   1.618   1.625   1.655   1.668   1.679   1.721
  1.723   1.845   1.945   2.114   2.149   2.342   2.408   2.463
  2.577   2.600   2.644   2.650   2.707   2.761   2.780   2.872
  2.891   2.908   2.939   2.995   3.002   3.017   3.046   3.084
  3.174   3.187   3.227   3.230   3.262   3.293   3.356   3.386
  3.394   3.409   3.431   3.477   3.509   3.580   3.609   3.625
  3.650   3.663   3.702   3.742   3.767   3.798   3.826   3.862
  3.888   3.921   3.954   4.032   4.041   4.056   4.067   4.107
  4.167   4.199   4.249   4.257   4.279   4.287   4.308   4.340
  4.369   4.393   4.399   4.493   4.503   4.545   4.613   4.642
  4.664   4.682   4.722   4.783   4.900   5.109   5.230   5.261
  5.337   5.414   5.449   5.527   5.583   5.610   5.684   5.713
  5.734   5.755   5.882   5.965   6.465   7.022   7.184   7.261
  7.308   7.602   7.715  24.085  24.192  24.295  27.549  27.722
 28.025  28.068  28.093  28.118  28.130  28.316  28.424  40.873
 40.922  40.930  40.944  40.963  40.982  41.106  41.136  41.153
 41.158  41.168  41.184  41.200  41.242  41.258  43.765  43.788
 43.838  43.877  43.944  45.644  45.960  46.334  49.834
 --------------------------------------------------------------
 
          Ground-State Mulliken Net Atomic Charges

     Atom                 Charge (a.u.)
  ----------------------------------------
      1 O                    -0.263311
      2 C                    -0.024152
      3 H                     0.239109
      4 H                     0.082709
      5 C                    -0.284828
      6 C                    -0.320980
      7 H                     0.104030
      8 H                     0.120294
      9 H                     0.108869
     10 H                     0.078927
     11 H                     0.079463
     12 H                     0.079869
  ----------------------------------------
  Sum of atomic charges =     0.000000

 -----------------------------------------------------------------
                    Cartesian Multipole Moments
 -----------------------------------------------------------------
    Charge (ESU x 10^10)
                 0.0000
    Dipole Moment (Debye)
         X       1.2869      Y      -0.0466      Z       1.0934
       Tot       1.6893
    Quadrupole Moments (Debye-Ang)
        XX     -25.1246     XY       0.1282     YY     -27.0627
        XZ      -0.9710     YZ      -0.0319     ZZ     -25.0313
    Octapole Moments (Debye-Ang^2)
       XXX      16.2751    XXY       9.2797    XYY       3.7387
       YYY      26.9211    XXZ     -38.6809    XYZ       0.2050
       YYZ     -37.6325    XZZ       4.8217    YZZ       9.0835
       ZZZ    -108.6430
    Hexadecapole Moments (Debye-Ang^3)
      XXXX    -182.4227   XXXY      22.2357   XXYY     -50.0375
      XYYY      24.9451   YYYY    -119.9710   XXXZ      28.1687
      XXYZ      18.8219   XYYZ       8.4999   YYYZ      55.8044
      XXZZ    -110.9018   XYZZ       7.7271   YYZZ    -100.3472
      XZZZ      26.1883   YZZZ      53.9316   ZZZZ    -445.0570
 -----------------------------------------------------------------
 Total job time:  147.57s(wall), 147.12s(cpu) 
 Mon Jun  3 17:10:55 2013

        *************************************************************
        *                                                           *
        *  Thank you very much for using Q-Chem.  Have a nice day.  *
        *                                                           *
        *************************************************************


0 sent ACK to 0 
now end server 0 ... 
 
**********************************************************************
Job 3 of 3 
**********************************************************************
 
Process 0 of 1 is on cl248.stfx.acenet.ca - thread support 1
initial socket setup ...start
initial socket setup ...done 
now start server 0 ... 

cmd = /usr/bin/ssh clhead /usr/local/qchem/bin/get_hostid 1159683220 > /scratch/tmp/6027732.1.long.q/qchem31188/lic.dat
                  Welcome to Q-Chem
     A Quantum Leap Into The Future Of Chemistry

 Y. Shao, L. Fusti-Molnar, Y. Jung, J. Kussmann, C. Ochsenfeld,
 S. T. Brown, A. T. B. Gilbert, L. V. Slipchenko,S. V. Levchenko,
 D. P. O'Neill, R. A. DiStasio Jr., R. C. Lochan, T. Wang,
 G. J. O. Beran, N. A. Besley, J. M. Herbert, C. Y. Lin,
 T. Van Voorhis, S. H. Chien, A. Sodt, R. P. Steele, 
 V. A. Rassolov, P. E. Maslen, P. P. Korambath, R. D. Adamson,
 B. Austin, J. Baker, E. F. C. Byrd, H. Dachsel, R. J. Doerksen,
 A. Dreuw, B. D. Dunietz, A. D. Dutoi, T. R. Furlani,
 S. R. Gwaltney, A. Heyden, S. Hirata, C.-P. Hsu, G. Kedziora,
 R. Z. Khaliullin, P. Klunzinger, A. M. Lee, M. S. Lee, W. Liang,
 I. Lotan, N. Nair, B. Peters, E. I. Proynov, P. A. Pieniazek, 
 Y. M. Rhee, J. Ritchie, E. Rosta, C. D. Sherrill, 
 A. C. Simmonett, J. E. Subotnik, H. L. Woodcock III,
 W. Zhang, A. T. Bell, A. K. Chakraborty, D. M. Chipman,
 F. J. Keil, A. Warshel, W. J. Hehre, H. F. Schaefer III,
 J. Kong, A. I. Krylov, P. M. W. Gill, M. Head-Gordon,
 Q-Chem, Version 3.1, Q-Chem, Inc., Pittsburgh, PA (2007).

 Additional authors for Version 3.1: 
 Z. Gan, Y. Zhao, N. E. Schultz, D. Truhlar, E. Epifanovsky and M. Oana.

 Additional authors for Version 3.2: 
 R. Baer, B. R. Brooks, D. Casanova, J.-D. Chai, C.-L. Cheng, 
 C. Cramer, D. Crittenden, A. Ghysels, G. Hawkins, E. G. Hohenstein, 
 C. Kelley, W. Kurlancheek, D. Liotard, E. Livshits, P. Manohar, 
 A. Marenich, D. Neuhauser, R. Olson, M. A. Rohrdanz, K. S. Thanthiriwatte, 
 A. J. W. Thom, V. Vanovschi, C. F. Williams, Q. Wu and Z.-Q. You. 


 Intel X86 Linux Version

 Q-chem begins on Mon Jun  3 17:10:57 2013  

 Parallel job on  1  processors
Processing $rem in /usr/local/qchem/config/preferences.

theFileMan(): MAXOPENFILES=974 MAX_SUB_FILE_NUM=16
Maximum size of a physical file is 2.0 GB, maximum size of a tmp-file is 32.0 GB


--------------------------------------------------------------
User input:
--------------------------------------------------------------

$molecule
1,2
O
C1,O,r1
H1,C1,r2,O,a1
H,O,roh,C1,aoh,H1,toh,0
C2,C1,r3a,O,a2a,H1,t1a,0
C3,C1,r3b,O,a2b,H1,-t1b,0
H,C2,r4a,C1,a4a,H1,t2a,0
H,C3,r5a,C1,a5a,H1,-t2b,0
H,C2,r4b,C1,a4b,H1,t3a,0
H,C3,r5b,C1,a5b,H1,-t3b,0
H,C2,r4c,C1,a4c,H1,-t4a,0
H,C3,r5c,C1,a5c,H1,t4b,0

r1=1.43111827
r2=1.9557364
roh=2.07916264
r3a=1.52393712
r3b=1.53017411
r4a=1.09587708
r5a=1.09583825
r4b=1.09448657
r5b=1.09801539
r4c=1.0954512
r5c=1.0964078
a1=28.22171182
aoh=30.02045037
a2a=106.21524706
a2b=111.13113306
a4a=110.2041443
a5a=110.24366741
a4b=110.29321839
a5b=111.03931704
a4c=110.82961388
a5c=111.23833611
toh=-62.32359188
t1a=179.44473237
t1b=57.80032287
t2a=63.0172795
t2b=83.272013
t3a=-56.37337218
t3b=-36.4963859
t4a=176.72748761
t4b=156.21533884

$end

$comment
positive
$end

$xc_functional
C PBE   1.00
X wPBE  1.00
$end

$rem
SYMMETRY_DECOMPOSITION	0
LRC_DFT                 true
exchange 		general
BASIS                   g3large
omega			300
mem_static              760
max_scf_cycles          200
scf_final_print         1
sym_ignore              true
$end

--------------------------------------------------------------
 Writing REM_CC_EA           12
 ----------------------------------------------------
       Standard Nuclear Orientation (Angstroms)
    I     Atom         X            Y            Z
 ----------------------------------------------------
    1      O       0.000000     0.000000     0.000000
    2      C       0.000000     0.000000     1.431118
    3      H       0.924838     0.000000    -0.292129
    4      H       0.483161     0.921207     1.800236
    5      C      -1.463245     0.014181     1.856673
    6      C       0.760558    -1.207760     1.982752
    7      H      -1.967442    -0.894454     1.508657
    8      H       0.298586    -2.138301     1.634130
    9      H      -1.976608     0.877600     1.422084
   10      H       1.806714    -1.200668     1.649367
   11      H      -1.551233     0.066921     2.947310
   12      H       0.763328    -1.208441     3.079156
 ----------------------------------------------------
 Nuclear Repulsion Energy =   134.3979926221 hartrees
 There are       17 alpha and       16 beta electrons
 Requested basis set is G3large
 There are 88 shells and 248 basis functions

Total QAlloc Memory Limit   2000 MB
Mega-Array Size       743 MB
MEM_STATIC part       760 MB

                       Distance Matrix (Angstroms)
             O (  1)   C (  2)   H (  3)   H (  4)   C (  5)   C (  6)
   C (  2)  1.431118
   H (  3)  0.969878  1.955736
   H (  4)  2.079163  1.103773  2.328453
   C (  5)  2.364005  1.523937  3.212552  2.148110
   C (  6)  2.443039  1.530174  2.580844  2.154707  2.540539
   H (  7)  2.635701  2.162611  3.522521  3.063836  1.095877  2.786558
   H (  8)  2.707742  2.168571  2.945335  3.069568  2.790476  1.095838
   H (  9)  2.588336  2.162693  3.482398  2.489048  1.094487  3.486424
   H ( 10)  2.725111  2.180241  2.447185  2.505376  3.494491  1.098015
   H ( 11)  3.331282  2.170171  4.077912  2.486833  1.095451  2.810617
   H ( 12)  3.394731  2.181519  3.584965  2.499906  2.819024  1.096408
             H (  7)   H (  8)   H (  9)   H ( 10)   H ( 11)
   H (  8)  2.588007
   H (  9)  1.774192  3.783799
   H ( 10)  3.789170  1.775904  4.322543
   H ( 11)  1.779661  3.163745  1.778892  3.816706
   H ( 12)  3.165779  1.780091  3.821610  1.770031  2.645964
 
 A cutoff of  1.0D-08 yielded   3639 shell pairs
 There are  28920 function pairs ( 34904 Cartesian)
Evaluating contribution to one-electron hamiltonian from nuclear
 Smallest overlap matrix eigenvalue = 4.89E-05

 Q-Chem warning in module mkSTV.C, line 194:

 Overlap eigenvalue is smaller than square root of threshold

 Multipole matrices computed through 2nd order

  Scale SEOQF with 1.000000e-01/1.000000e-01/1.000000e-01

 Standard Electronic Orientation quadrupole field applied
 Nucleus-field energy     =    -0.0000000069 hartrees
 Guess from superposition of atomic densities
 Warning:  Energy on first SCF cycle will be non-variational
 Long-range K will be added via erf
 Coulomb attenuation parameter = 0.3 bohr**(-1)
 An unrestricted Kohn-Sham SCF calculation will be
 performed using Pulay DIIS extrapolation
 Exchange:  wPBE + LR-HF      Correlation:  PBE
 Using SG-1 standard quadrature grid
 SCF converges when DIIS error is below 1.0E-05
 Requested basis set is G3large
 There are 88 shells and 248 basis functions
 A cutoff of  1.0D-08 yielded   3639 shell pairs
 There are  28920 function pairs ( 34904 Cartesian)
 Warning!  Inaccurate integrated density:
   Number of electrons =    33
   Numerical integral  =    34.000227111547
   Relative error      =     3.0309912471 %
 ---------------------------------------
  Cycle       Energy         DIIS Error
 ---------------------------------------
    1    -195.0165922972      2.72E-02
    2    -193.8163404288      2.75E-03
    3    -193.8610907242      1.90E-03
    4    -193.8810187233      5.97E-04
    5    -193.8839115517      3.86E-04
    6    -193.8853899188      1.11E-04
    7    -193.8862173713      9.26E-05
    8    -193.8870592612      4.64E-05
    9    -193.8874287110      2.04E-05
   10    -193.8876301579      1.44E-05
   11    -193.8876847721      8.88E-06 Convergence criterion met
 ---------------------------------------
 One-Electron    Energy =  -520.0653576654
 Total Coulomb   Energy =   219.1321399005
 Alpha Exchange  Energy =    -2.6681068682
 Beta  Exchange  Energy =    -2.4944076477
 DFT   Exchange  Energy =   -21.1207686271
 DFT Correlation Energy =    -1.0691764794
 Nuclear Repu.   Energy =   134.3979926152
 Nuclear Attr.   Energy =  -713.1498363786
 Kinetic         Energy =   193.0844787132
 <S^2> = 0.7539
 SCF time:  CPU 292.17 s  wall 292.85 s
 Final Alpha MO Eigenvalues
            1           2           3           4           5           6
    1 -19.2814942 -10.3775083 -10.2801445 -10.2405747  -1.4441588  -1.1309287
            7           8           9          10          11          12
    1  -1.0219149  -0.9487179  -0.9045833  -0.8314047  -0.7959499  -0.7454914
           13          14          15          16          17          18
    1  -0.7114747  -0.7067178  -0.6841544  -0.6644879  -0.6589405  -0.1278889
           19          20          21          22
    1  -0.0869087  -0.0791287  -0.0699739  -0.0554202
 Final Beta MO Eigenvalues
            1           2           3           4           5           6
    1 -19.2664851 -10.3759849 -10.2775639 -10.2404804  -1.4134907  -1.1182842
            7           8           9          10          11          12
    1  -1.0155717  -0.9402449  -0.8830435  -0.7963564  -0.7799333  -0.7162320
           13          14          15          16          17          18
    1  -0.7044276  -0.6827253  -0.6677212  -0.6567464  -0.3923550  -0.1253408
           19          20          21
    1  -0.0844496  -0.0773739  -0.0690796
 Analysis of SCF Wavefunction
 
 --------------------------------------------------------------
                    Orbital Energies (a.u.)
 --------------------------------------------------------------
 
 Alpha MOs
 -- Occupied --
-19.281 -10.378 -10.280 -10.241  -1.444  -1.131  -1.022  -0.949
 -0.905  -0.831  -0.796  -0.745  -0.711  -0.707  -0.684  -0.664
 -0.659
 -- Virtual --
 -0.128  -0.087  -0.079  -0.070  -0.055  -0.044  -0.039  -0.031
 -0.020  -0.015  -0.007   0.001   0.013   0.022   0.028   0.034
  0.042   0.046   0.057   0.062   0.067   0.080   0.090   0.095
  0.105   0.115   0.120   0.135   0.142   0.148   0.192   0.197
  0.217   0.226   0.249   0.304   0.323   0.328   0.346   0.369
  0.390   0.400   0.415   0.427   0.450   0.456   0.465   0.473
  0.478   0.482   0.496   0.517   0.557   0.563   0.584   0.615
  0.664   0.684   0.721   0.724   0.770   0.807   0.817   0.831
  0.853   0.891   0.922   0.939   0.960   0.964   0.987   1.016
  1.042   1.058   1.080   1.103   1.130   1.146   1.155   1.167
  1.180   1.207   1.216   1.232   1.250   1.308   1.321   1.337
  1.353   1.375   1.400   1.409   1.443   1.454   1.458   1.501
  1.508   1.576   1.646   1.835   1.867   2.045   2.131   2.247
  2.343   2.350   2.414   2.431   2.477   2.529   2.536   2.621
  2.640   2.666   2.685   2.758   2.779   2.797   2.818   2.844
  2.949   2.954   2.982   3.004   3.019   3.070   3.136   3.146
  3.162   3.187   3.203   3.245   3.272   3.327   3.377   3.406
  3.420   3.427   3.451   3.488   3.511   3.539   3.561   3.622
  3.650   3.692   3.715   3.783   3.806   3.826   3.839   3.880
  3.925   3.942   3.997   4.027   4.052   4.070   4.090   4.100
  4.113   4.148   4.163   4.268   4.273   4.318   4.383   4.415
  4.428   4.456   4.484   4.540   4.665   4.736   4.892   4.920
  5.039   5.117   5.209   5.214   5.269   5.293   5.426   5.481
  5.515   5.540   5.586   5.670   6.141   6.638   6.849   6.896
  6.930   7.258   7.378  23.832  23.965  24.050  27.294  27.466
 27.757  27.842  27.857  27.902  27.909  28.068  28.178  40.603
 40.652  40.687  40.720  40.733  40.764  40.827  40.866  40.892
 40.913  40.943  40.955  40.990  41.005  41.038  43.374  43.391
 43.448  43.512  43.582  45.249  45.592  45.966  49.461
 
 Beta MOs
 -- Occupied --
-19.266 -10.376 -10.278 -10.240  -1.413  -1.118  -1.016  -0.940
 -0.883  -0.796  -0.780  -0.716  -0.704  -0.683  -0.668  -0.657
 -- Virtual --
 -0.392  -0.125  -0.084  -0.077  -0.069  -0.053  -0.043  -0.038
 -0.030  -0.020  -0.014  -0.004   0.003   0.015   0.024   0.031
  0.035   0.044   0.050   0.057   0.065   0.069   0.083   0.092
  0.097   0.106   0.122   0.122   0.138   0.145   0.152   0.195
  0.202   0.218   0.228   0.254   0.307   0.326   0.330   0.352
  0.372   0.393   0.404   0.417   0.433   0.454   0.459   0.468
  0.477   0.483   0.485   0.501   0.520   0.560   0.568   0.586
  0.618   0.667   0.687   0.724   0.727   0.772   0.809   0.821
  0.836   0.858   0.896   0.927   0.945   0.968   0.978   0.997
  1.021   1.045   1.063   1.085   1.107   1.133   1.152   1.161
  1.170   1.189   1.210   1.220   1.235   1.256   1.312   1.329
  1.340   1.357   1.378   1.404   1.416   1.446   1.457   1.464
  1.506   1.512   1.594   1.671   1.851   1.879   2.067   2.137
  2.251   2.353   2.355   2.419   2.434   2.482   2.537   2.544
  2.627   2.648   2.673   2.697   2.764   2.780   2.801   2.821
  2.851   2.954   2.958   2.990   3.008   3.025   3.073   3.141
  3.154   3.166   3.190   3.206   3.249   3.277   3.335   3.381
  3.411   3.425   3.429   3.454   3.493   3.514   3.546   3.568
  3.628   3.658   3.696   3.722   3.789   3.809   3.831   3.842
  3.887   3.933   3.948   4.006   4.031   4.057   4.073   4.094
  4.105   4.125   4.159   4.169   4.273   4.281   4.323   4.390
  4.423   4.436   4.460   4.494   4.551   4.672   4.807   4.930
  4.957   5.069   5.137   5.219   5.229   5.304   5.314   5.442
  5.484   5.519   5.545   5.605   5.675   6.156   6.704   6.870
  6.944   6.993   7.286   7.390  23.834  23.967  24.052  27.297
 27.469  27.758  27.843  27.859  27.902  27.909  28.072  28.180
 40.607  40.653  40.691  40.723  40.733  40.764  40.831  40.866
 40.896  40.916  40.944  40.956  40.990  41.010  41.039  43.413
 43.438  43.486  43.519  43.586  45.294  45.601  45.976  49.476
 --------------------------------------------------------------
 
          Ground-State Mulliken Net Atomic Charges

     Atom                 Charge (a.u.)    Spin (a.u.)
  --------------------------------------------------------
      1 O                     0.161877       0.624041
      2 C                    -0.130804       0.073042
      3 H                     0.315917      -0.010731
      4 H                     0.228914       0.138601
      5 C                    -0.228941      -0.002556
      6 C                    -0.206483       0.133707
      7 H                     0.151314       0.022483
      8 H                     0.162467       0.006616
      9 H                     0.147637       0.014751
     10 H                     0.125425      -0.005874
     11 H                     0.126959      -0.001341
     12 H                     0.145717       0.007261
  --------------------------------------------------------
  Sum of atomic charges =     1.000000
  Sum of spin   charges =     1.000000

 -----------------------------------------------------------------
                    Cartesian Multipole Moments
 -----------------------------------------------------------------
    Charge (ESU x 10^10)
                 4.8032
    Dipole Moment (Debye)
         X       1.4575      Y      -1.0580      Z       6.1667
       Tot       6.4243
    Quadrupole Moments (Debye-Ang)
        XX     -17.8563     XY      -0.9795     YY     -19.7866
        XZ      -1.0880     YZ      -2.5033     ZZ     -10.0775
    Octapole Moments (Debye-Ang^2)
       XXX      11.5814    XXY       6.7681    XYY       5.4933
       YYY      19.4270    XXZ     -26.7166    XYZ      -2.4458
       YYZ     -26.2633    XZZ       4.8346    YZZ       1.8473
       ZZZ     -68.9146
    Hexadecapole Moments (Debye-Ang^3)
      XXXX    -144.0746   XXXY      17.4758   XXYY     -38.8115
      XYYY      19.4988   YYYY     -88.9885   XXXZ      18.2665
      XXYZ      13.5651   XYYZ      12.9034   YYYZ      40.3826
      XXZZ     -80.1946   XYZZ       0.2325   YYZZ     -71.3029
      XZZZ      25.6700   YZZZ      30.7338   ZZZZ    -319.4541
 -----------------------------------------------------------------
 Total job time:  293.18s(wall), 292.48s(cpu) 
 Mon Jun  3 17:15:50 2013

        *************************************************************
        *                                                           *
        *  Thank you very much for using Q-Chem.  Have a nice day.  *
        *                                                           *
        *************************************************************


0 sent ACK to 0 
now end server 0 ... 
