Process 0 of 1 is on cl139.stfx.acenet.ca - thread support 1
initial socket setup ...start
initial socket setup ...done 
now start server 0 ... 

cmd = /usr/bin/ssh clhead /usr/local/qchem/bin/get_hostid 1575123423 > /globalscratch/itamblyn/bnl/g297_b3lyp_neut_g03Large/g2g71077/omega500/qchem7649/lic.dat
                  Welcome to Q-Chem
     A Quantum Leap Into The Future Of Chemistry

 Y. Shao, L. Fusti-Molnar, Y. Jung, J. Kussmann, C. Ochsenfeld,
 S. T. Brown, A. T. B. Gilbert, L. V. Slipchenko,S. V. Levchenko,
 D. P. O'Neill, R. A. DiStasio Jr., R. C. Lochan, T. Wang,
 G. J. O. Beran, N. A. Besley, J. M. Herbert, C. Y. Lin,
 T. Van Voorhis, S. H. Chien, A. Sodt, R. P. Steele, 
 V. A. Rassolov, P. E. Maslen, P. P. Korambath, R. D. Adamson,
 B. Austin, J. Baker, E. F. C. Byrd, H. Dachsel, R. J. Doerksen,
 A. Dreuw, B. D. Dunietz, A. D. Dutoi, T. R. Furlani,
 S. R. Gwaltney, A. Heyden, S. Hirata, C.-P. Hsu, G. Kedziora,
 R. Z. Khaliullin, P. Klunzinger, A. M. Lee, M. S. Lee, W. Liang,
 I. Lotan, N. Nair, B. Peters, E. I. Proynov, P. A. Pieniazek, 
 Y. M. Rhee, J. Ritchie, E. Rosta, C. D. Sherrill, 
 A. C. Simmonett, J. E. Subotnik, H. L. Woodcock III,
 W. Zhang, A. T. Bell, A. K. Chakraborty, D. M. Chipman,
 F. J. Keil, A. Warshel, W. J. Hehre, H. F. Schaefer III,
 J. Kong, A. I. Krylov, P. M. W. Gill, M. Head-Gordon,
 Q-Chem, Version 3.1, Q-Chem, Inc., Pittsburgh, PA (2007).

 Additional authors for Version 3.1: 
 Z. Gan, Y. Zhao, N. E. Schultz, D. Truhlar, E. Epifanovsky and M. Oana.

 Additional authors for Version 3.2: 
 R. Baer, B. R. Brooks, D. Casanova, J.-D. Chai, C.-L. Cheng, 
 C. Cramer, D. Crittenden, A. Ghysels, G. Hawkins, E. G. Hohenstein, 
 C. Kelley, W. Kurlancheek, D. Liotard, E. Livshits, P. Manohar, 
 A. Marenich, D. Neuhauser, R. Olson, M. A. Rohrdanz, K. S. Thanthiriwatte, 
 A. J. W. Thom, V. Vanovschi, C. F. Williams, Q. Wu and Z.-Q. You. 


 Intel X86 Linux Version

 Q-chem begins on Mon Apr 11 17:59:28 2011  

 Parallel job on  1  processors
Processing $rem in /usr/local/qchem/config/preferences.

theFileMan(): MAXOPENFILES=974 MAX_SUB_FILE_NUM=16
Maximum size of a physical file is 2.0 GB, maximum size of a tmp-file is 32.0 GB


--------------------------------------------------------------
User input:
--------------------------------------------------------------

$molecule
-1,2
X
C,1,R1
C,1,R2,2,90.
C,1,R2,2,90.,3,180.,0
H,2,R3,1,THETA1,3,90.,0
H,2,R3,1,THETA1,3,-90.,0
H,3,R4,1,THETA2,2,180.,0
H,4,R4,1,THETA2,2,180.,0

 R1=1.36279839
 R2=0.64744345
 R3=1.09475715
 R4=1.07976902
 THETA1=123.4894802
 THETA2=149.86562277

$end

$comment
negative
$end

$xc_functional
   X HF 1.0
   X BNL 1.0
   C LYP 1.0
$end

$rem
SYMMETRY_DECOMPOSITION	0
exchange 		general
BASIS                   g3large
omega			500
separate_jk		true
mem_static              760
max_scf_cycles          200
scf_final_print         1
sym_ignore              true
$end

--------------------------------------------------------------
 Writing REM_CC_EA            7
 ----------------------------------------------------
       Standard Nuclear Orientation (Angstroms)
    I     Atom         X            Y            Z
 ----------------------------------------------------
    1      C       0.000000     0.000000     1.362798
    2      C       0.647443     0.000000     0.000000
    3      C      -0.647443     0.000000     0.000000
    4      H       0.000000     0.913013     1.966868
    5      H       0.000000    -0.913013     1.966868
    6      H       1.581282     0.000000    -0.542076
    7      H      -1.581282     0.000000    -0.542076
 ----------------------------------------------------
 Nuclear Repulsion Energy =    63.7310766520 hartrees
 There are       12 alpha and       11 beta electrons
 Requested basis set is G3large
 There are 54 shells and 166 basis functions

Total QAlloc Memory Limit   2000 MB
Mega-Array Size       743 MB
MEM_STATIC part       760 MB

                       Distance Matrix (Angstroms)
             C (  1)   C (  2)   C (  3)   H (  4)   H (  5)   H (  6)
   C (  2)  1.508775
   C (  3)  1.508775  1.294887
   H (  4)  1.094757  2.263039  2.263039
   H (  5)  1.094757  2.263039  2.263039  1.826027
   H (  6)  2.475682  1.079769  2.293701  3.103038  3.103038
   H (  7)  2.475682  2.293701  1.079769  3.103038  3.103038  3.162564

 
 A cutoff of  1.0D-08 yielded   1431 shell pairs
 There are  13633 function pairs ( 16832 Cartesian)
Evaluating contribution to one-electron hamiltonian from nuclear
 Smallest overlap matrix eigenvalue = 2.55E-05

 Q-Chem warning in module mkSTV.C, line 194:

 Overlap eigenvalue is smaller than square root of threshold

 Multipole matrices computed through 2nd order

  Scale SEOQF with 1.000000e-01/1.000000e-01/1.000000e-01

 Standard Electronic Orientation quadrupole field applied
 Nucleus-field energy     =    -0.0000000016 hartrees
 Guess from superposition of atomic densities
 Warning:  Energy on first SCF cycle will be non-variational
 An unrestricted hybrid HF-DFT SCF calculation will be
 performed using Pulay DIIS extrapolation
 Exchange:     1.0000 Hartree-Fock + 1.0000 BNL
 Correlation:  1.0000 LYP
 Using SG-1 standard quadrature grid
 SCF converges when DIIS error is below 1.0E-05
 Warning!  Inaccurate integrated density:
   Number of electrons =    23
   Numerical integral  =    22.000430708793
   Relative error      =    -4.3459534400 %
 ---------------------------------------
  Cycle       Energy         DIIS Error
 ---------------------------------------
    1    -116.3136445845      3.79E-02
    2    -115.1210974337      5.33E-03
    3    -115.1707930369      4.90E-03
    4    -115.2555889411      3.61E-04
    5    -115.2577047429      1.57E-04
    6    -115.2584014695      9.81E-05
    7    -115.2589644094      9.46E-05
    8    -115.2596305090      9.72E-05
    9    -115.2584979527      9.11E-05
   10    -115.2571397581      1.52E-04
   11    -115.2571682647      1.89E-04
   12    -115.2571685050      8.77E-05
   13    -115.2572012083      3.15E-05
   14    -115.2572087629      1.59E-05
   15    -115.2572091453      5.30E-06 Convergence criterion met
 ---------------------------------------
 One-Electron    Energy =  -286.4299296078
 Total Coulomb   Energy =   123.9509031734
 Alpha Exchange  Energy =    -2.7258902081
 Beta  Exchange  Energy =    -2.5552031481
 DFT   Exchange  Energy =   -10.4982411073
 DFT Correlation Energy =    -0.7299248978
 Nuclear Repu.   Energy =    63.7310766504
 Nuclear Attr.   Energy =  -401.0951759892
 Kinetic         Energy =   114.6652463814
 <S^2> = 0.7533
 SCF time:  CPU 137.00 s  wall 169.92 s
 Final Alpha MO Eigenvalues
            1           2           3           4           5           6
    1  -9.8288238  -9.7941934  -9.7931957  -0.8108724  -0.5431571  -0.4890235
            7           8           9          10          11          12
    1  -0.4205386  -0.3709536  -0.2515185  -0.2004077  -0.1653240   0.0551613
           13          14          15          16          17
    1   0.1646122   0.1649083   0.1724309   0.1820740   0.2524662
 Final Beta MO Eigenvalues
            1           2           3           4           5           6
    1  -9.8293185  -9.7892659  -9.7881348  -0.8038493  -0.5401031  -0.4686489
            7           8           9          10          11          12
    1  -0.4140455  -0.3608419  -0.2463170  -0.1975772  -0.1278963   0.1579873
           13          14          15          16
    1   0.1590923   0.1689343   0.1785096   0.2473266
 Analysis of SCF Wavefunction
 
 --------------------------------------------------------------
                    Orbital Energies (a.u.)
 --------------------------------------------------------------
 
 Alpha MOs
 -- Occupied --
 -9.829  -9.794  -9.793  -0.811  -0.543  -0.489  -0.421  -0.371
 -0.252  -0.200  -0.165   0.055
 -- Virtual --
  0.165   0.165   0.172   0.182   0.252   0.258   0.278   0.282
  0.298   0.320   0.323   0.330   0.352   0.353   0.363   0.371
  0.429   0.466   0.478   0.522   0.533   0.564   0.659   0.721
  0.740   0.781   0.819   0.848   0.861   0.865   0.871   0.874
  0.884   0.896   0.900   0.963   0.989   0.998   1.036   1.039
  1.166   1.199   1.222   1.224   1.228   1.347   1.360   1.367
  1.442   1.447   1.501   1.548   1.577   1.660   1.667   1.702
  1.743   1.785   1.790   1.804   1.839   1.841   1.868   1.903
  1.996   2.084   2.853   2.883   2.900   2.959   2.967   2.972
  2.985   3.043   3.068   3.100   3.169   3.197   3.267   3.286
  3.292   3.302   3.367   3.436   3.482   3.506   3.530   3.581
  3.616   3.661   3.698   3.699   3.753   3.772   3.773   3.779
  3.795   3.931   3.958   4.029   4.046   4.123   4.190   4.221
  4.273   4.275   4.308   4.318   4.463   4.532   4.650   4.662
  4.748   4.833   4.881   4.986   5.178   5.272   5.278   5.414
  5.437   5.480   5.840   5.929   6.029   6.456   7.219  24.249
 24.721  25.275  27.727  27.882  27.918  28.072  28.451  28.472
 28.655  29.056  29.177  41.172  41.188  41.232  41.236  41.308
 41.491  41.495  41.525  41.531  41.559  41.599  41.645  41.654
 41.691  41.726
 
 Beta MOs
 -- Occupied --
 -9.829  -9.789  -9.788  -0.804  -0.540  -0.469  -0.414  -0.361
 -0.246  -0.198  -0.128
 -- Virtual --
  0.158   0.159   0.169   0.179   0.247   0.251   0.253   0.274
  0.277   0.292   0.314   0.317   0.346   0.350   0.357   0.369
  0.399   0.426   0.464   0.482   0.519   0.533   0.565   0.662
  0.722   0.739   0.785   0.822   0.855   0.862   0.874   0.874
  0.877   0.885   0.899   0.913   0.965   1.000   1.011   1.036
  1.041   1.172   1.206   1.225   1.229   1.230   1.349   1.360
  1.378   1.446   1.450   1.510   1.549   1.579   1.666   1.667
  1.703   1.747   1.788   1.791   1.815   1.841   1.842   1.871
  1.906   1.999   2.090   2.854   2.886   2.901   2.964   2.969
  2.982   2.994   3.050   3.080   3.104   3.179   3.201   3.277
  3.293   3.303   3.317   3.372   3.439   3.485   3.510   3.542
  3.585   3.621   3.670   3.700   3.705   3.764   3.784   3.786
  3.789   3.800   3.944   3.970   4.037   4.050   4.133   4.192
  4.228   4.275   4.277   4.311   4.324   4.465   4.533   4.651
  4.670   4.749   4.842   4.886   4.988   5.182   5.276   5.280
  5.417   5.444   5.492   5.840   5.928   6.035   6.460   7.223
 24.255  24.721  25.282  27.736  27.882  27.927  28.075  28.451
 28.475  28.655  29.059  29.180  41.174  41.196  41.237  41.240
 41.309  41.491  41.503  41.533  41.540  41.559  41.599  41.654
 41.657  41.695  41.729
 --------------------------------------------------------------
 
          Ground-State Mulliken Net Atomic Charges

     Atom                 Charge (a.u.)    Spin (a.u.)
  --------------------------------------------------------
      1 C                    -0.072159      -0.077095
      2 C                    -0.548640       0.542320
      3 C                    -0.549816       0.543264
      4 H                     0.002311      -0.002696
      5 H                     0.002224      -0.002694
      6 H                     0.083020      -0.001529
      7 H                     0.083059      -0.001571
  --------------------------------------------------------
  Sum of atomic charges =    -1.000000
  Sum of spin   charges =     1.000000

 -----------------------------------------------------------------
                    Cartesian Multipole Moments
 -----------------------------------------------------------------
    Charge (ESU x 10^10)
                -4.8032
    Dipole Moment (Debye)
         X       0.0021      Y      -0.0193      Z      -1.3594
       Tot       1.3595
    Quadrupole Moments (Debye-Ang)
        XX     -30.2054     XY       0.0547     YY     -30.9784
        XZ       0.0016     YZ       0.0055     ZZ     -26.8330
    Octapole Moments (Debye-Ang^2)
       XXX       0.0119    XXY      -0.1532    XYY       0.0151
       YYY      -0.1395    XXZ     -13.6861    XYZ       0.1649
       YYZ      -9.6472    XZZ       0.0050    YZZ      -0.0473
       ZZZ     -37.4621
    Hexadecapole Moments (Debye-Ang^3)
      XXXX    -139.6842   XXXY       0.2242   XXYY     -56.6011
      XYYY       0.4488   YYYY     -94.8576   XXXZ       0.0168
      XXYZ       0.0487   XYYZ       0.0093   YYYZ       0.0306
      XXZZ     -50.6401   XYZZ       0.1474   YYZZ     -41.6224
      XZZZ       0.0155   YZZZ       0.0400   ZZZZ    -163.8180
 -----------------------------------------------------------------
 Total job time:  171.64s(wall), 137.21s(cpu) 
 Mon Apr 11 18:02:20 2011

        *************************************************************
        *                                                           *
        *  Thank you very much for using Q-Chem.  Have a nice day.  *
        *                                                           *
        *************************************************************


0 sent ACK to 0 
now end server 0 ... 
 
**********************************************************************
Job 2 of 3 
**********************************************************************
 
Process 0 of 1 is on cl139.stfx.acenet.ca - thread support 1
initial socket setup ...start
initial socket setup ...done 
now start server 0 ... 

cmd = /usr/bin/ssh clhead /usr/local/qchem/bin/get_hostid 1263831573 > /globalscratch/itamblyn/bnl/g297_b3lyp_neut_g03Large/g2g71077/omega500/qchem7649/lic.dat
                  Welcome to Q-Chem
     A Quantum Leap Into The Future Of Chemistry

 Y. Shao, L. Fusti-Molnar, Y. Jung, J. Kussmann, C. Ochsenfeld,
 S. T. Brown, A. T. B. Gilbert, L. V. Slipchenko,S. V. Levchenko,
 D. P. O'Neill, R. A. DiStasio Jr., R. C. Lochan, T. Wang,
 G. J. O. Beran, N. A. Besley, J. M. Herbert, C. Y. Lin,
 T. Van Voorhis, S. H. Chien, A. Sodt, R. P. Steele, 
 V. A. Rassolov, P. E. Maslen, P. P. Korambath, R. D. Adamson,
 B. Austin, J. Baker, E. F. C. Byrd, H. Dachsel, R. J. Doerksen,
 A. Dreuw, B. D. Dunietz, A. D. Dutoi, T. R. Furlani,
 S. R. Gwaltney, A. Heyden, S. Hirata, C.-P. Hsu, G. Kedziora,
 R. Z. Khaliullin, P. Klunzinger, A. M. Lee, M. S. Lee, W. Liang,
 I. Lotan, N. Nair, B. Peters, E. I. Proynov, P. A. Pieniazek, 
 Y. M. Rhee, J. Ritchie, E. Rosta, C. D. Sherrill, 
 A. C. Simmonett, J. E. Subotnik, H. L. Woodcock III,
 W. Zhang, A. T. Bell, A. K. Chakraborty, D. M. Chipman,
 F. J. Keil, A. Warshel, W. J. Hehre, H. F. Schaefer III,
 J. Kong, A. I. Krylov, P. M. W. Gill, M. Head-Gordon,
 Q-Chem, Version 3.1, Q-Chem, Inc., Pittsburgh, PA (2007).

 Additional authors for Version 3.1: 
 Z. Gan, Y. Zhao, N. E. Schultz, D. Truhlar, E. Epifanovsky and M. Oana.

 Additional authors for Version 3.2: 
 R. Baer, B. R. Brooks, D. Casanova, J.-D. Chai, C.-L. Cheng, 
 C. Cramer, D. Crittenden, A. Ghysels, G. Hawkins, E. G. Hohenstein, 
 C. Kelley, W. Kurlancheek, D. Liotard, E. Livshits, P. Manohar, 
 A. Marenich, D. Neuhauser, R. Olson, M. A. Rohrdanz, K. S. Thanthiriwatte, 
 A. J. W. Thom, V. Vanovschi, C. F. Williams, Q. Wu and Z.-Q. You. 


 Intel X86 Linux Version

 Q-chem begins on Mon Apr 11 18:02:23 2011  

 Parallel job on  1  processors
Processing $rem in /usr/local/qchem/config/preferences.

theFileMan(): MAXOPENFILES=974 MAX_SUB_FILE_NUM=16
Maximum size of a physical file is 2.0 GB, maximum size of a tmp-file is 32.0 GB


--------------------------------------------------------------
User input:
--------------------------------------------------------------

$molecule
0,1
X
C,1,R1
C,1,R2,2,90.
C,1,R2,2,90.,3,180.,0
H,2,R3,1,THETA1,3,90.,0
H,2,R3,1,THETA1,3,-90.,0
H,3,R4,1,THETA2,2,180.,0
H,4,R4,1,THETA2,2,180.,0

 R1=1.36279839
 R2=0.64744345
 R3=1.09475715
 R4=1.07976902
 THETA1=123.4894802
 THETA2=149.86562277

$end

$comment
neutral
$end

$xc_functional
   X HF 1.0
   X BNL 1.0
   C LYP 1.0
$end

$rem
SYMMETRY_DECOMPOSITION	0
exchange 		general
BASIS                   g3large
omega			500
separate_jk		true
mem_static              760
max_scf_cycles          200
scf_final_print         1
sym_ignore              true
$end

--------------------------------------------------------------
 Writing REM_CC_EA            7
 ----------------------------------------------------
       Standard Nuclear Orientation (Angstroms)
    I     Atom         X            Y            Z
 ----------------------------------------------------
    1      C       0.000000     0.000000     1.362798
    2      C       0.647443     0.000000     0.000000
    3      C      -0.647443     0.000000     0.000000
    4      H       0.000000     0.913013     1.966868
    5      H       0.000000    -0.913013     1.966868
    6      H       1.581282     0.000000    -0.542076
    7      H      -1.581282     0.000000    -0.542076
 ----------------------------------------------------
 Nuclear Repulsion Energy =    63.7310766520 hartrees
 There are       11 alpha and       11 beta electrons
 Requested basis set is G3large
 There are 54 shells and 166 basis functions

Total QAlloc Memory Limit   2000 MB
Mega-Array Size       743 MB
MEM_STATIC part       760 MB

                       Distance Matrix (Angstroms)
             C (  1)   C (  2)   C (  3)   H (  4)   H (  5)   H (  6)
   C (  2)  1.508775
   C (  3)  1.508775  1.294887
   H (  4)  1.094757  2.263039  2.263039
   H (  5)  1.094757  2.263039  2.263039  1.826027
   H (  6)  2.475682  1.079769  2.293701  3.103038  3.103038
   H (  7)  2.475682  2.293701  1.079769  3.103038  3.103038  3.162564

 
 A cutoff of  1.0D-08 yielded   1431 shell pairs
 There are  13633 function pairs ( 16832 Cartesian)
Evaluating contribution to one-electron hamiltonian from nuclear
 Smallest overlap matrix eigenvalue = 2.55E-05

 Q-Chem warning in module mkSTV.C, line 194:

 Overlap eigenvalue is smaller than square root of threshold

 Multipole matrices computed through 2nd order

  Scale SEOQF with 1.000000e-01/1.000000e-01/1.000000e-01

 Standard Electronic Orientation quadrupole field applied
 Nucleus-field energy     =    -0.0000000016 hartrees
 Guess from superposition of atomic densities
 Warning:  Energy on first SCF cycle will be non-variational
 A restricted hybrid HF-DFT SCF calculation will be
 performed using Pulay DIIS extrapolation
 Exchange:     1.0000 Hartree-Fock + 1.0000 BNL
 Correlation:  1.0000 LYP
 Using SG-1 standard quadrature grid
 SCF converges when DIIS error is below 1.0E-05
 ---------------------------------------
  Cycle       Energy         DIIS Error
 ---------------------------------------
    1    -116.3136445845      3.79E-02
    2    -115.2761939782      3.05E-03
    3    -115.3145231880      1.46E-03
    4    -115.3225815636      4.66E-04
    5    -115.3241568310      1.28E-04
    6    -115.3243475882      6.78E-05
    7    -115.3243782747      2.54E-05
    8    -115.3243848890      8.72E-06 Convergence criterion met
 ---------------------------------------
 One-Electron    Energy =  -281.4216443360
 Total Coulomb   Energy =   118.6703975040
 Alpha Exchange  Energy =    -2.5723817379
 Beta  Exchange  Energy =    -2.5723817379
 DFT   Exchange  Energy =   -10.4500266836
 DFT Correlation Energy =    -0.7094245479
 Nuclear Repu.   Energy =    63.7310766504
 Nuclear Attr.   Energy =  -395.9039038143
 Kinetic         Energy =   114.4822594783
 SCF time:  CPU 57.76 s  wall 80.32 s
 Final Alpha MO Eigenvalues
            1           2           3           4           5           6
    1 -10.0496684 -10.0485164 -10.0413403  -1.0462104  -0.7602790  -0.7176435
            7           8           9          10          11          12
    1  -0.6503595  -0.5790756  -0.4845837  -0.4254532  -0.3756882   0.0384380
           13          14          15          16
    1   0.0475772   0.0529174   0.0636605   0.0737282
 Analysis of SCF Wavefunction
 
 --------------------------------------------------------------
                    Orbital Energies (a.u.)
 --------------------------------------------------------------
 
 Alpha MOs
 -- Occupied --
-10.050 -10.049 -10.041  -1.046  -0.760  -0.718  -0.650  -0.579
 -0.485  -0.425  -0.376
 -- Virtual --
  0.038   0.048   0.053   0.064   0.074   0.114   0.114   0.130
  0.133   0.156   0.170   0.175   0.184   0.186   0.198   0.208
  0.222   0.254   0.280   0.299   0.344   0.354   0.366   0.471
  0.522   0.549   0.583   0.619   0.637   0.657   0.663   0.663
  0.684   0.684   0.690   0.714   0.762   0.775   0.790   0.829
  0.829   0.946   0.991   1.012   1.013   1.019   1.140   1.148
  1.154   1.227   1.248   1.285   1.351   1.360   1.449   1.463
  1.507   1.530   1.570   1.582   1.589   1.628   1.642   1.647
  1.685   1.780   1.857   2.625   2.661   2.688   2.728   2.737
  2.740   2.759   2.803   2.837   2.873   2.938   2.974   3.033
  3.056   3.058   3.067   3.140   3.208   3.268   3.278   3.291
  3.354   3.395   3.437   3.474   3.488   3.516   3.534   3.539
  3.551   3.562   3.701   3.721   3.793   3.818   3.885   3.957
  3.995   4.055   4.059   4.084   4.095   4.247   4.318   4.430
  4.443   4.531   4.599   4.663   4.760   4.949   5.034   5.051
  5.201   5.202   5.238   5.627   5.725   5.792   6.219   6.979
 23.999  24.505  25.022  27.471  27.659  27.662  27.822  28.226
 28.240  28.431  28.803  28.929  40.923  40.945  40.978  41.011
 41.088  41.239  41.260  41.276  41.288  41.334  41.387  41.390
 41.399  41.436  41.482
 --------------------------------------------------------------
 
          Ground-State Mulliken Net Atomic Charges

     Atom                 Charge (a.u.)
  ----------------------------------------
      1 C                    -0.138161
      2 C                    -0.163377
      3 C                    -0.163681
      4 H                     0.075816
      5 H                     0.075808
      6 H                     0.156785
      7 H                     0.156809
  ----------------------------------------
  Sum of atomic charges =     0.000000

 -----------------------------------------------------------------
                    Cartesian Multipole Moments
 -----------------------------------------------------------------
    Charge (ESU x 10^10)
                 0.0000
    Dipole Moment (Debye)
         X       0.0006      Y       0.0000      Z      -0.4820
       Tot       0.4820
    Quadrupole Moments (Debye-Ang)
        XX     -16.8842     XY      -0.0004     YY     -19.7834
        XZ       0.0002     YZ       0.0001     ZZ     -19.2481
    Octapole Moments (Debye-Ang^2)
       XXX       0.0000    XXY       0.0000    XYY       0.0002
       YYY       0.0000    XXZ     -13.8439    XYZ      -0.0006
       YYZ      -8.1300    XZZ       0.0002    YZZ       0.0001
       ZZZ     -28.6922
    Hexadecapole Moments (Debye-Ang^3)
      XXXX     -59.7897   XXXY      -0.0016   XXYY     -17.4750
      XYYY      -0.0007   YYYY     -30.5690   XXXZ       0.0004
      XXYZ       0.0001   XYYZ       0.0000   YYYZ       0.0001
      XXZZ     -32.9225   XYZZ      -0.0005   YYZZ     -23.4332
      XZZZ       0.0004   YZZZ       0.0002   ZZZZ    -121.1085
 -----------------------------------------------------------------
 Total job time:  82.79s(wall), 57.96s(cpu) 
 Mon Apr 11 18:03:46 2011

        *************************************************************
        *                                                           *
        *  Thank you very much for using Q-Chem.  Have a nice day.  *
        *                                                           *
        *************************************************************


0 sent ACK to 0 
now end server 0 ... 
 
**********************************************************************
Job 3 of 3 
**********************************************************************
 
Process 0 of 1 is on cl139.stfx.acenet.ca - thread support 1
initial socket setup ...start
initial socket setup ...done 
now start server 0 ... 

cmd = /usr/bin/ssh clhead /usr/local/qchem/bin/get_hostid 275803611 > /globalscratch/itamblyn/bnl/g297_b3lyp_neut_g03Large/g2g71077/omega500/qchem7649/lic.dat
                  Welcome to Q-Chem
     A Quantum Leap Into The Future Of Chemistry

 Y. Shao, L. Fusti-Molnar, Y. Jung, J. Kussmann, C. Ochsenfeld,
 S. T. Brown, A. T. B. Gilbert, L. V. Slipchenko,S. V. Levchenko,
 D. P. O'Neill, R. A. DiStasio Jr., R. C. Lochan, T. Wang,
 G. J. O. Beran, N. A. Besley, J. M. Herbert, C. Y. Lin,
 T. Van Voorhis, S. H. Chien, A. Sodt, R. P. Steele, 
 V. A. Rassolov, P. E. Maslen, P. P. Korambath, R. D. Adamson,
 B. Austin, J. Baker, E. F. C. Byrd, H. Dachsel, R. J. Doerksen,
 A. Dreuw, B. D. Dunietz, A. D. Dutoi, T. R. Furlani,
 S. R. Gwaltney, A. Heyden, S. Hirata, C.-P. Hsu, G. Kedziora,
 R. Z. Khaliullin, P. Klunzinger, A. M. Lee, M. S. Lee, W. Liang,
 I. Lotan, N. Nair, B. Peters, E. I. Proynov, P. A. Pieniazek, 
 Y. M. Rhee, J. Ritchie, E. Rosta, C. D. Sherrill, 
 A. C. Simmonett, J. E. Subotnik, H. L. Woodcock III,
 W. Zhang, A. T. Bell, A. K. Chakraborty, D. M. Chipman,
 F. J. Keil, A. Warshel, W. J. Hehre, H. F. Schaefer III,
 J. Kong, A. I. Krylov, P. M. W. Gill, M. Head-Gordon,
 Q-Chem, Version 3.1, Q-Chem, Inc., Pittsburgh, PA (2007).

 Additional authors for Version 3.1: 
 Z. Gan, Y. Zhao, N. E. Schultz, D. Truhlar, E. Epifanovsky and M. Oana.

 Additional authors for Version 3.2: 
 R. Baer, B. R. Brooks, D. Casanova, J.-D. Chai, C.-L. Cheng, 
 C. Cramer, D. Crittenden, A. Ghysels, G. Hawkins, E. G. Hohenstein, 
 C. Kelley, W. Kurlancheek, D. Liotard, E. Livshits, P. Manohar, 
 A. Marenich, D. Neuhauser, R. Olson, M. A. Rohrdanz, K. S. Thanthiriwatte, 
 A. J. W. Thom, V. Vanovschi, C. F. Williams, Q. Wu and Z.-Q. You. 


 Intel X86 Linux Version

 Q-chem begins on Mon Apr 11 18:03:51 2011  

 Parallel job on  1  processors
Processing $rem in /usr/local/qchem/config/preferences.

theFileMan(): MAXOPENFILES=974 MAX_SUB_FILE_NUM=16
Maximum size of a physical file is 2.0 GB, maximum size of a tmp-file is 32.0 GB


--------------------------------------------------------------
User input:
--------------------------------------------------------------

$molecule
1,2
X
C,1,R1
C,1,R2,2,90.
C,1,R2,2,90.,3,180.,0
H,2,R3,1,THETA1,3,90.,0
H,2,R3,1,THETA1,3,-90.,0
H,3,R4,1,THETA2,2,180.,0
H,4,R4,1,THETA2,2,180.,0

 R1=1.36279839
 R2=0.64744345
 R3=1.09475715
 R4=1.07976902
 THETA1=123.4894802
 THETA2=149.86562277

$end

$comment
positive
$end

$xc_functional
   X HF 1.0
   X BNL 1.0
   C LYP 1.0
$end

$rem
SYMMETRY_DECOMPOSITION	0
exchange 		general
BASIS                   g3large
omega			500
separate_jk		true
mem_static              760
max_scf_cycles          200
scf_final_print         1
sym_ignore              true
$end

--------------------------------------------------------------
 Writing REM_CC_EA            7
 ----------------------------------------------------
       Standard Nuclear Orientation (Angstroms)
    I     Atom         X            Y            Z
 ----------------------------------------------------
    1      C       0.000000     0.000000     1.362798
    2      C       0.647443     0.000000     0.000000
    3      C      -0.647443     0.000000     0.000000
    4      H       0.000000     0.913013     1.966868
    5      H       0.000000    -0.913013     1.966868
    6      H       1.581282     0.000000    -0.542076
    7      H      -1.581282     0.000000    -0.542076
 ----------------------------------------------------
 Nuclear Repulsion Energy =    63.7310766520 hartrees
 There are       11 alpha and       10 beta electrons
 Requested basis set is G3large
 There are 54 shells and 166 basis functions

Total QAlloc Memory Limit   2000 MB
Mega-Array Size       743 MB
MEM_STATIC part       760 MB

                       Distance Matrix (Angstroms)
             C (  1)   C (  2)   C (  3)   H (  4)   H (  5)   H (  6)
   C (  2)  1.508775
   C (  3)  1.508775  1.294887
   H (  4)  1.094757  2.263039  2.263039
   H (  5)  1.094757  2.263039  2.263039  1.826027
   H (  6)  2.475682  1.079769  2.293701  3.103038  3.103038
   H (  7)  2.475682  2.293701  1.079769  3.103038  3.103038  3.162564

 
 A cutoff of  1.0D-08 yielded   1431 shell pairs
 There are  13633 function pairs ( 16832 Cartesian)
Evaluating contribution to one-electron hamiltonian from nuclear
 Smallest overlap matrix eigenvalue = 2.55E-05

 Q-Chem warning in module mkSTV.C, line 194:

 Overlap eigenvalue is smaller than square root of threshold

 Multipole matrices computed through 2nd order

  Scale SEOQF with 1.000000e-01/1.000000e-01/1.000000e-01

 Standard Electronic Orientation quadrupole field applied
 Nucleus-field energy     =    -0.0000000016 hartrees
 Guess from superposition of atomic densities
 Warning:  Energy on first SCF cycle will be non-variational
 An unrestricted hybrid HF-DFT SCF calculation will be
 performed using Pulay DIIS extrapolation
 Exchange:     1.0000 Hartree-Fock + 1.0000 BNL
 Correlation:  1.0000 LYP
 Using SG-1 standard quadrature grid
 SCF converges when DIIS error is below 1.0E-05
 Warning!  Inaccurate integrated density:
   Number of electrons =    21
   Numerical integral  =    22.000430708793
   Relative error      =     4.7639557562 %
 ---------------------------------------
  Cycle       Energy         DIIS Error
 ---------------------------------------
    1    -116.3136445845      3.79E-02
    2    -114.9056235324      2.54E-03
    3    -114.9499324534      8.10E-04
    4    -114.9561202969      4.63E-04
    5    -114.9580814014      1.55E-04
    6    -114.9591019577      1.19E-04
    7    -114.9596374879      7.31E-05
    8    -114.9602367225      5.87E-05
    9    -114.9610047495      3.68E-05
   10    -114.9612926216      2.38E-05
   11    -114.9613871025      1.53E-05
   12    -114.9614082024      3.82E-06 Convergence criterion met
 ---------------------------------------
 One-Electron    Energy =  -274.9629974997
 Total Coulomb   Energy =   112.2656578534
 Alpha Exchange  Energy =    -2.5956055771
 Beta  Exchange  Energy =    -2.3633873145
 DFT   Exchange  Energy =   -10.3609063226
 DFT Correlation Energy =    -0.6752459924
 Nuclear Repu.   Energy =    63.7310766504
 Nuclear Attr.   Energy =  -389.2268489019
 Kinetic         Energy =   114.2638514022
 <S^2> = 0.7545
 SCF time:  CPU 108.57 s  wall 137.20 s
 Final Alpha MO Eigenvalues
            1           2           3           4           5           6
    1 -10.3790736 -10.3778964 -10.3194468  -1.3665690  -1.0532453  -1.0017810
            7           8           9          10          11          12
    1  -0.9357271  -0.8788183  -0.7872773  -0.7060049  -0.6955208  -0.1966593
           13          14          15          16
    1  -0.1083900  -0.0940937  -0.0938658  -0.0822123
 Final Beta MO Eigenvalues
            1           2           3           4           5           6
    1 -10.3719988 -10.3710473 -10.3194633  -1.3422539  -1.0283310  -0.9898839
            7           8           9          10          11          12
    1  -0.9254959  -0.8216476  -0.7727594  -0.7034184  -0.3517022  -0.1486329
           13          14          15
    1  -0.1088729  -0.0935187  -0.0921934
 Analysis of SCF Wavefunction
 
 --------------------------------------------------------------
                    Orbital Energies (a.u.)
 --------------------------------------------------------------
 
 Alpha MOs
 -- Occupied --
-10.379 -10.378 -10.319  -1.367  -1.053  -1.002  -0.936  -0.879
 -0.787  -0.706  -0.696
 -- Virtual --
 -0.197  -0.108  -0.094  -0.094  -0.082  -0.052  -0.039  -0.035
 -0.025  -0.025  -0.002   0.013   0.020   0.020   0.038   0.044
  0.057   0.060   0.066   0.089   0.124   0.139   0.169   0.263
  0.297   0.324   0.343   0.384   0.393   0.403   0.406   0.424
  0.437   0.455   0.455   0.487   0.506   0.542   0.555   0.581
  0.590   0.686   0.741   0.762   0.763   0.768   0.880   0.889
  0.905   0.968   1.000   1.023   1.101   1.116   1.191   1.213
  1.252   1.277   1.317   1.324   1.333   1.365   1.390   1.393
  1.427   1.523   1.586   2.350   2.368   2.396   2.422   2.439
  2.455   2.471   2.497   2.528   2.598   2.628   2.687   2.719
  2.752   2.758   2.763   2.848   2.921   2.981   2.998   3.001
  3.063   3.100   3.146   3.185   3.208   3.220   3.241   3.246
  3.258   3.278   3.390   3.411   3.492   3.536   3.587   3.682
  3.703   3.767   3.768   3.805   3.807   3.959   4.037   4.133
  4.158   4.247   4.313   4.368   4.487   4.656   4.742   4.766
  4.908   4.908   4.932   5.338   5.437   5.491   5.932   6.694
 23.676  24.224  24.693  27.136  27.327  27.370  27.501  27.912
 27.960  28.141  28.481  28.612  40.591  40.627  40.644  40.725
 40.804  40.905  40.931  40.943  41.004  41.036  41.056  41.074
 41.108  41.108  41.175
 
 Beta MOs
 -- Occupied --
-10.372 -10.371 -10.319  -1.342  -1.028  -0.990  -0.925  -0.822
 -0.773  -0.703
 -- Virtual --
 -0.352  -0.149  -0.109  -0.094  -0.092  -0.083  -0.052  -0.037
 -0.035  -0.024  -0.022   0.007   0.015   0.021   0.022   0.038
  0.046   0.059   0.059   0.068   0.101   0.129   0.145   0.173
  0.265   0.302   0.329   0.358   0.395   0.404   0.415   0.417
  0.429   0.445   0.456   0.460   0.493   0.518   0.545   0.563
  0.586   0.594   0.692   0.748   0.768   0.770   0.774   0.893
  0.895   0.908   0.972   1.008   1.033   1.108   1.118   1.195
  1.214   1.264   1.284   1.327   1.329   1.340   1.371   1.397
  1.397   1.432   1.529   1.594   2.353   2.382   2.413   2.445
  2.455   2.473   2.475   2.513   2.548   2.604   2.649   2.696
  2.743   2.771   2.773   2.779   2.857   2.928   2.995   3.004
  3.014   3.074   3.116   3.159   3.195   3.218   3.233   3.256
  3.259   3.271   3.286   3.415   3.431   3.507   3.540   3.601
  3.686   3.717   3.781   3.786   3.810   3.815   3.972   4.050
  4.150   4.178   4.258   4.325   4.387   4.492   4.664   4.748
  4.775   4.917   4.926   4.951   5.355   5.457   5.499   5.937
  6.699  23.685  24.224  24.703  27.149  27.339  27.371  27.506
 27.915  27.962  28.142  28.485  28.616  40.602  40.633  40.657
 40.726  40.805  40.917  40.942  40.954  41.006  41.038  41.068
 41.078  41.109  41.114  41.177
 --------------------------------------------------------------
 
          Ground-State Mulliken Net Atomic Charges

     Atom                 Charge (a.u.)    Spin (a.u.)
  --------------------------------------------------------
      1 C                    -0.126758      -0.031637
      2 C                     0.101921       0.410739
      3 C                     0.101937       0.410759
      4 H                     0.211072       0.114100
      5 H                     0.211132       0.114282
      6 H                     0.250354      -0.009123
      7 H                     0.250344      -0.009120
  --------------------------------------------------------
  Sum of atomic charges =     1.000000
  Sum of spin   charges =     1.000000

 -----------------------------------------------------------------
                    Cartesian Multipole Moments
 -----------------------------------------------------------------
    Charge (ESU x 10^10)
                 4.8032
    Dipole Moment (Debye)
         X       0.0000      Y      -0.0002      Z       1.8638
       Tot       1.8638
    Quadrupole Moments (Debye-Ang)
        XX     -11.4050     XY      -0.0006     YY     -14.7600
        XZ       0.0001     YZ      -0.0010     ZZ     -10.1027
    Octapole Moments (Debye-Ang^2)
       XXX      -0.0001    XXY      -0.0006    XYY       0.0000
       YYY      -0.0003    XXZ     -13.9650    XYZ      -0.0001
       YYZ      -4.6166    XZZ       0.0000    YZZ      -0.0016
       ZZZ     -12.1175
    Hexadecapole Moments (Debye-Ang^3)
      XXXX     -40.2330   XXXY      -0.0012   XXYY     -13.2741
      XYYY      -0.0005   YYYY     -19.2302   XXXZ       0.0001
      XXYZ      -0.0001   XYYZ       0.0000   YYYZ      -0.0010
      XXZZ     -26.2259   XYZZ      -0.0012   YYZZ     -12.0526
      XZZZ       0.0001   YZZZ      -0.0041   ZZZZ     -72.8950
 -----------------------------------------------------------------
 Total job time:  141.34s(wall), 108.76s(cpu) 
 Mon Apr 11 18:06:12 2011

        *************************************************************
        *                                                           *
        *  Thank you very much for using Q-Chem.  Have a nice day.  *
        *                                                           *
        *************************************************************


0 sent ACK to 0 
now end server 0 ... 
