Process 0 of 1 is on cl192.stfx.acenet.ca - thread support 1
initial socket setup ...start
initial socket setup ...done 
now start server 0 ... 

cmd = /usr/bin/ssh clhead /usr/local/qchem/bin/get_hostid 987919756 > /scratch/tmp/4825513.1.medium.q/qchem26651/lic.dat
                  Welcome to Q-Chem
     A Quantum Leap Into The Future Of Chemistry

 Y. Shao, L. Fusti-Molnar, Y. Jung, J. Kussmann, C. Ochsenfeld,
 S. T. Brown, A. T. B. Gilbert, L. V. Slipchenko,S. V. Levchenko,
 D. P. O'Neill, R. A. DiStasio Jr., R. C. Lochan, T. Wang,
 G. J. O. Beran, N. A. Besley, J. M. Herbert, C. Y. Lin,
 T. Van Voorhis, S. H. Chien, A. Sodt, R. P. Steele, 
 V. A. Rassolov, P. E. Maslen, P. P. Korambath, R. D. Adamson,
 B. Austin, J. Baker, E. F. C. Byrd, H. Dachsel, R. J. Doerksen,
 A. Dreuw, B. D. Dunietz, A. D. Dutoi, T. R. Furlani,
 S. R. Gwaltney, A. Heyden, S. Hirata, C.-P. Hsu, G. Kedziora,
 R. Z. Khaliullin, P. Klunzinger, A. M. Lee, M. S. Lee, W. Liang,
 I. Lotan, N. Nair, B. Peters, E. I. Proynov, P. A. Pieniazek, 
 Y. M. Rhee, J. Ritchie, E. Rosta, C. D. Sherrill, 
 A. C. Simmonett, J. E. Subotnik, H. L. Woodcock III,
 W. Zhang, A. T. Bell, A. K. Chakraborty, D. M. Chipman,
 F. J. Keil, A. Warshel, W. J. Hehre, H. F. Schaefer III,
 J. Kong, A. I. Krylov, P. M. W. Gill, M. Head-Gordon,
 Q-Chem, Version 3.1, Q-Chem, Inc., Pittsburgh, PA (2007).

 Additional authors for Version 3.1: 
 Z. Gan, Y. Zhao, N. E. Schultz, D. Truhlar, E. Epifanovsky and M. Oana.

 Additional authors for Version 3.2: 
 R. Baer, B. R. Brooks, D. Casanova, J.-D. Chai, C.-L. Cheng, 
 C. Cramer, D. Crittenden, A. Ghysels, G. Hawkins, E. G. Hohenstein, 
 C. Kelley, W. Kurlancheek, D. Liotard, E. Livshits, P. Manohar, 
 A. Marenich, D. Neuhauser, R. Olson, M. A. Rohrdanz, K. S. Thanthiriwatte, 
 A. J. W. Thom, V. Vanovschi, C. F. Williams, Q. Wu and Z.-Q. You. 


 Intel X86 Linux Version

 Q-chem begins on Mon Nov 14 19:01:22 2011  

 Parallel job on  1  processors
Processing $rem in /usr/local/qchem/config/preferences.

theFileMan(): MAXOPENFILES=974 MAX_SUB_FILE_NUM=16
Maximum size of a physical file is 2.0 GB, maximum size of a tmp-file is 32.0 GB


--------------------------------------------------------------
User input:
--------------------------------------------------------------

$molecule
-1,1
S
H,1,R

R=1.35543613

$end

$comment
negative
$end

$xc_functional
   X HF 1.0
   X BNL 1.0
   C LYP 1.0
$end

$rem
SYMMETRY_DECOMPOSITION	0
exchange 		general
BASIS                   g3large
omega			470
separate_jk		true
mem_static              760
max_scf_cycles          200
scf_final_print         1
sym_ignore              true
$end

--------------------------------------------------------------
 Writing REM_CC_EA            2
 ----------------------------------------------------
       Standard Nuclear Orientation (Angstroms)
    I     Atom         X            Y            Z
 ----------------------------------------------------
    1      S       0.000000     0.000000     0.000000
    2      H       0.000000     0.000000     1.355436
 ----------------------------------------------------
 Nuclear Repulsion Energy =     6.2465764232 hartrees
 There are        9 alpha and        9 beta electrons
 Requested basis set is G3large
 There are 25 shells and 76 basis functions

Total QAlloc Memory Limit   2000 MB
Mega-Array Size       743 MB
MEM_STATIC part       760 MB

                       Distance Matrix (Angstroms)
             S (  1)
   H (  2)  1.355436
 
 A cutoff of  1.0D-08 yielded    325 shell pairs
 There are   3056 function pairs (  4227 Cartesian)
Evaluating contribution to one-electron hamiltonian from nuclear
 Smallest overlap matrix eigenvalue = 3.71E-03
 Multipole matrices computed through 2nd order

  Scale SEOQF with 1.000000e-01/1.000000e-01/1.000000e-01

 Standard Electronic Orientation quadrupole field applied
 Nucleus-field energy     =    -0.0000000002 hartrees
 Guess from superposition of atomic densities
 Warning:  Energy on first SCF cycle will be non-variational
 A restricted hybrid HF-DFT SCF calculation will be
 performed using Pulay DIIS extrapolation
 Exchange:     1.0000 Hartree-Fock + 1.0000 BNL
 Correlation:  1.0000 LYP
 Using SG-1 standard quadrature grid
 SCF converges when DIIS error is below 1.0E-05
 Warning!  Inaccurate integrated density:
   Number of electrons =    18
   Numerical integral  =    17.000017771455
   Relative error      =    -5.5554568253 %
 ---------------------------------------
  Cycle       Energy         DIIS Error
 ---------------------------------------
    1    -396.8720923763      3.10E-02
    2    -397.0562005375      7.30E-03
    3    -397.1019746386      5.65E-03
    4    -397.1189732821      5.98E-04
    5    -397.1192858542      1.52E-04
    6    -397.1193351894      3.22E-05
    7    -397.1193379772      8.36E-06 Convergence criterion met
 ---------------------------------------
 One-Electron    Energy =  -567.8931981295
 Total Coulomb   Energy =   188.9790668286
 Alpha Exchange  Energy =    -2.0754760232
 Beta  Exchange  Energy =    -2.0754760232
 DFT   Exchange  Energy =   -19.6020628247
 DFT Correlation Energy =    -0.6987682281
 Nuclear Repu.   Energy =     6.2465764230
 Nuclear Attr.   Energy =  -964.2793987599
 Kinetic         Energy =   396.3862006304
 SCF time:  CPU 8.40 s  wall 15.25 s
 Final Alpha MO Eigenvalues
            1           2           3           4           5           6
    1 -87.6373139  -7.5844615  -5.6319851  -5.6242701  -5.6242621  -0.5790117
            7           8           9          10          11          12
    1  -0.2413991  -0.1012037  -0.1011735   0.1839314   0.2522858   0.2637070
           13          14
    1   0.2637190   0.3113752
 Analysis of SCF Wavefunction
 
 --------------------------------------------------------------
                    Orbital Energies (a.u.)
 --------------------------------------------------------------
 
 Alpha MOs
 -- Occupied --
-87.637  -7.584  -5.632  -5.624  -5.624  -0.579  -0.241  -0.101
 -0.101
 -- Virtual --
  0.184   0.252   0.264   0.264   0.311   0.388   0.565   0.565
  0.576   0.593   0.593   0.704   0.729   0.729   0.887   1.137
  1.137   1.157   1.234   1.260   1.260   1.278   1.278   1.366
  1.366   1.401   1.401   1.525   1.588   1.588   1.866   2.181
  2.181   2.401   3.130   3.704   3.811   3.811   3.899   3.899
  3.914   3.914   4.361   4.361   4.667   4.941   4.944   4.961
  4.961   5.645   8.419  17.399  17.399  17.547  23.810  23.922
 23.922  23.923  24.068  31.298  31.298  31.303  31.303  31.305
 31.305  31.317 189.460
 --------------------------------------------------------------
 
          Ground-State Mulliken Net Atomic Charges

     Atom                 Charge (a.u.)
  ----------------------------------------
      1 S                    -1.042141
      2 H                     0.042141
  ----------------------------------------
  Sum of atomic charges =    -1.000000

 -----------------------------------------------------------------
                    Cartesian Multipole Moments
 -----------------------------------------------------------------
    Charge (ESU x 10^10)
                -4.8032
    Dipole Moment (Debye)
         X      -0.0002      Y       0.0003      Z       0.3397
       Tot       0.3397
    Quadrupole Moments (Debye-Ang)
        XX     -21.5200     XY      -0.0019     YY     -21.5199
        XZ       0.0000     YZ       0.0000     ZZ     -17.1425
    Octapole Moments (Debye-Ang^2)
       XXX      -0.0007    XXY       0.0005    XYY      -0.0002
       YYY       0.0014    XXZ      -1.3139    XYZ      -0.0001
       YYZ      -1.3139    XZZ      -0.0008    YZZ       0.0016
       ZZZ      -3.5041
    Hexadecapole Moments (Debye-Ang^3)
      XXXX     -49.8388   XXXY      -0.0096   XXYY     -16.6129
      XYYY      -0.0096   YYYY     -49.8382   XXXZ      -0.0002
      XXYZ       0.0002   XYYZ      -0.0001   YYYZ       0.0005
      XXZZ     -15.4068   XYZZ      -0.0032   YYZZ     -15.4067
      XZZZ      -0.0006   YZZZ       0.0012   ZZZZ     -40.2200
 -----------------------------------------------------------------
 Total job time:  15.56s(wall), 8.49s(cpu) 
 Mon Nov 14 19:01:38 2011

        *************************************************************
        *                                                           *
        *  Thank you very much for using Q-Chem.  Have a nice day.  *
        *                                                           *
        *************************************************************


0 sent ACK to 0 
now end server 0 ... 
 
**********************************************************************
Job 2 of 3 
**********************************************************************
 
Process 0 of 1 is on cl192.stfx.acenet.ca - thread support 1
initial socket setup ...start
initial socket setup ...done 
now start server 0 ... 

cmd = /usr/bin/ssh clhead /usr/local/qchem/bin/get_hostid 1950989707 > /scratch/tmp/4825513.1.medium.q/qchem26651/lic.dat
                  Welcome to Q-Chem
     A Quantum Leap Into The Future Of Chemistry

 Y. Shao, L. Fusti-Molnar, Y. Jung, J. Kussmann, C. Ochsenfeld,
 S. T. Brown, A. T. B. Gilbert, L. V. Slipchenko,S. V. Levchenko,
 D. P. O'Neill, R. A. DiStasio Jr., R. C. Lochan, T. Wang,
 G. J. O. Beran, N. A. Besley, J. M. Herbert, C. Y. Lin,
 T. Van Voorhis, S. H. Chien, A. Sodt, R. P. Steele, 
 V. A. Rassolov, P. E. Maslen, P. P. Korambath, R. D. Adamson,
 B. Austin, J. Baker, E. F. C. Byrd, H. Dachsel, R. J. Doerksen,
 A. Dreuw, B. D. Dunietz, A. D. Dutoi, T. R. Furlani,
 S. R. Gwaltney, A. Heyden, S. Hirata, C.-P. Hsu, G. Kedziora,
 R. Z. Khaliullin, P. Klunzinger, A. M. Lee, M. S. Lee, W. Liang,
 I. Lotan, N. Nair, B. Peters, E. I. Proynov, P. A. Pieniazek, 
 Y. M. Rhee, J. Ritchie, E. Rosta, C. D. Sherrill, 
 A. C. Simmonett, J. E. Subotnik, H. L. Woodcock III,
 W. Zhang, A. T. Bell, A. K. Chakraborty, D. M. Chipman,
 F. J. Keil, A. Warshel, W. J. Hehre, H. F. Schaefer III,
 J. Kong, A. I. Krylov, P. M. W. Gill, M. Head-Gordon,
 Q-Chem, Version 3.1, Q-Chem, Inc., Pittsburgh, PA (2007).

 Additional authors for Version 3.1: 
 Z. Gan, Y. Zhao, N. E. Schultz, D. Truhlar, E. Epifanovsky and M. Oana.

 Additional authors for Version 3.2: 
 R. Baer, B. R. Brooks, D. Casanova, J.-D. Chai, C.-L. Cheng, 
 C. Cramer, D. Crittenden, A. Ghysels, G. Hawkins, E. G. Hohenstein, 
 C. Kelley, W. Kurlancheek, D. Liotard, E. Livshits, P. Manohar, 
 A. Marenich, D. Neuhauser, R. Olson, M. A. Rohrdanz, K. S. Thanthiriwatte, 
 A. J. W. Thom, V. Vanovschi, C. F. Williams, Q. Wu and Z.-Q. You. 


 Intel X86 Linux Version

 Q-chem begins on Mon Nov 14 19:01:41 2011  

 Parallel job on  1  processors
Processing $rem in /usr/local/qchem/config/preferences.

theFileMan(): MAXOPENFILES=974 MAX_SUB_FILE_NUM=16
Maximum size of a physical file is 2.0 GB, maximum size of a tmp-file is 32.0 GB


--------------------------------------------------------------
User input:
--------------------------------------------------------------

$molecule
0,2
S
H,1,R

R=1.35543613

$end

$comment
neutral
$end

$xc_functional
   X HF 1.0
   X BNL 1.0
   C LYP 1.0
$end

$rem
SYMMETRY_DECOMPOSITION	0
exchange 		general
BASIS                   g3large
omega			470
separate_jk		true
mem_static              760
max_scf_cycles          200
scf_final_print         1
sym_ignore              true
$end

--------------------------------------------------------------
 Writing REM_CC_EA            2
 ----------------------------------------------------
       Standard Nuclear Orientation (Angstroms)
    I     Atom         X            Y            Z
 ----------------------------------------------------
    1      S       0.000000     0.000000     0.000000
    2      H       0.000000     0.000000     1.355436
 ----------------------------------------------------
 Nuclear Repulsion Energy =     6.2465764232 hartrees
 There are        9 alpha and        8 beta electrons
 Requested basis set is G3large
 There are 25 shells and 76 basis functions

Total QAlloc Memory Limit   2000 MB
Mega-Array Size       743 MB
MEM_STATIC part       760 MB

                       Distance Matrix (Angstroms)
             S (  1)
   H (  2)  1.355436
 
 A cutoff of  1.0D-08 yielded    325 shell pairs
 There are   3056 function pairs (  4227 Cartesian)
Evaluating contribution to one-electron hamiltonian from nuclear
 Smallest overlap matrix eigenvalue = 3.71E-03
 Multipole matrices computed through 2nd order

  Scale SEOQF with 1.000000e-01/1.000000e-01/1.000000e-01

 Standard Electronic Orientation quadrupole field applied
 Nucleus-field energy     =    -0.0000000002 hartrees
 Guess from superposition of atomic densities
 Warning:  Energy on first SCF cycle will be non-variational
 An unrestricted hybrid HF-DFT SCF calculation will be
 performed using Pulay DIIS extrapolation
 Exchange:     1.0000 Hartree-Fock + 1.0000 BNL
 Correlation:  1.0000 LYP
 Using SG-1 standard quadrature grid
 SCF converges when DIIS error is below 1.0E-05
 ---------------------------------------
  Cycle       Energy         DIIS Error
 ---------------------------------------
    1    -396.8720923763      3.10E-02
    2    -397.0274606586      2.54E-03
    3    -397.0352421289      1.16E-03
    4    -397.0361578500      2.01E-04
    5    -397.0362930596      6.74E-05
    6    -397.0363149410      2.06E-05
    7    -397.0363169020      5.26E-06 Convergence criterion met
 ---------------------------------------
 One-Electron    Energy =  -562.4973273950
 Total Coulomb   Energy =   183.4467342256
 Alpha Exchange  Energy =    -2.1101796661
 Beta  Exchange  Energy =    -1.8998352977
 DFT   Exchange  Energy =   -19.5549975579
 DFT Correlation Energy =    -0.6672876338
 Nuclear Repu.   Energy =     6.2465764230
 Nuclear Attr.   Energy =  -958.8066413660
 Kinetic         Energy =   396.3093139710
 <S^2> = 0.7543
 SCF time:  CPU 9.20 s  wall 17.02 s
 Final Alpha MO Eigenvalues
            1           2           3           4           5           6
    1 -87.9675020  -7.9133973  -5.9657407  -5.9567710  -5.9475432  -0.9024963
            7           8           9          10          11          12
    1  -0.5365468  -0.4482087  -0.3999600   0.0347914   0.0920953   0.0974310
           13          14
    1   0.1019353   0.1187941
 Final Beta MO Eigenvalues
            1           2           3           4           5           6
    1 -87.9619285  -7.9074852  -5.9527931  -5.9527649  -5.9426692  -0.8526326
            7           8           9          10          11          12
    1  -0.5222571  -0.3851991  -0.0738237   0.0352909   0.0918230   0.1022696
           13
    1   0.1041997
 Analysis of SCF Wavefunction
 
 --------------------------------------------------------------
                    Orbital Energies (a.u.)
 --------------------------------------------------------------
 
 Alpha MOs
 -- Occupied --
-87.968  -7.913  -5.966  -5.957  -5.948  -0.902  -0.537  -0.448
 -0.400
 -- Virtual --
  0.035   0.092   0.097   0.102   0.119   0.170   0.286   0.307
  0.314   0.316   0.349   0.470   0.471   0.491   0.634   0.863
  0.879   0.879   0.964   0.980   0.980   0.991   0.992   1.047
  1.076   1.080   1.082   1.256   1.314   1.331   1.588   1.855
  1.890   2.113   2.858   3.401   3.483   3.511   3.569   3.571
  3.573   3.574   4.073   4.084   4.373   4.609   4.612   4.627
  4.650   5.331   8.095  17.057  17.077  17.224  23.476  23.587
 23.589  23.601  23.742  30.967  30.970  30.971  30.973  30.975
 30.985  30.995 189.131
 
 Beta MOs
 -- Occupied --
-87.962  -7.907  -5.953  -5.953  -5.943  -0.853  -0.522  -0.385
 -- Virtual --
 -0.074   0.035   0.092   0.102   0.104   0.122   0.174   0.310
  0.317   0.344   0.347   0.354   0.474   0.492   0.495   0.638
  0.872   0.881   0.892   0.973   0.990   0.992   1.006   1.007
  1.075   1.082   1.110   1.110   1.263   1.323   1.334   1.596
  1.887   1.899   2.119   2.857   3.415   3.512   3.519   3.598
  3.599   3.611   3.612   4.079   4.083   4.379   4.626   4.629
  4.644   4.654   5.342   8.106  17.074  17.085  17.228  23.487
 23.598  23.600  23.604  23.748  30.972  30.974  30.977  30.978
 30.979  30.987  30.997 189.137
 --------------------------------------------------------------
 
          Ground-State Mulliken Net Atomic Charges

     Atom                 Charge (a.u.)    Spin (a.u.)
  --------------------------------------------------------
      1 S                    -0.137061       1.016518
      2 H                     0.137061      -0.016518
  --------------------------------------------------------
  Sum of atomic charges =     0.000000
  Sum of spin   charges =     1.000000

 -----------------------------------------------------------------
                    Cartesian Multipole Moments
 -----------------------------------------------------------------
    Charge (ESU x 10^10)
                 0.0000
    Dipole Moment (Debye)
         X       0.0002      Y       0.0003      Z       0.8857
       Tot       0.8857
    Quadrupole Moments (Debye-Ang)
        XX     -14.5492     XY       1.3616     YY     -14.5723
        XZ      -0.0010     YZ      -0.0010     ZZ     -11.9176
    Octapole Moments (Debye-Ang^2)
       XXX       0.0003    XXY       0.0002    XYY       0.0001
       YYY       0.0004    XXZ      -1.0682    XYZ       0.0741
       YYZ      -1.0695    XZZ      -0.0005    YZZ       0.0000
       ZZZ      -0.9083
    Hexadecapole Moments (Debye-Ang^3)
      XXXX     -20.6175   XXXY       1.9172   XXYY      -6.8739
      XYYY       1.9169   YYYY     -20.6827   XXXZ      -0.0012
      XXYZ      -0.0004   XYYZ      -0.0004   YYYZ      -0.0012
      XXZZ      -7.7547   XYZZ       0.6774   YYZZ      -7.7662
      XZZZ      -0.0017   YZZZ      -0.0014   ZZZZ     -20.8431
 -----------------------------------------------------------------
 Total job time:  17.17s(wall), 9.28s(cpu) 
 Mon Nov 14 19:01:58 2011

        *************************************************************
        *                                                           *
        *  Thank you very much for using Q-Chem.  Have a nice day.  *
        *                                                           *
        *************************************************************


0 sent ACK to 0 
now end server 0 ... 
 
**********************************************************************
Job 3 of 3 
**********************************************************************
 
Process 0 of 1 is on cl192.stfx.acenet.ca - thread support 1
initial socket setup ...start
initial socket setup ...done 
now start server 0 ... 

cmd = /usr/bin/ssh clhead /usr/local/qchem/bin/get_hostid 1232771321 > /scratch/tmp/4825513.1.medium.q/qchem26651/lic.dat
                  Welcome to Q-Chem
     A Quantum Leap Into The Future Of Chemistry

 Y. Shao, L. Fusti-Molnar, Y. Jung, J. Kussmann, C. Ochsenfeld,
 S. T. Brown, A. T. B. Gilbert, L. V. Slipchenko,S. V. Levchenko,
 D. P. O'Neill, R. A. DiStasio Jr., R. C. Lochan, T. Wang,
 G. J. O. Beran, N. A. Besley, J. M. Herbert, C. Y. Lin,
 T. Van Voorhis, S. H. Chien, A. Sodt, R. P. Steele, 
 V. A. Rassolov, P. E. Maslen, P. P. Korambath, R. D. Adamson,
 B. Austin, J. Baker, E. F. C. Byrd, H. Dachsel, R. J. Doerksen,
 A. Dreuw, B. D. Dunietz, A. D. Dutoi, T. R. Furlani,
 S. R. Gwaltney, A. Heyden, S. Hirata, C.-P. Hsu, G. Kedziora,
 R. Z. Khaliullin, P. Klunzinger, A. M. Lee, M. S. Lee, W. Liang,
 I. Lotan, N. Nair, B. Peters, E. I. Proynov, P. A. Pieniazek, 
 Y. M. Rhee, J. Ritchie, E. Rosta, C. D. Sherrill, 
 A. C. Simmonett, J. E. Subotnik, H. L. Woodcock III,
 W. Zhang, A. T. Bell, A. K. Chakraborty, D. M. Chipman,
 F. J. Keil, A. Warshel, W. J. Hehre, H. F. Schaefer III,
 J. Kong, A. I. Krylov, P. M. W. Gill, M. Head-Gordon,
 Q-Chem, Version 3.1, Q-Chem, Inc., Pittsburgh, PA (2007).

 Additional authors for Version 3.1: 
 Z. Gan, Y. Zhao, N. E. Schultz, D. Truhlar, E. Epifanovsky and M. Oana.

 Additional authors for Version 3.2: 
 R. Baer, B. R. Brooks, D. Casanova, J.-D. Chai, C.-L. Cheng, 
 C. Cramer, D. Crittenden, A. Ghysels, G. Hawkins, E. G. Hohenstein, 
 C. Kelley, W. Kurlancheek, D. Liotard, E. Livshits, P. Manohar, 
 A. Marenich, D. Neuhauser, R. Olson, M. A. Rohrdanz, K. S. Thanthiriwatte, 
 A. J. W. Thom, V. Vanovschi, C. F. Williams, Q. Wu and Z.-Q. You. 


 Intel X86 Linux Version

 Q-chem begins on Mon Nov 14 19:02:01 2011  

 Parallel job on  1  processors
Processing $rem in /usr/local/qchem/config/preferences.

theFileMan(): MAXOPENFILES=974 MAX_SUB_FILE_NUM=16
Maximum size of a physical file is 2.0 GB, maximum size of a tmp-file is 32.0 GB


--------------------------------------------------------------
User input:
--------------------------------------------------------------

$molecule
1,3
S
H,1,R

R=1.35543613

$end

$comment
positive
$end

$xc_functional
   X HF 1.0
   X BNL 1.0
   C LYP 1.0
$end

$rem
SYMMETRY_DECOMPOSITION	0
exchange 		general
BASIS                   g3large
omega			470
separate_jk		true
mem_static              760
max_scf_cycles          200
scf_final_print         1
sym_ignore              true
$end

--------------------------------------------------------------
 Writing REM_CC_EA            2
 ----------------------------------------------------
       Standard Nuclear Orientation (Angstroms)
    I     Atom         X            Y            Z
 ----------------------------------------------------
    1      S       0.000000     0.000000     0.000000
    2      H       0.000000     0.000000     1.355436
 ----------------------------------------------------
 Nuclear Repulsion Energy =     6.2465764232 hartrees
 There are        9 alpha and        7 beta electrons
 Requested basis set is G3large
 There are 25 shells and 76 basis functions

Total QAlloc Memory Limit   2000 MB
Mega-Array Size       743 MB
MEM_STATIC part       760 MB

                       Distance Matrix (Angstroms)
             S (  1)
   H (  2)  1.355436
 
 A cutoff of  1.0D-08 yielded    325 shell pairs
 There are   3056 function pairs (  4227 Cartesian)
Evaluating contribution to one-electron hamiltonian from nuclear
 Smallest overlap matrix eigenvalue = 3.71E-03
 Multipole matrices computed through 2nd order

  Scale SEOQF with 1.000000e-01/1.000000e-01/1.000000e-01

 Standard Electronic Orientation quadrupole field applied
 Nucleus-field energy     =    -0.0000000002 hartrees
 Guess from superposition of atomic densities
 Warning:  Energy on first SCF cycle will be non-variational
 An unrestricted hybrid HF-DFT SCF calculation will be
 performed using Pulay DIIS extrapolation
 Exchange:     1.0000 Hartree-Fock + 1.0000 BNL
 Correlation:  1.0000 LYP
 Using SG-1 standard quadrature grid
 SCF converges when DIIS error is below 1.0E-05
 Warning!  Inaccurate integrated density:
   Number of electrons =    16
   Numerical integral  =    17.000017771455
   Relative error      =     6.2501110716 %
 ---------------------------------------
  Cycle       Energy         DIIS Error
 ---------------------------------------
    1    -396.8720923763      3.10E-02
    2    -396.5989958217      6.29E-03
    3    -396.6477528488      3.03E-03
    4    -396.6506063744      4.14E-04
    5    -396.6509748160      1.08E-04
    6    -396.6510567958      4.83E-05
    7    -396.6510825719      2.94E-05
    8    -396.6510961151      1.22E-05
    9    -396.6510986197      2.08E-06 Convergence criterion met
 ---------------------------------------
 One-Electron    Energy =  -555.9588574568
 Total Coulomb   Energy =   177.0075195141
 Alpha Exchange  Energy =    -2.1345407120
 Beta  Exchange  Energy =    -1.7056998295
 DFT   Exchange  Energy =   -19.4773269617
 DFT Correlation Energy =    -0.6287695967
 Nuclear Repu.   Energy =     6.2465764230
 Nuclear Attr.   Energy =  -951.9479624730
 Kinetic         Energy =   395.9891050161
 <S^2> = 2.0056
 SCF time:  CPU 11.94 s  wall 21.09 s
 Final Alpha MO Eigenvalues
            1           2           3           4           5           6
    1 -88.3828791  -8.3222343  -6.3707342  -6.3707336  -6.3601477  -1.2832444
            7           8           9          10          11          12
    1  -0.8825198  -0.8027190  -0.8027186  -0.1829941  -0.1169851  -0.0801816
           13          14
    1  -0.0730452  -0.0730445
 Final Beta MO Eigenvalues
            1           2           3           4           5           6
    1 -88.3702008  -8.3088709  -6.3511003  -6.3505823  -6.3505817  -1.1787986
            7           8           9          10          11          12
    1  -0.8522440  -0.3905423  -0.3905402  -0.1687011  -0.1139521  -0.0805690
 Analysis of SCF Wavefunction
 
 --------------------------------------------------------------
                    Orbital Energies (a.u.)
 --------------------------------------------------------------
 
 Alpha MOs
 -- Occupied --
-88.383  -8.322  -6.371  -6.371  -6.360  -1.283  -0.883  -0.803
 -0.803
 -- Virtual --
 -0.183  -0.117  -0.080  -0.073  -0.073  -0.014  -0.008  -0.008
  0.003   0.003   0.112   0.223   0.223   0.227   0.359   0.572
  0.576   0.576   0.665   0.669   0.669   0.674   0.674   0.708
  0.708   0.710   0.710   0.959   1.031   1.031   1.273   1.517
  1.517   1.780   2.549   3.048   3.126   3.126   3.163   3.163
  3.176   3.176   3.753   3.753   4.028   4.205   4.208   4.249
  4.249   4.954   7.697  16.655  16.655  16.823  23.060  23.174
 23.186  23.186  23.337  30.557  30.557  30.567  30.568  30.572
 30.572  30.589 188.717
 
 Beta MOs
 -- Occupied --
-88.370  -8.309  -6.351  -6.351  -6.351  -1.179  -0.852
 -- Virtual --
 -0.391  -0.391  -0.169  -0.114  -0.081  -0.071  -0.071  -0.013
  0.026   0.026   0.061   0.061   0.122   0.230   0.240   0.240
  0.364   0.585   0.585   0.594   0.679   0.689   0.689   0.698
  0.698   0.744   0.744   0.769   0.769   0.972   1.040   1.040
  1.288   1.559   1.559   1.793   2.546   3.076   3.166   3.166
  3.239   3.239   3.249   3.249   3.758   3.758   4.039   4.242
  4.245   4.272   4.272   4.978   7.723  16.683  16.683  16.833
 23.086  23.199  23.203  23.203  23.352  30.568  30.568  30.576
 30.577  30.580  30.580  30.596 188.731
 --------------------------------------------------------------
 
          Ground-State Mulliken Net Atomic Charges

     Atom                 Charge (a.u.)    Spin (a.u.)
  --------------------------------------------------------
      1 S                     0.766945       2.032615
      2 H                     0.233055      -0.032615
  --------------------------------------------------------
  Sum of atomic charges =     1.000000
  Sum of spin   charges =     2.000000

 -----------------------------------------------------------------
                    Cartesian Multipole Moments
 -----------------------------------------------------------------
    Charge (ESU x 10^10)
                 4.8032
    Dipole Moment (Debye)
         X       0.0000      Y       0.0000      Z       1.5569
       Tot       1.5569
    Quadrupole Moments (Debye-Ang)
        XX     -10.2814     XY       0.0000     YY     -10.2814
        XZ       0.0000     YZ       0.0000     ZZ      -8.1206
    Octapole Moments (Debye-Ang^2)
       XXX       0.0000    XXY       0.0000    XYY       0.0000
       YYY       0.0000    XXZ      -0.7999    XYZ       0.0000
       YYZ      -0.7999    XZZ       0.0000    YZZ       0.0000
       ZZZ       1.5248
    Hexadecapole Moments (Debye-Ang^3)
      XXXX     -10.3920   XXXY       0.0000   XXYY      -3.4640
      XYYY       0.0000   YYYY     -10.3920   XXXZ       0.0000
      XXYZ       0.0000   XYYZ       0.0000   YYYZ       0.0000
      XXZZ      -4.6916   XYZZ       0.0000   YYZZ      -4.6916
      XZZZ       0.0000   YZZZ       0.0000   ZZZZ     -10.4565
 -----------------------------------------------------------------
 Total job time:  21.23s(wall), 12.03s(cpu) 
 Mon Nov 14 19:02:22 2011

        *************************************************************
        *                                                           *
        *  Thank you very much for using Q-Chem.  Have a nice day.  *
        *                                                           *
        *************************************************************


0 sent ACK to 0 
now end server 0 ... 
