Process 0 of 1 is on cl026.stfx.acenet.ca - thread support 1
initial socket setup ...start
initial socket setup ...done 
now start server 0 ... 

cmd = /usr/bin/ssh clhead /usr/local/qchem/bin/get_hostid 311592204 > /scratch/tmp/4825391.1.short.q/qchem18601/lic.dat
                  Welcome to Q-Chem
     A Quantum Leap Into The Future Of Chemistry

 Y. Shao, L. Fusti-Molnar, Y. Jung, J. Kussmann, C. Ochsenfeld,
 S. T. Brown, A. T. B. Gilbert, L. V. Slipchenko,S. V. Levchenko,
 D. P. O'Neill, R. A. DiStasio Jr., R. C. Lochan, T. Wang,
 G. J. O. Beran, N. A. Besley, J. M. Herbert, C. Y. Lin,
 T. Van Voorhis, S. H. Chien, A. Sodt, R. P. Steele, 
 V. A. Rassolov, P. E. Maslen, P. P. Korambath, R. D. Adamson,
 B. Austin, J. Baker, E. F. C. Byrd, H. Dachsel, R. J. Doerksen,
 A. Dreuw, B. D. Dunietz, A. D. Dutoi, T. R. Furlani,
 S. R. Gwaltney, A. Heyden, S. Hirata, C.-P. Hsu, G. Kedziora,
 R. Z. Khaliullin, P. Klunzinger, A. M. Lee, M. S. Lee, W. Liang,
 I. Lotan, N. Nair, B. Peters, E. I. Proynov, P. A. Pieniazek, 
 Y. M. Rhee, J. Ritchie, E. Rosta, C. D. Sherrill, 
 A. C. Simmonett, J. E. Subotnik, H. L. Woodcock III,
 W. Zhang, A. T. Bell, A. K. Chakraborty, D. M. Chipman,
 F. J. Keil, A. Warshel, W. J. Hehre, H. F. Schaefer III,
 J. Kong, A. I. Krylov, P. M. W. Gill, M. Head-Gordon,
 Q-Chem, Version 3.1, Q-Chem, Inc., Pittsburgh, PA (2007).

 Additional authors for Version 3.1: 
 Z. Gan, Y. Zhao, N. E. Schultz, D. Truhlar, E. Epifanovsky and M. Oana.

 Additional authors for Version 3.2: 
 R. Baer, B. R. Brooks, D. Casanova, J.-D. Chai, C.-L. Cheng, 
 C. Cramer, D. Crittenden, A. Ghysels, G. Hawkins, E. G. Hohenstein, 
 C. Kelley, W. Kurlancheek, D. Liotard, E. Livshits, P. Manohar, 
 A. Marenich, D. Neuhauser, R. Olson, M. A. Rohrdanz, K. S. Thanthiriwatte, 
 A. J. W. Thom, V. Vanovschi, C. F. Williams, Q. Wu and Z.-Q. You. 


 Intel X86 Linux Version

 Q-chem begins on Mon Nov 14 15:39:53 2011  

 Parallel job on  1  processors
Processing $rem in /usr/local/qchem/config/preferences.

theFileMan(): MAXOPENFILES=974 MAX_SUB_FILE_NUM=16
Maximum size of a physical file is 2.0 GB, maximum size of a tmp-file is 32.0 GB


--------------------------------------------------------------
User input:
--------------------------------------------------------------

$molecule
-1,1
C
O,1,CO
H,1,CH1,2,A1
X,1,1.,2,X1,3,180.,0
H,1,CH2,4,HCX,2,90.,0
H,1,CH2,4,HCX,2,-90.,0

CO=1.36931862
CH1=1.11032167
CH2=1.10308272
A1=105.20448108
X1=134.83566105
HCX=55.47841476

$end

$comment
negative
$end

$xc_functional
   X HF 1.0
   X BNL 1.0
   C LYP 1.0
$end

$rem
SYMMETRY_DECOMPOSITION	0
exchange 		general
BASIS                   g3large
omega			600
separate_jk		true
mem_static              760
max_scf_cycles          200
scf_final_print         1
sym_ignore              true
$end

--------------------------------------------------------------
 Writing REM_CC_EA            5
 ----------------------------------------------------
       Standard Nuclear Orientation (Angstroms)
    I     Atom         X            Y            Z
 ----------------------------------------------------
    1      C       0.000000     0.000000     0.000000
    2      O       0.000000     0.000000     1.369319
    3      H       1.071456     0.000000    -0.291198
    4      H      -0.443304    -0.908844    -0.440768
    5      H      -0.443304     0.908844    -0.440768
 ----------------------------------------------------
 Nuclear Repulsion Energy =    34.2799471363 hartrees
 There are        9 alpha and        9 beta electrons
 Requested basis set is G3large
 There are 38 shells and 114 basis functions

Total QAlloc Memory Limit   2000 MB
Mega-Array Size       743 MB
MEM_STATIC part       760 MB

                       Distance Matrix (Angstroms)
             C (  1)   O (  2)   H (  3)   H (  4)
   O (  2)  1.369319
   H (  3)  1.110322  1.976192
   H (  4)  1.103083  2.073386  1.772813
   H (  5)  1.103083  2.073386  1.772813  1.817688
 
 A cutoff of  1.0D-08 yielded    737 shell pairs
 There are   6665 function pairs (  8172 Cartesian)
Evaluating contribution to one-electron hamiltonian from nuclear
 Smallest overlap matrix eigenvalue = 8.35E-04
 Multipole matrices computed through 2nd order

  Scale SEOQF with 1.000000e-01/1.000000e-01/1.000000e-01

 Standard Electronic Orientation quadrupole field applied
 Nucleus-field energy     =    -0.0000000015 hartrees
 Guess from superposition of atomic densities
 Warning:  Energy on first SCF cycle will be non-variational
 A restricted hybrid HF-DFT SCF calculation will be
 performed using Pulay DIIS extrapolation
 Exchange:     1.0000 Hartree-Fock + 1.0000 BNL
 Correlation:  1.0000 LYP
 Using SG-1 standard quadrature grid
 SCF converges when DIIS error is below 1.0E-05
 Warning!  Inaccurate integrated density:
   Number of electrons =    18
   Numerical integral  =    17.000055276793
   Relative error      =    -5.5552484623 %
 ---------------------------------------
  Cycle       Energy         DIIS Error
 ---------------------------------------
    1    -114.1996374409      3.78E-02
    2    -113.9369458966      1.06E-02
    3    -113.9205653400      1.25E-02
    4    -114.0988300848      5.86E-04
    5    -114.0996231945      2.24E-04
    6    -114.0997535235      8.83E-05
    7    -114.0997759919      2.31E-05
    8    -114.0997799213      5.96E-06 Convergence criterion met
 ---------------------------------------
 One-Electron    Energy =  -229.5777295990
 Total Coulomb   Energy =    95.4559245324
 Alpha Exchange  Energy =    -2.4285982219
 Beta  Exchange  Energy =    -2.4285982219
 DFT   Exchange  Energy =    -8.8062332118
 DFT Correlation Energy =    -0.5944923338
 Nuclear Repu.   Energy =    34.2799471348
 Nuclear Attr.   Energy =  -343.1552850851
 Kinetic         Energy =   113.5775554860
 SCF time:  CPU 20.44 s  wall 44.96 s
 Final Alpha MO Eigenvalues
            1           2           3           4           5           6
    1 -18.5185772  -9.8806447  -0.8557298  -0.5741994  -0.3504408  -0.3401700
            7           8           9          10          11          12
    1  -0.2500185  -0.0943540  -0.0883049   0.1633683   0.1926192   0.1968343
           13          14
    1   0.2513030   0.2977203
 Analysis of SCF Wavefunction
 
 --------------------------------------------------------------
                    Orbital Energies (a.u.)
 --------------------------------------------------------------
 
 Alpha MOs
 -- Occupied --
-18.519  -9.881  -0.856  -0.574  -0.350  -0.340  -0.250  -0.094
 -0.088
 -- Virtual --
  0.163   0.193   0.197   0.251   0.298   0.304   0.324   0.441
  0.448   0.450   0.502   0.507   0.512   0.573   0.678   0.734
  0.757   0.872   0.876   0.897   0.957   0.959   0.989   1.140
  1.211   1.332   1.368   1.392   1.394   1.406   1.486   1.551
  1.555   1.644   1.666   1.721   1.789   1.792   1.861   1.991
  2.141   2.155   2.428   2.509   2.770   2.805   2.864   2.907
  3.343   3.433   3.504   3.518   3.526   3.556   3.699   3.756
  3.832   3.851   3.921   4.066   4.177   4.198   4.306   4.546
  4.571   4.668   4.688   4.734   4.789   5.272   5.475   5.487
  5.616   5.653   5.732   5.792   5.807   6.010   6.035   6.386
  6.392   7.010   7.364   7.372   7.741   7.754   8.058  24.842
 28.375  28.454  28.465  41.286  41.363  41.552  41.582  41.635
 44.150  44.232  44.339  44.345  44.351  46.232  46.238  46.774
 50.553
 --------------------------------------------------------------
 
          Ground-State Mulliken Net Atomic Charges

     Atom                 Charge (a.u.)
  ----------------------------------------
      1 C                    -0.131075
      2 O                    -0.853139
      3 H                     0.001042
      4 H                    -0.008441
      5 H                    -0.008388
  ----------------------------------------
  Sum of atomic charges =    -1.000000

 -----------------------------------------------------------------
                    Cartesian Multipole Moments
 -----------------------------------------------------------------
    Charge (ESU x 10^10)
                -4.8032
    Dipole Moment (Debye)
         X      -0.0038      Y       0.0003      Z      -5.9953
       Tot       5.9953
    Quadrupole Moments (Debye-Ang)
        XX     -17.0359     XY      -0.0002     YY     -16.8282
        XZ       0.2085     YZ      -0.0002     ZZ     -27.3065
    Octapole Moments (Debye-Ang^2)
       XXX      -0.6533    XXY       0.0002    XYY      -0.1578
       YYY       0.0006    XXZ      -9.1751    XYZ      -0.0004
       YYZ      -9.3484    XZZ       0.0008    YZZ       0.0011
       ZZZ     -41.6043
    Hexadecapole Moments (Debye-Ang^3)
      XXXX     -31.8222   XXXY      -0.0004   XXYY     -10.6456
      XYYY       0.0000   YYYY     -31.6698   XXXZ       0.7153
      XXYZ      -0.0003   XYYZ      -0.3869   YYYZ      -0.0008
      XXZZ     -26.1906   XYZZ      -0.0006   YYZZ     -26.1881
      XZZZ       0.3226   YZZZ      -0.0001   ZZZZ    -131.6272
 -----------------------------------------------------------------
 Total job time:  45.18s(wall), 20.55s(cpu) 
 Mon Nov 14 15:40:38 2011

        *************************************************************
        *                                                           *
        *  Thank you very much for using Q-Chem.  Have a nice day.  *
        *                                                           *
        *************************************************************


0 sent ACK to 0 
now end server 0 ... 
 
**********************************************************************
Job 2 of 3 
**********************************************************************
 
Process 0 of 1 is on cl026.stfx.acenet.ca - thread support 1
initial socket setup ...start
initial socket setup ...done 
now start server 0 ... 

cmd = /usr/bin/ssh clhead /usr/local/qchem/bin/get_hostid 1516868947 > /scratch/tmp/4825391.1.short.q/qchem18601/lic.dat
                  Welcome to Q-Chem
     A Quantum Leap Into The Future Of Chemistry

 Y. Shao, L. Fusti-Molnar, Y. Jung, J. Kussmann, C. Ochsenfeld,
 S. T. Brown, A. T. B. Gilbert, L. V. Slipchenko,S. V. Levchenko,
 D. P. O'Neill, R. A. DiStasio Jr., R. C. Lochan, T. Wang,
 G. J. O. Beran, N. A. Besley, J. M. Herbert, C. Y. Lin,
 T. Van Voorhis, S. H. Chien, A. Sodt, R. P. Steele, 
 V. A. Rassolov, P. E. Maslen, P. P. Korambath, R. D. Adamson,
 B. Austin, J. Baker, E. F. C. Byrd, H. Dachsel, R. J. Doerksen,
 A. Dreuw, B. D. Dunietz, A. D. Dutoi, T. R. Furlani,
 S. R. Gwaltney, A. Heyden, S. Hirata, C.-P. Hsu, G. Kedziora,
 R. Z. Khaliullin, P. Klunzinger, A. M. Lee, M. S. Lee, W. Liang,
 I. Lotan, N. Nair, B. Peters, E. I. Proynov, P. A. Pieniazek, 
 Y. M. Rhee, J. Ritchie, E. Rosta, C. D. Sherrill, 
 A. C. Simmonett, J. E. Subotnik, H. L. Woodcock III,
 W. Zhang, A. T. Bell, A. K. Chakraborty, D. M. Chipman,
 F. J. Keil, A. Warshel, W. J. Hehre, H. F. Schaefer III,
 J. Kong, A. I. Krylov, P. M. W. Gill, M. Head-Gordon,
 Q-Chem, Version 3.1, Q-Chem, Inc., Pittsburgh, PA (2007).

 Additional authors for Version 3.1: 
 Z. Gan, Y. Zhao, N. E. Schultz, D. Truhlar, E. Epifanovsky and M. Oana.

 Additional authors for Version 3.2: 
 R. Baer, B. R. Brooks, D. Casanova, J.-D. Chai, C.-L. Cheng, 
 C. Cramer, D. Crittenden, A. Ghysels, G. Hawkins, E. G. Hohenstein, 
 C. Kelley, W. Kurlancheek, D. Liotard, E. Livshits, P. Manohar, 
 A. Marenich, D. Neuhauser, R. Olson, M. A. Rohrdanz, K. S. Thanthiriwatte, 
 A. J. W. Thom, V. Vanovschi, C. F. Williams, Q. Wu and Z.-Q. You. 


 Intel X86 Linux Version

 Q-chem begins on Mon Nov 14 15:40:41 2011  

 Parallel job on  1  processors
Processing $rem in /usr/local/qchem/config/preferences.

theFileMan(): MAXOPENFILES=974 MAX_SUB_FILE_NUM=16
Maximum size of a physical file is 2.0 GB, maximum size of a tmp-file is 32.0 GB


--------------------------------------------------------------
User input:
--------------------------------------------------------------

$molecule
0,2
C
O,1,CO
H,1,CH1,2,A1
X,1,1.,2,X1,3,180.,0
H,1,CH2,4,HCX,2,90.,0
H,1,CH2,4,HCX,2,-90.,0

CO=1.36931862
CH1=1.11032167
CH2=1.10308272
A1=105.20448108
X1=134.83566105
HCX=55.47841476

$end

$comment
neutral
$end

$xc_functional
   X HF 1.0
   X BNL 1.0
   C LYP 1.0
$end

$rem
SYMMETRY_DECOMPOSITION	0
exchange 		general
BASIS                   g3large
omega			600
separate_jk		true
mem_static              760
max_scf_cycles          200
scf_final_print         1
sym_ignore              true
$end

--------------------------------------------------------------
 Writing REM_CC_EA            5
 ----------------------------------------------------
       Standard Nuclear Orientation (Angstroms)
    I     Atom         X            Y            Z
 ----------------------------------------------------
    1      C       0.000000     0.000000     0.000000
    2      O       0.000000     0.000000     1.369319
    3      H       1.071456     0.000000    -0.291198
    4      H      -0.443304    -0.908844    -0.440768
    5      H      -0.443304     0.908844    -0.440768
 ----------------------------------------------------
 Nuclear Repulsion Energy =    34.2799471363 hartrees
 There are        9 alpha and        8 beta electrons
 Requested basis set is G3large
 There are 38 shells and 114 basis functions

Total QAlloc Memory Limit   2000 MB
Mega-Array Size       743 MB
MEM_STATIC part       760 MB

                       Distance Matrix (Angstroms)
             C (  1)   O (  2)   H (  3)   H (  4)
   O (  2)  1.369319
   H (  3)  1.110322  1.976192
   H (  4)  1.103083  2.073386  1.772813
   H (  5)  1.103083  2.073386  1.772813  1.817688
 
 A cutoff of  1.0D-08 yielded    737 shell pairs
 There are   6665 function pairs (  8172 Cartesian)
Evaluating contribution to one-electron hamiltonian from nuclear
 Smallest overlap matrix eigenvalue = 8.35E-04
 Multipole matrices computed through 2nd order

  Scale SEOQF with 1.000000e-01/1.000000e-01/1.000000e-01

 Standard Electronic Orientation quadrupole field applied
 Nucleus-field energy     =    -0.0000000015 hartrees
 Guess from superposition of atomic densities
 Warning:  Energy on first SCF cycle will be non-variational
 An unrestricted hybrid HF-DFT SCF calculation will be
 performed using Pulay DIIS extrapolation
 Exchange:     1.0000 Hartree-Fock + 1.0000 BNL
 Correlation:  1.0000 LYP
 Using SG-1 standard quadrature grid
 SCF converges when DIIS error is below 1.0E-05
 ---------------------------------------
  Cycle       Energy         DIIS Error
 ---------------------------------------
    1    -114.1996374409      3.78E-02
    2    -113.9585745931      5.58E-03
    3    -113.9924062243      6.21E-03
    4    -114.0397986726      8.61E-04
    5    -114.0458996976      4.04E-04
    6    -114.0482705383      1.32E-04
    7    -114.0486752932      5.92E-05
    8    -114.0487623602      4.06E-05
    9    -114.0488120209      3.45E-05
   10    -114.0488741883      3.13E-05
   11    -114.0489268394      3.04E-05
   12    -114.0489994596      2.98E-05
   13    -114.0493417361      2.87E-05
   14    -114.0494427166      2.83E-05
   15    -114.0498071079      2.10E-05
   16    -114.0500780339      1.52E-04
   17    -114.0499682609      2.44E-04
   18    -114.0500276584      2.07E-04
   19    -114.0501246532      1.30E-04
   20    -114.0501792583      4.80E-05
   21    -114.0501881951      1.31E-05
   22    -114.0501888601      3.58E-07 Convergence criterion met
 ---------------------------------------
 One-Electron    Energy =  -224.0443026383
 Total Coulomb   Energy =    89.6895459079
 Alpha Exchange  Energy =    -2.4855803912
 Beta  Exchange  Energy =    -2.1863080136
 DFT   Exchange  Energy =    -8.7440187621
 DFT Correlation Energy =    -0.5594720976
 Nuclear Repu.   Energy =    34.2799471348
 Nuclear Attr.   Energy =  -337.4929735094
 Kinetic         Energy =   113.4486708711
 <S^2> = 0.7548
 SCF time:  CPU 68.50 s  wall 127.25 s
 Final Alpha MO Eigenvalues
            1           2           3           4           5           6
    1 -18.9455560 -10.1469210  -1.2401522  -0.8673398  -0.6636536  -0.6356507
            7           8           9          10          11          12
    1  -0.6089928  -0.4936268  -0.4543090   0.0315374   0.0645111   0.0646284
           13          14
    1   0.0825308   0.1324180
 Final Beta MO Eigenvalues
            1           2           3           4           5           6
    1 -18.9203504 -10.1478277  -1.1841554  -0.8437556  -0.6271124  -0.5910678
            7           8           9          10          11          12
    1  -0.5819660  -0.4298079  -0.0198695   0.0312896   0.0642564   0.0643286
           13
    1   0.0831356
 Analysis of SCF Wavefunction
 
 --------------------------------------------------------------
                    Orbital Energies (a.u.)
 --------------------------------------------------------------
 
 Alpha MOs
 -- Occupied --
-18.946 -10.147  -1.240  -0.867  -0.664  -0.636  -0.609  -0.494
 -0.454
 -- Virtual --
  0.032   0.065   0.065   0.083   0.132   0.138   0.162   0.231
  0.243   0.253   0.273   0.290   0.306   0.323   0.432   0.499
  0.520   0.637   0.646   0.656   0.706   0.708   0.725   0.883
  0.973   1.059   1.095   1.109   1.130   1.138   1.214   1.245
  1.254   1.366   1.393   1.437   1.536   1.547   1.610   1.652
  1.792   1.800   2.086   2.187   2.434   2.541   2.580   2.642
  3.076   3.148   3.233   3.242   3.257   3.276   3.428   3.470
  3.542   3.558   3.635   3.772   3.906   3.918   4.026   4.282
  4.300   4.387   4.413   4.458   4.517   4.966   5.026   5.099
  5.201   5.253   5.362   5.393   5.446   5.698   5.742   6.005
  6.038   6.650   6.918   6.926   7.302   7.368   7.663  24.574
 28.107  28.188  28.200  41.021  41.094  41.286  41.314  41.369
 43.697  43.781  43.888  43.925  43.929  45.782  45.822  46.359
 50.126
 
 Beta MOs
 -- Occupied --
-18.920 -10.148  -1.184  -0.844  -0.627  -0.591  -0.582  -0.430
 -- Virtual --
 -0.020   0.031   0.064   0.064   0.083   0.135   0.138   0.162
  0.233   0.244   0.253   0.293   0.296   0.309   0.329   0.438
  0.508   0.524   0.642   0.647   0.660   0.707   0.717   0.737
  0.885   0.976   1.068   1.101   1.117   1.144   1.152   1.234
  1.257   1.267   1.375   1.400   1.451   1.541   1.549   1.618
  1.679   1.826   1.840   2.120   2.196   2.453   2.545   2.594
  2.649   3.079   3.151   3.239   3.246   3.258   3.277   3.431
  3.474   3.543   3.568   3.639   3.779   3.907   3.925   4.031
  4.289   4.310   4.401   4.420   4.467   4.524   4.985   5.112
  5.131   5.255   5.299   5.397   5.452   5.464   5.716   5.753
  6.047   6.053   6.671   7.002   7.010   7.380   7.395   7.702
 24.573  28.106  28.187  28.199  41.020  41.093  41.285  41.313
 41.368  43.763  43.844  43.951  43.954  43.961  45.831  45.840
 46.377  50.157
 --------------------------------------------------------------
 
          Ground-State Mulliken Net Atomic Charges

     Atom                 Charge (a.u.)    Spin (a.u.)
  --------------------------------------------------------
      1 C                    -0.171693      -0.057518
      2 O                    -0.167881       0.923106
      3 H                     0.127675       0.094632
      4 H                     0.105950       0.019813
      5 H                     0.105949       0.019968
  --------------------------------------------------------
  Sum of atomic charges =     0.000000
  Sum of spin   charges =     1.000000

 -----------------------------------------------------------------
                    Cartesian Multipole Moments
 -----------------------------------------------------------------
    Charge (ESU x 10^10)
                 0.0000
    Dipole Moment (Debye)
         X       0.1901      Y       0.0001      Z      -2.2342
       Tot       2.2423
    Quadrupole Moments (Debye-Ang)
        XX     -11.7298     XY      -0.0003     YY     -12.8538
        XZ      -0.1083     YZ      -0.0001     ZZ     -16.4022
    Octapole Moments (Debye-Ang^2)
       XXX       0.7610    XXY       0.0000    XYY      -0.8077
       YYY       0.0001    XXZ      -6.3407    XYZ      -0.0003
       YYZ      -7.8658    XZZ      -0.2743    YZZ       0.0000
       ZZZ     -25.7333
    Hexadecapole Moments (Debye-Ang^3)
      XXXX     -17.0104   XXXY      -0.0002   XXYY      -6.3339
      XYYY      -0.0003   YYYY     -19.5244   XXXZ      -0.7704
      XXYZ       0.0000   XYYZ       0.2501   YYYZ      -0.0001
      XXZZ     -15.2336   XYZZ      -0.0007   YYZZ     -17.6629
      XZZZ      -0.4253   YZZZ      -0.0001   ZZZZ     -86.5888
 -----------------------------------------------------------------
 Total job time:  127.38s(wall), 68.62s(cpu) 
 Mon Nov 14 15:42:48 2011

        *************************************************************
        *                                                           *
        *  Thank you very much for using Q-Chem.  Have a nice day.  *
        *                                                           *
        *************************************************************


0 sent ACK to 0 
now end server 0 ... 
 
**********************************************************************
Job 3 of 3 
**********************************************************************
 
Process 0 of 1 is on cl026.stfx.acenet.ca - thread support 1
initial socket setup ...start
initial socket setup ...done 
now start server 0 ... 

cmd = /usr/bin/ssh clhead /usr/local/qchem/bin/get_hostid 1713244801 > /scratch/tmp/4825391.1.short.q/qchem18601/lic.dat
                  Welcome to Q-Chem
     A Quantum Leap Into The Future Of Chemistry

 Y. Shao, L. Fusti-Molnar, Y. Jung, J. Kussmann, C. Ochsenfeld,
 S. T. Brown, A. T. B. Gilbert, L. V. Slipchenko,S. V. Levchenko,
 D. P. O'Neill, R. A. DiStasio Jr., R. C. Lochan, T. Wang,
 G. J. O. Beran, N. A. Besley, J. M. Herbert, C. Y. Lin,
 T. Van Voorhis, S. H. Chien, A. Sodt, R. P. Steele, 
 V. A. Rassolov, P. E. Maslen, P. P. Korambath, R. D. Adamson,
 B. Austin, J. Baker, E. F. C. Byrd, H. Dachsel, R. J. Doerksen,
 A. Dreuw, B. D. Dunietz, A. D. Dutoi, T. R. Furlani,
 S. R. Gwaltney, A. Heyden, S. Hirata, C.-P. Hsu, G. Kedziora,
 R. Z. Khaliullin, P. Klunzinger, A. M. Lee, M. S. Lee, W. Liang,
 I. Lotan, N. Nair, B. Peters, E. I. Proynov, P. A. Pieniazek, 
 Y. M. Rhee, J. Ritchie, E. Rosta, C. D. Sherrill, 
 A. C. Simmonett, J. E. Subotnik, H. L. Woodcock III,
 W. Zhang, A. T. Bell, A. K. Chakraborty, D. M. Chipman,
 F. J. Keil, A. Warshel, W. J. Hehre, H. F. Schaefer III,
 J. Kong, A. I. Krylov, P. M. W. Gill, M. Head-Gordon,
 Q-Chem, Version 3.1, Q-Chem, Inc., Pittsburgh, PA (2007).

 Additional authors for Version 3.1: 
 Z. Gan, Y. Zhao, N. E. Schultz, D. Truhlar, E. Epifanovsky and M. Oana.

 Additional authors for Version 3.2: 
 R. Baer, B. R. Brooks, D. Casanova, J.-D. Chai, C.-L. Cheng, 
 C. Cramer, D. Crittenden, A. Ghysels, G. Hawkins, E. G. Hohenstein, 
 C. Kelley, W. Kurlancheek, D. Liotard, E. Livshits, P. Manohar, 
 A. Marenich, D. Neuhauser, R. Olson, M. A. Rohrdanz, K. S. Thanthiriwatte, 
 A. J. W. Thom, V. Vanovschi, C. F. Williams, Q. Wu and Z.-Q. You. 


 Intel X86 Linux Version

 Q-chem begins on Mon Nov 14 15:42:52 2011  

 Parallel job on  1  processors
Processing $rem in /usr/local/qchem/config/preferences.

theFileMan(): MAXOPENFILES=974 MAX_SUB_FILE_NUM=16
Maximum size of a physical file is 2.0 GB, maximum size of a tmp-file is 32.0 GB


--------------------------------------------------------------
User input:
--------------------------------------------------------------

$molecule
1,3
C
O,1,CO
H,1,CH1,2,A1
X,1,1.,2,X1,3,180.,0
H,1,CH2,4,HCX,2,90.,0
H,1,CH2,4,HCX,2,-90.,0

CO=1.36931862
CH1=1.11032167
CH2=1.10308272
A1=105.20448108
X1=134.83566105
HCX=55.47841476

$end

$comment
positive
$end

$xc_functional
   X HF 1.0
   X BNL 1.0
   C LYP 1.0
$end

$rem
SYMMETRY_DECOMPOSITION	0
exchange 		general
BASIS                   g3large
omega			600
separate_jk		true
mem_static              760
max_scf_cycles          200
scf_final_print         1
sym_ignore              true
$end

--------------------------------------------------------------
 Writing REM_CC_EA            5
 ----------------------------------------------------
       Standard Nuclear Orientation (Angstroms)
    I     Atom         X            Y            Z
 ----------------------------------------------------
    1      C       0.000000     0.000000     0.000000
    2      O       0.000000     0.000000     1.369319
    3      H       1.071456     0.000000    -0.291198
    4      H      -0.443304    -0.908844    -0.440768
    5      H      -0.443304     0.908844    -0.440768
 ----------------------------------------------------
 Nuclear Repulsion Energy =    34.2799471363 hartrees
 There are        9 alpha and        7 beta electrons
 Requested basis set is G3large
 There are 38 shells and 114 basis functions

Total QAlloc Memory Limit   2000 MB
Mega-Array Size       743 MB
MEM_STATIC part       760 MB

                       Distance Matrix (Angstroms)
             C (  1)   O (  2)   H (  3)   H (  4)
   O (  2)  1.369319
   H (  3)  1.110322  1.976192
   H (  4)  1.103083  2.073386  1.772813
   H (  5)  1.103083  2.073386  1.772813  1.817688
 
 A cutoff of  1.0D-08 yielded    737 shell pairs
 There are   6665 function pairs (  8172 Cartesian)
Evaluating contribution to one-electron hamiltonian from nuclear
 Smallest overlap matrix eigenvalue = 8.35E-04
 Multipole matrices computed through 2nd order

  Scale SEOQF with 1.000000e-01/1.000000e-01/1.000000e-01

 Standard Electronic Orientation quadrupole field applied
 Nucleus-field energy     =    -0.0000000015 hartrees
 Guess from superposition of atomic densities
 Warning:  Energy on first SCF cycle will be non-variational
 An unrestricted hybrid HF-DFT SCF calculation will be
 performed using Pulay DIIS extrapolation
 Exchange:     1.0000 Hartree-Fock + 1.0000 BNL
 Correlation:  1.0000 LYP
 Using SG-1 standard quadrature grid
 SCF converges when DIIS error is below 1.0E-05
 Warning!  Inaccurate integrated density:
   Number of electrons =    16
   Numerical integral  =    17.000055276793
   Relative error      =     6.2503454800 %
 ---------------------------------------
  Cycle       Energy         DIIS Error
 ---------------------------------------
    1    -114.1996374409      3.78E-02
    2    -113.5462996405      5.10E-03
    3    -113.6167270813      2.50E-03
    4    -113.6303499139      6.36E-04
    5    -113.6359750823      5.03E-04
    6    -113.6381644298      2.55E-04
    7    -113.6398312957      1.21E-04
    8    -113.6402224733      5.49E-05
    9    -113.6402991107      2.67E-05
   10    -113.6403134374      8.48E-06 Convergence criterion met
 ---------------------------------------
 One-Electron    Energy =  -217.8388118444
 Total Coulomb   Energy =    83.5066348032
 Alpha Exchange  Energy =    -2.5255865539
 Beta  Exchange  Energy =    -1.9038844879
 DFT   Exchange  Energy =    -8.6370301413
 DFT Correlation Energy =    -0.5215823478
 Nuclear Repu.   Energy =    34.2799471348
 Nuclear Attr.   Energy =  -330.8734930406
 Kinetic         Energy =   113.0346811961
 <S^2> = 2.0142
 SCF time:  CPU 31.00 s  wall 60.09 s
 Final Alpha MO Eigenvalues
            1           2           3           4           5           6
    1 -19.4290903 -10.4669559  -1.6615933  -1.2094981  -1.0392089  -1.0370589
            7           8           9          10          11          12
    1  -0.9960628  -0.8553682  -0.8452663  -0.1365737  -0.1124314  -0.0895212
           13          14
    1  -0.0893918  -0.0517390
 Final Beta MO Eigenvalues
            1           2           3           4           5           6
    1 -19.3791894 -10.4666805  -1.5544192  -1.1502047  -0.9452675  -0.9018534
            7           8           9          10          11          12
    1  -0.8945483  -0.3893280  -0.3864938  -0.1355213  -0.1074579  -0.0895489
 Analysis of SCF Wavefunction
 
 --------------------------------------------------------------
                    Orbital Energies (a.u.)
 --------------------------------------------------------------
 
 Alpha MOs
 -- Occupied --
-19.429 -10.467  -1.662  -1.209  -1.039  -1.037  -0.996  -0.855
 -0.845
 -- Virtual --
 -0.137  -0.112  -0.090  -0.089  -0.052  -0.043  -0.001   0.009
  0.031   0.039   0.048   0.055   0.064   0.109   0.185   0.253
  0.263   0.382   0.386   0.394   0.431   0.442   0.456   0.611
  0.704   0.762   0.787   0.813   0.829   0.835   0.916   0.925
  0.977   1.068   1.089   1.138   1.264   1.268   1.285   1.353
  1.427   1.436   1.749   1.818   2.077   2.225   2.267   2.342
  2.763   2.829   2.918   2.925   2.941   2.945   3.109   3.145
  3.205   3.239   3.306   3.435   3.585   3.603   3.698   3.966
  3.988   4.073   4.091   4.136   4.190   4.602   4.615   4.628
  4.759   4.832   4.956   5.010   5.032   5.352   5.402   5.619
  5.633   6.256   6.440   6.449   6.884   6.897   7.235  24.252
 27.786  27.868  27.880  40.700  40.771  40.965  40.993  41.048
 43.195  43.278  43.420  43.424  43.442  45.312  45.317  45.889
 49.646
 
 Beta MOs
 -- Occupied --
-19.379 -10.467  -1.554  -1.150  -0.945  -0.902  -0.895
 -- Virtual --
 -0.389  -0.386  -0.136  -0.107  -0.090  -0.089  -0.045  -0.036
  0.001   0.017   0.037   0.044   0.060   0.073   0.080   0.115
  0.193   0.268   0.281   0.394   0.397   0.400   0.439   0.457
  0.474   0.614   0.714   0.778   0.806   0.828   0.865   0.867
  0.947   0.950   0.988   1.084   1.112   1.158   1.274   1.276
  1.326   1.371   1.492   1.505   1.789   1.859   2.111   2.250
  2.296   2.364   2.777   2.837   2.931   2.941   2.952   2.961
  3.124   3.155   3.217   3.256   3.319   3.452   3.597   3.619
  3.719   3.990   4.014   4.103   4.118   4.165   4.217   4.656
  4.721   4.735   4.866   4.918   5.026   5.078   5.098   5.390
  5.433   5.677   5.685   6.296   6.602   6.610   6.984   6.998
  7.310  24.254  27.786  27.869  27.881  40.703  40.771  40.966
 40.994  41.049  43.321  43.403  43.506  43.512  43.518  45.378
 45.384  45.924  49.706
 --------------------------------------------------------------
 
          Ground-State Mulliken Net Atomic Charges

     Atom                 Charge (a.u.)    Spin (a.u.)
  --------------------------------------------------------
      1 C                    -0.153635      -0.020218
      2 O                     0.416193       1.649476
      3 H                     0.246278       0.139445
      4 H                     0.245584       0.115572
      5 H                     0.245581       0.115724
  --------------------------------------------------------
  Sum of atomic charges =     1.000000
  Sum of spin   charges =     2.000000

 -----------------------------------------------------------------
                    Cartesian Multipole Moments
 -----------------------------------------------------------------
    Charge (ESU x 10^10)
                 4.8032
    Dipole Moment (Debye)
         X       0.1710      Y       0.0003      Z       0.6276
       Tot       0.6505
    Quadrupole Moments (Debye-Ang)
        XX      -8.9977     XY       0.0000     YY      -8.7808
        XZ       0.0463     YZ       0.0007     ZZ      -7.9544
    Octapole Moments (Debye-Ang^2)
       XXX       1.5430    XXY       0.0001    XYY      -1.4824
       YYY       0.0002    XXZ      -6.0878    XYZ       0.0003
       YYZ      -6.4541    XZZ      -0.3513    YZZ       0.0011
       ZZZ     -14.2672
    Hexadecapole Moments (Debye-Ang^3)
      XXXX     -11.2274   XXXY       0.0001   XXYY      -4.1161
      XYYY       0.0001   YYYY     -11.5396   XXXZ      -0.8688
      XXYZ       0.0001   XYYZ       0.7156   YYYZ       0.0004
      XXZZ     -11.7712   XYZZ       0.0004   YYZZ     -11.3668
      XZZZ      -0.1914   YZZZ       0.0025   ZZZZ     -58.2068
 -----------------------------------------------------------------
 Total job time:  60.23s(wall), 31.12s(cpu) 
 Mon Nov 14 15:43:53 2011

        *************************************************************
        *                                                           *
        *  Thank you very much for using Q-Chem.  Have a nice day.  *
        *                                                           *
        *************************************************************


0 sent ACK to 0 
now end server 0 ... 
