Process 0 of 1 is on cl203.stfx.acenet.ca - thread support 1
initial socket setup ...start
initial socket setup ...done 
now start server 0 ... 

cmd = /usr/bin/ssh clhead /usr/local/qchem/bin/get_hostid 133521547 > /scratch/tmp/6063523.1.medium.q/qchem19728/lic.dat
                  Welcome to Q-Chem
     A Quantum Leap Into The Future Of Chemistry

 Y. Shao, L. Fusti-Molnar, Y. Jung, J. Kussmann, C. Ochsenfeld,
 S. T. Brown, A. T. B. Gilbert, L. V. Slipchenko,S. V. Levchenko,
 D. P. O'Neill, R. A. DiStasio Jr., R. C. Lochan, T. Wang,
 G. J. O. Beran, N. A. Besley, J. M. Herbert, C. Y. Lin,
 T. Van Voorhis, S. H. Chien, A. Sodt, R. P. Steele, 
 V. A. Rassolov, P. E. Maslen, P. P. Korambath, R. D. Adamson,
 B. Austin, J. Baker, E. F. C. Byrd, H. Dachsel, R. J. Doerksen,
 A. Dreuw, B. D. Dunietz, A. D. Dutoi, T. R. Furlani,
 S. R. Gwaltney, A. Heyden, S. Hirata, C.-P. Hsu, G. Kedziora,
 R. Z. Khaliullin, P. Klunzinger, A. M. Lee, M. S. Lee, W. Liang,
 I. Lotan, N. Nair, B. Peters, E. I. Proynov, P. A. Pieniazek, 
 Y. M. Rhee, J. Ritchie, E. Rosta, C. D. Sherrill, 
 A. C. Simmonett, J. E. Subotnik, H. L. Woodcock III,
 W. Zhang, A. T. Bell, A. K. Chakraborty, D. M. Chipman,
 F. J. Keil, A. Warshel, W. J. Hehre, H. F. Schaefer III,
 J. Kong, A. I. Krylov, P. M. W. Gill, M. Head-Gordon,
 Q-Chem, Version 3.1, Q-Chem, Inc., Pittsburgh, PA (2007).

 Additional authors for Version 3.1: 
 Z. Gan, Y. Zhao, N. E. Schultz, D. Truhlar, E. Epifanovsky and M. Oana.

 Additional authors for Version 3.2: 
 R. Baer, B. R. Brooks, D. Casanova, J.-D. Chai, C.-L. Cheng, 
 C. Cramer, D. Crittenden, A. Ghysels, G. Hawkins, E. G. Hohenstein, 
 C. Kelley, W. Kurlancheek, D. Liotard, E. Livshits, P. Manohar, 
 A. Marenich, D. Neuhauser, R. Olson, M. A. Rohrdanz, K. S. Thanthiriwatte, 
 A. J. W. Thom, V. Vanovschi, C. F. Williams, Q. Wu and Z.-Q. You. 


 Intel X86 Linux Version

 Q-chem begins on Sun Jul  7 08:37:52 2013  

 Parallel job on  1  processors
Processing $rem in /usr/local/qchem/config/preferences.

theFileMan(): MAXOPENFILES=974 MAX_SUB_FILE_NUM=16
Maximum size of a physical file is 2.0 GB, maximum size of a tmp-file is 32.0 GB


--------------------------------------------------------------
User input:
--------------------------------------------------------------

$molecule
-1,2
Si         0.00012        0.00000       -0.00018
F          0.00000        0.00000        1.54969
F          1.46108        0.00000       -0.51646
F         -0.73061       -1.26568       -0.51651
F         -0.73061        1.26568       -0.51651
$end

$comment
negative
$end

$xc_functional
C PBE   1.00
X wPBE  1.00
$end

$rem
SYMMETRY_DECOMPOSITION	0
exchange 		general
LRC_DFT                 true
BASIS                   g3large
omega			600
mem_static              760
max_scf_cycles          200
scf_final_print         1
sym_ignore              true
$end

--------------------------------------------------------------
 Writing REM_CC_EA            5
 ----------------------------------------------------
       Standard Nuclear Orientation (Angstroms)
    I     Atom         X            Y            Z
 ----------------------------------------------------
    1      Si      0.000120     0.000000    -0.000180
    2      F       0.000000     0.000000     1.549690
    3      F       1.461080     0.000000    -0.516460
    4      F      -0.730610    -1.265680    -0.516510
    5      F      -0.730610     1.265680    -0.516510
 ----------------------------------------------------
 Nuclear Repulsion Energy =   273.7019883780 hartrees
 There are       26 alpha and       25 beta electrons
 Requested basis set is G3large
 There are 59 shells and 234 basis functions

Total QAlloc Memory Limit   2000 MB
Mega-Array Size       743 MB
MEM_STATIC part       760 MB

                       Distance Matrix (Angstroms)
             Si(  1)   F (  2)   F (  3)   F (  4)
   F (  2)  1.549870
   F (  3)  1.549500  2.530559
   F (  4)  1.550003  2.530794  2.530899
   F (  5)  1.550003  2.530794  2.530899  2.531360
 
 A cutoff of  1.0D-08 yielded   1440 shell pairs
 There are  23327 function pairs ( 31304 Cartesian)
Evaluating contribution to one-electron hamiltonian from nuclear
 Smallest overlap matrix eigenvalue = 1.26E-04
 Multipole matrices computed through 2nd order

  Scale SEOQF with 1.000000e-01/1.000000e-01/1.000000e-01

 Standard Electronic Orientation quadrupole field applied
 Guess from superposition of atomic densities
 Warning:  Energy on first SCF cycle will be non-variational
 Long-range K will be added via erf
 Coulomb attenuation parameter = 0.6 bohr**(-1)
 An unrestricted Kohn-Sham SCF calculation will be
 performed using Pulay DIIS extrapolation
 Exchange:  wPBE + LR-HF      Correlation:  PBE
 Using SG-1 standard quadrature grid
 SCF converges when DIIS error is below 1.0E-05
 Requested basis set is G3large
 There are 59 shells and 234 basis functions
 A cutoff of  1.0D-08 yielded   1440 shell pairs
 There are  23327 function pairs ( 31304 Cartesian)
 Warning!  Inaccurate integrated density:
   Number of electrons =    51
   Numerical integral  =    50.000212189660
   Relative error      =    -1.9603682556 %
 ---------------------------------------
  Cycle       Energy         DIIS Error
 ---------------------------------------
    1    -689.6192854492      2.90E-02
    2    -688.8475524058      5.38E-03
    3    -688.9153832399      4.91E-03
    4    -688.9980263468      3.39E-04
    5    -689.0026722448      1.62E-04
    6    -689.0040171234      9.62E-05
    7    -689.0044795765      4.17E-05
    8    -689.0045952880      8.85E-06 Convergence criterion met
 ---------------------------------------
 One-Electron    Energy = -1512.2485594593
 Total Coulomb   Energy =   612.4830585177
 Alpha Exchange  Energy =    -7.5330890272
 Beta  Exchange  Energy =    -7.4534446543
 DFT   Exchange  Energy =   -46.1578850012
 DFT Correlation Energy =    -1.7966640417
 Nuclear Repu.   Energy =   273.7019883780
 Nuclear Attr.   Energy = -2200.0821632853
 Kinetic         Energy =   687.8336038259
 <S^2> = 0.7505
 SCF time:  CPU 142.72 s  wall 143.19 s
 Final Alpha MO Eigenvalues
            1           2           3           4           5           6
    1 -65.6954596 -24.4364226 -24.4362248 -24.4361330 -24.4360344  -5.3471242
            7           8           9          10          11          12
    1  -3.7352352  -3.7352112  -3.7352043  -1.3200718  -1.2756863  -1.2755398
           13          14          15          16          17          18
    1  -1.2753968  -0.6416730  -0.5696388  -0.5695385  -0.5694826  -0.5145725
           19          20          21          22          23          24
    1  -0.5145663  -0.5010459  -0.5010263  -0.5010108  -0.4599426  -0.4598867
           25          26          27          28          29          30
    1  -0.4597770   0.0406766   0.1625527   0.1625694   0.1625801   0.3425515
           31
    1   0.3426087
 Final Beta MO Eigenvalues
            1           2           3           4           5           6
    1 -65.6952935 -24.4360994 -24.4359025 -24.4358090 -24.4357122  -5.3468903
            7           8           9          10          11          12
    1  -3.7350002  -3.7349761  -3.7349697  -1.3186225  -1.2741644  -1.2740138
           13          14          15          16          17          18
    1  -1.2738727  -0.6405663  -0.5688797  -0.5687861  -0.5687342  -0.5143580
           19          20          21          22          23          24
    1  -0.5143518  -0.4998147  -0.4997932  -0.4997772  -0.4604859  -0.4604348
           25          26          27          28          29          30
    1  -0.4603267   0.1765831   0.1798385   0.1798614   0.1799276   0.3488013
 Analysis of SCF Wavefunction
 
 --------------------------------------------------------------
                    Orbital Energies (a.u.)
 --------------------------------------------------------------
 
 Alpha MOs
 -- Occupied --
-65.695 -24.436 -24.436 -24.436 -24.436  -5.347  -3.735  -3.735
 -3.735  -1.320  -1.276  -1.276  -1.275  -0.642  -0.570  -0.570
 -0.569  -0.515  -0.515  -0.501  -0.501  -0.501  -0.460  -0.460
 -0.460   0.041
 -- Virtual --
  0.163   0.163   0.163   0.343   0.343   0.343   0.347   0.419
  0.419   0.421   0.421   0.421   0.469   0.470   0.470   0.470
  0.524   0.524   0.525   0.593   0.615   0.615   0.615   0.619
  0.619   0.619   0.647   0.647   0.824   0.824   0.825   0.908
  0.941   0.941   0.941   0.988   0.988   0.988   1.094   1.094
  1.128   1.295   1.295   1.295   1.621   1.621   1.658   1.659
  1.659   1.678   1.679   1.679   1.703   1.719   1.719   1.719
  1.844   1.844   1.844   2.013   2.013   2.013   2.223   2.223
  2.223   2.308   2.309   2.374   2.374   2.374   2.387   2.387
  2.387   2.438   2.543   2.543   2.543   2.795   2.796   2.821
  2.997   2.997   2.997   3.218   3.218   3.218   3.487   3.487
  3.488   3.630   4.068   4.069   4.487   4.488   4.490   6.249
  6.451   6.451   6.560   6.560   6.560   6.579   6.579   6.579
  6.735   6.735   6.735   6.887   6.889   6.890   6.891   6.891
  6.891   6.919   6.928   6.928   6.928   6.936   6.936   6.936
  6.962   6.984   6.985   6.985   7.037   7.037   7.037   7.131
  7.131   7.254   7.254   7.254   7.459   7.460   7.460   7.876
  9.340   9.340   9.365   9.365   9.365   9.473   9.473   9.473
  9.640   9.641   9.641   9.723   9.723   9.723   9.763   9.763
 10.014  10.015  10.015  10.413  12.595  12.596  12.597  17.840
 17.899  18.045  18.105  18.178  22.398  22.403  22.407  22.411
 22.416  22.417  22.481  50.339  50.345  50.347  50.369  50.376
 50.396  50.413  50.425  50.471  50.479  50.484  50.489  50.492
 50.508  50.517  50.524  50.681  50.696  50.715  50.717  55.838
 55.838  55.900  55.900  55.900  55.939  55.939  55.939  56.127
 56.128  56.128  56.143  66.899  66.899  66.899  67.017 142.077
 
 Beta MOs
 -- Occupied --
-65.695 -24.436 -24.436 -24.436 -24.436  -5.347  -3.735  -3.735
 -3.735  -1.319  -1.274  -1.274  -1.274  -0.641  -0.569  -0.569
 -0.569  -0.514  -0.514  -0.500  -0.500  -0.500  -0.460  -0.460
 -0.460
 -- Virtual --
  0.177   0.180   0.180   0.180   0.349   0.349   0.349   0.368
  0.421   0.421   0.425   0.425   0.425   0.469   0.472   0.472
  0.472   0.523   0.523   0.523   0.596   0.614   0.615   0.615
  0.617   0.617   0.617   0.649   0.649   0.823   0.823   0.823
  0.907   0.942   0.942   0.942   0.988   0.989   0.989   1.095
  1.095   1.128   1.296   1.296   1.297   1.621   1.621   1.659
  1.659   1.659   1.678   1.678   1.678   1.703   1.720   1.720
  1.720   1.843   1.843   1.843   2.013   2.013   2.013   2.223
  2.223   2.223   2.308   2.308   2.375   2.375   2.375   2.386
  2.386   2.387   2.439   2.543   2.543   2.543   2.795   2.796
  2.823   2.998   2.998   2.998   3.219   3.219   3.219   3.487
  3.487   3.488   3.630   4.069   4.070   4.487   4.488   4.490
  6.249   6.451   6.451   6.560   6.560   6.560   6.578   6.579
  6.579   6.735   6.735   6.735   6.887   6.889   6.890   6.891
  6.891   6.891   6.919   6.927   6.928   6.928   6.936   6.936
  6.936   6.962   6.984   6.985   6.985   7.037   7.037   7.038
  7.131   7.131   7.254   7.254   7.255   7.460   7.461   7.461
  7.877   9.340   9.340   9.365   9.366   9.366   9.473   9.473
  9.473   9.641   9.641   9.641   9.723   9.724   9.724   9.764
  9.764  10.015  10.015  10.015  10.414  12.596  12.596  12.597
 17.840  17.900  18.046  18.106  18.179  22.398  22.403  22.407
 22.411  22.417  22.418  22.481  50.338  50.345  50.346  50.368
 50.375  50.396  50.413  50.424  50.471  50.479  50.484  50.489
 50.492  50.507  50.516  50.524  50.680  50.696  50.715  50.717
 55.838  55.838  55.900  55.900  55.900  55.939  55.939  55.939
 56.128  56.128  56.128  56.143  66.899  66.900  66.900  67.018
142.077
 --------------------------------------------------------------
 
          Ground-State Mulliken Net Atomic Charges

     Atom                 Charge (a.u.)    Spin (a.u.)
  --------------------------------------------------------
      1 Si                   -0.972422       3.116382
      2 F                    -0.007038      -0.529149
      3 F                    -0.007460      -0.528069
      4 F                    -0.004381      -0.532073
      5 F                    -0.008699      -0.527091
  --------------------------------------------------------
  Sum of atomic charges =    -1.000000
  Sum of spin   charges =     1.000000

 -----------------------------------------------------------------
                    Cartesian Multipole Moments
 -----------------------------------------------------------------
    Charge (ESU x 10^10)
                -4.8032
    Dipole Moment (Debye)
         X      -0.0640      Y      -0.0982      Z       0.0263
       Tot       0.1201
    Quadrupole Moments (Debye-Ang)
        XX     -50.4931     XY      -0.0154     YY     -50.5187
        XZ      -0.0077     YZ      -0.0109     ZZ     -50.5150
    Octapole Moments (Debye-Ang^2)
       XXX      -2.0561    XXY      -0.3326    XYY       1.1801
       YYY      -0.9975    XXZ       1.0776    XYZ       0.0041
       YYZ       1.0867    XZZ      -0.2201    YZZ      -0.3355
       ZZZ      -1.7069
    Hexadecapole Moments (Debye-Ang^3)
      XXXX    -282.9110   XXXY      -0.0527   XXYY     -94.3867
      XYYY      -0.1139   YYYY    -283.1983   XXXZ       1.4312
      XXYZ      -0.0258   XYYZ      -1.5087   YYYZ      -0.0776
      XXZZ     -93.2786   XYZZ      -0.0230   YYZZ     -93.3180
      XZZZ      -0.0094   YZZZ      -0.0241   ZZZZ    -284.2089
 -----------------------------------------------------------------
 Total job time:  143.54s(wall), 143.05s(cpu) 
 Sun Jul  7 08:40:16 2013

        *************************************************************
        *                                                           *
        *  Thank you very much for using Q-Chem.  Have a nice day.  *
        *                                                           *
        *************************************************************


0 sent ACK to 0 
now end server 0 ... 
 
**********************************************************************
Job 2 of 3 
**********************************************************************
 
Process 0 of 1 is on cl203.stfx.acenet.ca - thread support 1
initial socket setup ...start
initial socket setup ...done 
now start server 0 ... 

cmd = /usr/bin/ssh clhead /usr/local/qchem/bin/get_hostid 525649295 > /scratch/tmp/6063523.1.medium.q/qchem19728/lic.dat
                  Welcome to Q-Chem
     A Quantum Leap Into The Future Of Chemistry

 Y. Shao, L. Fusti-Molnar, Y. Jung, J. Kussmann, C. Ochsenfeld,
 S. T. Brown, A. T. B. Gilbert, L. V. Slipchenko,S. V. Levchenko,
 D. P. O'Neill, R. A. DiStasio Jr., R. C. Lochan, T. Wang,
 G. J. O. Beran, N. A. Besley, J. M. Herbert, C. Y. Lin,
 T. Van Voorhis, S. H. Chien, A. Sodt, R. P. Steele, 
 V. A. Rassolov, P. E. Maslen, P. P. Korambath, R. D. Adamson,
 B. Austin, J. Baker, E. F. C. Byrd, H. Dachsel, R. J. Doerksen,
 A. Dreuw, B. D. Dunietz, A. D. Dutoi, T. R. Furlani,
 S. R. Gwaltney, A. Heyden, S. Hirata, C.-P. Hsu, G. Kedziora,
 R. Z. Khaliullin, P. Klunzinger, A. M. Lee, M. S. Lee, W. Liang,
 I. Lotan, N. Nair, B. Peters, E. I. Proynov, P. A. Pieniazek, 
 Y. M. Rhee, J. Ritchie, E. Rosta, C. D. Sherrill, 
 A. C. Simmonett, J. E. Subotnik, H. L. Woodcock III,
 W. Zhang, A. T. Bell, A. K. Chakraborty, D. M. Chipman,
 F. J. Keil, A. Warshel, W. J. Hehre, H. F. Schaefer III,
 J. Kong, A. I. Krylov, P. M. W. Gill, M. Head-Gordon,
 Q-Chem, Version 3.1, Q-Chem, Inc., Pittsburgh, PA (2007).

 Additional authors for Version 3.1: 
 Z. Gan, Y. Zhao, N. E. Schultz, D. Truhlar, E. Epifanovsky and M. Oana.

 Additional authors for Version 3.2: 
 R. Baer, B. R. Brooks, D. Casanova, J.-D. Chai, C.-L. Cheng, 
 C. Cramer, D. Crittenden, A. Ghysels, G. Hawkins, E. G. Hohenstein, 
 C. Kelley, W. Kurlancheek, D. Liotard, E. Livshits, P. Manohar, 
 A. Marenich, D. Neuhauser, R. Olson, M. A. Rohrdanz, K. S. Thanthiriwatte, 
 A. J. W. Thom, V. Vanovschi, C. F. Williams, Q. Wu and Z.-Q. You. 


 Intel X86 Linux Version

 Q-chem begins on Sun Jul  7 08:40:19 2013  

 Parallel job on  1  processors
Processing $rem in /usr/local/qchem/config/preferences.

theFileMan(): MAXOPENFILES=974 MAX_SUB_FILE_NUM=16
Maximum size of a physical file is 2.0 GB, maximum size of a tmp-file is 32.0 GB


--------------------------------------------------------------
User input:
--------------------------------------------------------------

$molecule
0,1
Si         0.00012        0.00000       -0.00018
F          0.00000        0.00000        1.54969
F          1.46108        0.00000       -0.51646
F         -0.73061       -1.26568       -0.51651
F         -0.73061        1.26568       -0.51651
$end

$comment
neutral
$end

$xc_functional
C PBE   1.00
X wPBE  1.00
$end


$rem
SYMMETRY_DECOMPOSITION	0
LRC_DFT                 true
exchange 		general
BASIS                   g3large
omega			600
mem_static              760
max_scf_cycles          200
scf_final_print         1
sym_ignore              true
$end

--------------------------------------------------------------
 Writing REM_CC_EA            5
 ----------------------------------------------------
       Standard Nuclear Orientation (Angstroms)
    I     Atom         X            Y            Z
 ----------------------------------------------------
    1      Si      0.000120     0.000000    -0.000180
    2      F       0.000000     0.000000     1.549690
    3      F       1.461080     0.000000    -0.516460
    4      F      -0.730610    -1.265680    -0.516510
    5      F      -0.730610     1.265680    -0.516510
 ----------------------------------------------------
 Nuclear Repulsion Energy =   273.7019883780 hartrees
 There are       25 alpha and       25 beta electrons
 Requested basis set is G3large
 There are 59 shells and 234 basis functions

Total QAlloc Memory Limit   2000 MB
Mega-Array Size       743 MB
MEM_STATIC part       760 MB

                       Distance Matrix (Angstroms)
             Si(  1)   F (  2)   F (  3)   F (  4)
   F (  2)  1.549870
   F (  3)  1.549500  2.530559
   F (  4)  1.550003  2.530794  2.530899
   F (  5)  1.550003  2.530794  2.530899  2.531360
 
 A cutoff of  1.0D-08 yielded   1440 shell pairs
 There are  23327 function pairs ( 31304 Cartesian)
Evaluating contribution to one-electron hamiltonian from nuclear
 Smallest overlap matrix eigenvalue = 1.26E-04
 Multipole matrices computed through 2nd order

  Scale SEOQF with 1.000000e-01/1.000000e-01/1.000000e-01

 Standard Electronic Orientation quadrupole field applied
 Guess from superposition of atomic densities
 Warning:  Energy on first SCF cycle will be non-variational
 Long-range K will be added via erf
 Coulomb attenuation parameter = 0.6 bohr**(-1)
 A restricted Kohn-Sham SCF calculation will be
 performed using Pulay DIIS extrapolation
 Exchange:  wPBE + LR-HF      Correlation:  PBE
 Using SG-1 standard quadrature grid
 SCF converges when DIIS error is below 1.0E-05
 Requested basis set is G3large
 There are 59 shells and 234 basis functions
 A cutoff of  1.0D-08 yielded   1440 shell pairs
 There are  23327 function pairs ( 31304 Cartesian)
 ---------------------------------------
  Cycle       Energy         DIIS Error
 ---------------------------------------
    1    -689.6192854492      2.90E-02
    2    -688.9347469854      5.12E-03
    3    -688.9893147811      4.25E-03
    4    -689.0490891820      3.19E-04
    5    -689.0496193924      8.31E-05
    6    -689.0496718715      3.56E-05
    7    -689.0496774661      1.21E-05
    8    -689.0496782051      1.82E-06 Convergence criterion met
 ---------------------------------------
 One-Electron    Energy = -1503.5841308544
 Total Coulomb   Energy =   603.6775066672
 Alpha Exchange  Energy =    -7.4553891959
 Beta  Exchange  Energy =    -7.4553891959
 DFT   Exchange  Energy =   -46.1469779527
 DFT Correlation Energy =    -1.7872860514
 Nuclear Repu.   Energy =   273.7019883780
 Nuclear Attr.   Energy = -2191.2297191448
 Kinetic         Energy =   687.6455882904
 SCF time:  CPU 112.73 s  wall 113.17 s
 Final Alpha MO Eigenvalues
            1           2           3           4           5           6
    1 -65.8738989 -24.6100653 -24.6099195 -24.6099041 -24.6098957  -5.5254990
            7           8           9          10          11          12
    1  -3.9136142  -3.9135849  -3.9135827  -1.4934411  -1.4482073  -1.4480359
           13          14          15          16          17          18
    1  -1.4480303  -0.8130192  -0.7415967  -0.7415440  -0.7415323  -0.6876971
           19          20          21          22          23          24
    1  -0.6876907  -0.6723749  -0.6723584  -0.6723426  -0.6332346  -0.6332170
           25          26          27          28          29          30
    1  -0.6331459   0.0500729   0.0666478   0.0666527   0.0666558   0.2082733
 Analysis of SCF Wavefunction
 
 --------------------------------------------------------------
                    Orbital Energies (a.u.)
 --------------------------------------------------------------
 
 Alpha MOs
 -- Occupied --
-65.874 -24.610 -24.610 -24.610 -24.610  -5.525  -3.914  -3.914
 -3.914  -1.493  -1.448  -1.448  -1.448  -0.813  -0.742  -0.742
 -0.742  -0.688  -0.688  -0.672  -0.672  -0.672  -0.633  -0.633
 -0.633
 -- Virtual --
  0.050   0.067   0.067   0.067   0.208   0.209   0.209   0.209
  0.281   0.281   0.284   0.284   0.284   0.318   0.318   0.318
  0.330   0.382   0.382   0.382   0.438   0.457   0.457   0.457
  0.476   0.476   0.476   0.482   0.482   0.670   0.670   0.670
  0.749   0.776   0.776   0.776   0.828   0.828   0.828   0.925
  0.925   0.965   1.122   1.122   1.122   1.456   1.456   1.496
  1.496   1.496   1.512   1.512   1.512   1.545   1.552   1.552
  1.552   1.678   1.678   1.678   1.839   1.839   1.839   2.051
  2.052   2.052   2.136   2.136   2.203   2.203   2.203   2.215
  2.215   2.215   2.267   2.371   2.371   2.371   2.623   2.623
  2.646   2.823   2.824   2.824   3.044   3.044   3.044   3.315
  3.315   3.315   3.458   3.891   3.892   4.312   4.313   4.315
  6.077   6.279   6.279   6.388   6.388   6.388   6.407   6.407
  6.407   6.563   6.563   6.563   6.714   6.717   6.717   6.718
  6.718   6.719   6.746   6.755   6.755   6.755   6.763   6.763
  6.763   6.789   6.811   6.812   6.812   6.864   6.865   6.865
  6.958   6.958   7.081   7.081   7.081   7.286   7.287   7.287
  7.701   9.167   9.167   9.193   9.193   9.193   9.300   9.300
  9.301   9.468   9.468   9.469   9.550   9.551   9.551   9.591
  9.591   9.842   9.842   9.842  10.242  12.418  12.419  12.420
 17.661  17.721  17.867  17.927  18.000  22.220  22.224  22.228
 22.233  22.238  22.239  22.303  50.165  50.171  50.173  50.195
 50.202  50.223  50.240  50.251  50.297  50.305  50.311  50.316
 50.318  50.334  50.343  50.350  50.507  50.522  50.541  50.543
 55.664  55.664  55.726  55.726  55.726  55.765  55.766  55.766
 55.954  55.954  55.954  55.969  66.725  66.725  66.725  66.843
141.898
 --------------------------------------------------------------
 
          Ground-State Mulliken Net Atomic Charges

     Atom                 Charge (a.u.)
  ----------------------------------------
      1 Si                    2.062990
      2 F                    -0.515784
      3 F                    -0.515720
      4 F                    -0.515755
      5 F                    -0.515732
  ----------------------------------------
  Sum of atomic charges =     0.000000

 -----------------------------------------------------------------
                    Cartesian Multipole Moments
 -----------------------------------------------------------------
    Charge (ESU x 10^10)
                 0.0000
    Dipole Moment (Debye)
         X       0.0030      Y       0.0000      Z      -0.0022
       Tot       0.0037
    Quadrupole Moments (Debye-Ang)
        XX     -32.4411     XY       0.0001     YY     -32.4467
        XZ      -0.0013     YZ      -0.0001     ZZ     -32.4427
    Octapole Moments (Debye-Ang^2)
       XXX      -3.5297    XXY       0.0000    XYY       3.5402
       YYY       0.0001    XXZ       2.4999    XYZ       0.0000
       YYZ       2.5023    XZZ       0.0015    YZZ       0.0001
       ZZZ      -5.0022
    Hexadecapole Moments (Debye-Ang^3)
      XXXX    -123.7717   XXXY       0.0001   XXYY     -41.2699
      XYYY       0.0001   YYYY    -123.8406   XXXZ       1.3167
      XXYZ      -0.0001   XYYZ      -1.3249   YYYZ      -0.0002
      XXZZ     -40.3223   XYZZ       0.0000   YYZZ     -40.3333
      XZZZ      -0.0048   YZZZ      -0.0003   ZZZZ    -124.7034
 -----------------------------------------------------------------
 Total job time:  113.48s(wall), 113.04s(cpu) 
 Sun Jul  7 08:42:13 2013

        *************************************************************
        *                                                           *
        *  Thank you very much for using Q-Chem.  Have a nice day.  *
        *                                                           *
        *************************************************************


0 sent ACK to 0 
now end server 0 ... 
 
**********************************************************************
Job 3 of 3 
**********************************************************************
 
Process 0 of 1 is on cl203.stfx.acenet.ca - thread support 1
initial socket setup ...start
initial socket setup ...done 
now start server 0 ... 

cmd = /usr/bin/ssh clhead /usr/local/qchem/bin/get_hostid 1748076717 > /scratch/tmp/6063523.1.medium.q/qchem19728/lic.dat
                  Welcome to Q-Chem
     A Quantum Leap Into The Future Of Chemistry

 Y. Shao, L. Fusti-Molnar, Y. Jung, J. Kussmann, C. Ochsenfeld,
 S. T. Brown, A. T. B. Gilbert, L. V. Slipchenko,S. V. Levchenko,
 D. P. O'Neill, R. A. DiStasio Jr., R. C. Lochan, T. Wang,
 G. J. O. Beran, N. A. Besley, J. M. Herbert, C. Y. Lin,
 T. Van Voorhis, S. H. Chien, A. Sodt, R. P. Steele, 
 V. A. Rassolov, P. E. Maslen, P. P. Korambath, R. D. Adamson,
 B. Austin, J. Baker, E. F. C. Byrd, H. Dachsel, R. J. Doerksen,
 A. Dreuw, B. D. Dunietz, A. D. Dutoi, T. R. Furlani,
 S. R. Gwaltney, A. Heyden, S. Hirata, C.-P. Hsu, G. Kedziora,
 R. Z. Khaliullin, P. Klunzinger, A. M. Lee, M. S. Lee, W. Liang,
 I. Lotan, N. Nair, B. Peters, E. I. Proynov, P. A. Pieniazek, 
 Y. M. Rhee, J. Ritchie, E. Rosta, C. D. Sherrill, 
 A. C. Simmonett, J. E. Subotnik, H. L. Woodcock III,
 W. Zhang, A. T. Bell, A. K. Chakraborty, D. M. Chipman,
 F. J. Keil, A. Warshel, W. J. Hehre, H. F. Schaefer III,
 J. Kong, A. I. Krylov, P. M. W. Gill, M. Head-Gordon,
 Q-Chem, Version 3.1, Q-Chem, Inc., Pittsburgh, PA (2007).

 Additional authors for Version 3.1: 
 Z. Gan, Y. Zhao, N. E. Schultz, D. Truhlar, E. Epifanovsky and M. Oana.

 Additional authors for Version 3.2: 
 R. Baer, B. R. Brooks, D. Casanova, J.-D. Chai, C.-L. Cheng, 
 C. Cramer, D. Crittenden, A. Ghysels, G. Hawkins, E. G. Hohenstein, 
 C. Kelley, W. Kurlancheek, D. Liotard, E. Livshits, P. Manohar, 
 A. Marenich, D. Neuhauser, R. Olson, M. A. Rohrdanz, K. S. Thanthiriwatte, 
 A. J. W. Thom, V. Vanovschi, C. F. Williams, Q. Wu and Z.-Q. You. 


 Intel X86 Linux Version

 Q-chem begins on Sun Jul  7 08:42:16 2013  

 Parallel job on  1  processors
Processing $rem in /usr/local/qchem/config/preferences.

theFileMan(): MAXOPENFILES=974 MAX_SUB_FILE_NUM=16
Maximum size of a physical file is 2.0 GB, maximum size of a tmp-file is 32.0 GB


--------------------------------------------------------------
User input:
--------------------------------------------------------------

$molecule
1,2
Si         0.00012        0.00000       -0.00018
F          0.00000        0.00000        1.54969
F          1.46108        0.00000       -0.51646
F         -0.73061       -1.26568       -0.51651
F         -0.73061        1.26568       -0.51651
$end

$comment
positive
$end

$xc_functional
C PBE   1.00
X wPBE  1.00
$end

$rem
SYMMETRY_DECOMPOSITION	0
LRC_DFT                 true
exchange 		general
BASIS                   g3large
omega			600
mem_static              760
max_scf_cycles          200
scf_final_print         1
sym_ignore              true
$end

--------------------------------------------------------------
 Writing REM_CC_EA            5
 ----------------------------------------------------
       Standard Nuclear Orientation (Angstroms)
    I     Atom         X            Y            Z
 ----------------------------------------------------
    1      Si      0.000120     0.000000    -0.000180
    2      F       0.000000     0.000000     1.549690
    3      F       1.461080     0.000000    -0.516460
    4      F      -0.730610    -1.265680    -0.516510
    5      F      -0.730610     1.265680    -0.516510
 ----------------------------------------------------
 Nuclear Repulsion Energy =   273.7019883780 hartrees
 There are       25 alpha and       24 beta electrons
 Requested basis set is G3large
 There are 59 shells and 234 basis functions

Total QAlloc Memory Limit   2000 MB
Mega-Array Size       743 MB
MEM_STATIC part       760 MB

                       Distance Matrix (Angstroms)
             Si(  1)   F (  2)   F (  3)   F (  4)
   F (  2)  1.549870
   F (  3)  1.549500  2.530559
   F (  4)  1.550003  2.530794  2.530899
   F (  5)  1.550003  2.530794  2.530899  2.531360
 
 A cutoff of  1.0D-08 yielded   1440 shell pairs
 There are  23327 function pairs ( 31304 Cartesian)
Evaluating contribution to one-electron hamiltonian from nuclear
 Smallest overlap matrix eigenvalue = 1.26E-04
 Multipole matrices computed through 2nd order

  Scale SEOQF with 1.000000e-01/1.000000e-01/1.000000e-01

 Standard Electronic Orientation quadrupole field applied
 Guess from superposition of atomic densities
 Warning:  Energy on first SCF cycle will be non-variational
 Long-range K will be added via erf
 Coulomb attenuation parameter = 0.6 bohr**(-1)
 An unrestricted Kohn-Sham SCF calculation will be
 performed using Pulay DIIS extrapolation
 Exchange:  wPBE + LR-HF      Correlation:  PBE
 Using SG-1 standard quadrature grid
 SCF converges when DIIS error is below 1.0E-05
 Requested basis set is G3large
 There are 59 shells and 234 basis functions
 A cutoff of  1.0D-08 yielded   1440 shell pairs
 There are  23327 function pairs ( 31304 Cartesian)
 Warning!  Inaccurate integrated density:
   Number of electrons =    49
   Numerical integral  =    50.000212189660
   Relative error      =     2.0412493667 %
 ---------------------------------------
  Cycle       Energy         DIIS Error
 ---------------------------------------
    1    -689.6192854492      2.90E-02
    2    -688.1983124302      6.23E-03
    3    -688.0836743622      9.14E-03
    4    -688.4097389108      1.06E-03
    5    -688.4152912143      4.55E-04
    6    -688.4167938164      1.84E-04
    7    -688.4174594081      1.05E-04
    8    -688.4181136276      1.02E-04
    9    -688.4187128086      7.97E-05
   10    -688.4197691687      7.56E-05
   11    -688.4201541745      6.00E-05
   12    -688.4203011846      3.85E-05
   13    -688.4205420069      2.70E-05
   14    -688.4207466619      2.41E-05
   15    -688.4210084419      2.15E-05
   16    -688.4211107401      2.00E-05
   17    -688.4211939819      1.26E-05
   18    -688.4212656483      2.03E-05
   19    -688.4212953119      9.26E-06 Convergence criterion met
 ---------------------------------------
 One-Electron    Energy = -1488.5125353396
 Total Coulomb   Energy =   588.6880167422
 Alpha Exchange  Energy =    -7.4965316650
 Beta  Exchange  Energy =    -7.0975020622
 DFT   Exchange  Energy =   -45.9600207466
 DFT Correlation Energy =    -1.7447106187
 Nuclear Repu.   Energy =   273.7019883780
 Nuclear Attr.   Energy = -2175.6848309739
 Kinetic         Energy =   687.1722956344
 <S^2> = 0.7649
 SCF time:  CPU 340.28 s  wall 341.54 s
 Final Alpha MO Eigenvalues
            1           2           3           4           5           6
    1 -66.1664169 -25.0107442 -25.0058005 -24.8799226 -24.8539934  -5.8177726
            7           8           9          10          11          12
    1  -4.2074095  -4.2057617  -4.2041241  -1.8458793  -1.8217205  -1.7223817
           13          14          15          16          17          18
    1  -1.6928315  -1.1354639  -1.0876592  -1.0829991  -1.0496563  -1.0468175
           19          20          21          22          23          24
    1  -1.0213024  -0.9955232  -0.9504485  -0.9309255  -0.9286580  -0.8987846
           25          26          27          28          29          30
    1  -0.8833605  -0.1488046  -0.0840988  -0.0839447  -0.0826427  -0.0300864
 Final Beta MO Eigenvalues
            1           2           3           4           5           6
    1 -66.1666581 -24.9968046 -24.9922383 -24.8764507 -24.8527537  -5.8181724
            7           8           9          10          11          12
    1  -4.2079768  -4.2063964  -4.2044233  -1.8108645  -1.7790199  -1.7119155
           13          14          15          16          17          18
    1  -1.6883106  -1.1201138  -1.0651758  -1.0360338  -1.0065530  -0.9996590
           19          20          21          22          23          24
    1  -0.9462340  -0.9259230  -0.9056316  -0.8987655  -0.8805202  -0.8725548
           25          26          27          28          29
    1  -0.6221777  -0.1479613  -0.0834757  -0.0810171  -0.0786188
 Analysis of SCF Wavefunction
 
 --------------------------------------------------------------
                    Orbital Energies (a.u.)
 --------------------------------------------------------------
 
 Alpha MOs
 -- Occupied --
-66.166 -25.011 -25.006 -24.880 -24.854  -5.818  -4.207  -4.206
 -4.204  -1.846  -1.822  -1.722  -1.693  -1.135  -1.088  -1.083
 -1.050  -1.047  -1.021  -0.996  -0.950  -0.931  -0.929  -0.899
 -0.883
 -- Virtual --
 -0.149  -0.084  -0.084  -0.083  -0.030  -0.015  -0.006  -0.003
  0.078   0.086   0.089   0.098   0.100   0.117   0.120   0.130
  0.144   0.183   0.198   0.205   0.213   0.225   0.229   0.231
  0.235   0.248   0.294   0.295   0.295   0.452   0.457   0.461
  0.526   0.540   0.541   0.542   0.597   0.600   0.608   0.669
  0.669   0.728   0.817   0.838   0.859   1.180   1.186   1.205
  1.216   1.234   1.259   1.266   1.284   1.300   1.306   1.307
  1.324   1.417   1.426   1.438   1.530   1.557   1.573   1.758
  1.766   1.790   1.824   1.839   1.889   1.918   1.919   1.939
  1.940   1.947   1.997   2.071   2.094   2.112   2.320   2.337
  2.355   2.530   2.541   2.541   2.740   2.762   2.776   2.988
  3.019   3.068   3.185   3.603   3.606   4.025   4.030   4.036
  5.785   5.924   5.951   5.997   6.052   6.101   6.118   6.128
  6.150   6.243   6.250   6.286   6.354   6.361   6.373   6.375
  6.378   6.383   6.391   6.407   6.411   6.462   6.499   6.502
  6.508   6.520   6.526   6.530   6.538   6.553   6.567   6.602
  6.651   6.654   6.737   6.797   6.810   6.980   6.985   7.004
  7.402   8.785   8.804   8.809   8.861   8.911   8.969   9.008
  9.010   9.106   9.149   9.163   9.170   9.248   9.268   9.302
  9.326   9.479   9.527   9.589   9.942  12.118  12.128  12.137
 17.369  17.429  17.576  17.636  17.708  21.926  21.933  21.936
 21.941  21.946  21.947  22.011  49.767  49.790  49.792  49.814
 49.877  49.896  49.901  49.903  49.931  49.955  49.976  50.001
 50.043  50.058  50.086  50.093  50.146  50.151  50.254  50.264
 55.285  55.298  55.320  55.365  55.439  55.466  55.491  55.494
 55.569  55.574  55.689  55.714  66.329  66.367  66.468  66.552
141.606
 
 Beta MOs
 -- Occupied --
-66.167 -24.997 -24.992 -24.876 -24.853  -5.818  -4.208  -4.206
 -4.204  -1.811  -1.779  -1.712  -1.688  -1.120  -1.065  -1.036
 -1.007  -1.000  -0.946  -0.926  -0.906  -0.899  -0.881  -0.873
 -- Virtual --
 -0.622  -0.148  -0.083  -0.081  -0.079  -0.025  -0.015   0.000
  0.002   0.080   0.087   0.090   0.097   0.101   0.117   0.121
  0.130   0.144   0.188   0.199   0.205   0.216   0.226   0.230
  0.230   0.235   0.250   0.295   0.296   0.296   0.453   0.457
  0.461   0.526   0.539   0.543   0.546   0.599   0.600   0.608
  0.668   0.668   0.727   0.822   0.840   0.859   1.192   1.203
  1.219   1.238   1.240   1.263   1.273   1.285   1.301   1.307
  1.307   1.327   1.418   1.431   1.442   1.545   1.558   1.573
  1.766   1.776   1.791   1.850   1.858   1.918   1.927   1.928
  1.942   1.955   1.956   2.001   2.086   2.105   2.121   2.336
  2.342   2.359   2.533   2.547   2.549   2.751   2.764   2.776
  2.999   3.027   3.069   3.189   3.603   3.606   4.027   4.031
  4.036   5.789   5.965   5.976   6.056   6.066   6.114   6.129
  6.139   6.153   6.259   6.266   6.291   6.381   6.391   6.404
  6.411   6.415   6.416   6.417   6.429   6.432   6.467   6.509
  6.510   6.518   6.528   6.536   6.536   6.543   6.559   6.578
  6.605   6.657   6.669   6.763   6.803   6.813   6.989   6.994
  7.007   7.407   8.839   8.856   8.865   8.903   8.922   8.992
  9.024   9.032   9.145   9.161   9.176   9.221   9.253   9.285
  9.311   9.330   9.502   9.541   9.592   9.952  12.119  12.128
 12.137  17.368  17.429  17.576  17.636  17.707  21.926  21.933
 21.936  21.940  21.946  21.947  22.011  49.805  49.828  49.832
 49.851  49.904  49.911  49.918  49.938  49.941  49.960  49.985
 50.007  50.045  50.069  50.091  50.094  50.163  50.168  50.258
 50.265  55.307  55.320  55.358  55.374  55.448  55.471  55.493
 55.500  55.578  55.583  55.691  55.715  66.343  66.379  66.470
 66.555 141.606
 --------------------------------------------------------------
 
          Ground-State Mulliken Net Atomic Charges

     Atom                 Charge (a.u.)    Spin (a.u.)
  --------------------------------------------------------
      1 Si                    1.959556      -0.153706
      2 F                    -0.374820       0.046564
      3 F                    -0.335296       0.124607
      4 F                    -0.128428       0.485084
      5 F                    -0.121012       0.497452
  --------------------------------------------------------
  Sum of atomic charges =     1.000000
  Sum of spin   charges =     1.000000

 -----------------------------------------------------------------
                    Cartesian Multipole Moments
 -----------------------------------------------------------------
    Charge (ESU x 10^10)
                 4.8032
    Dipole Moment (Debye)
         X      -1.5476      Y       0.0480      Z      -1.4375
       Tot       2.1128
    Quadrupole Moments (Debye-Ang)
        XX     -26.6913     XY      -0.0365     YY     -23.9255
        XZ       0.9866     YZ      -0.0309     ZZ     -28.0275
    Octapole Moments (Debye-Ang^2)
       XXX      -3.5990    XXY       0.0358    XYY      -0.9739
       YYY       0.1120    XXZ      -0.1609    XYZ       0.0184
       YYZ      -0.9405    XZZ      -0.8647    YZZ       0.0218
       ZZZ      -3.9958
    Hexadecapole Moments (Debye-Ang^3)
      XXXX    -106.8994   XXXY      -0.0892   XXYY     -34.1466
      XYYY      -0.0544   YYYY     -96.3508   XXXZ       1.6743
      XXYZ      -0.0199   XYYZ       0.9335   YYYZ      -0.0803
      XXZZ     -36.0111   XYZZ      -0.0099   YYZZ     -35.0803
      XZZZ       1.2596   YZZZ      -0.0244   ZZZZ    -111.2401
 -----------------------------------------------------------------
 Total job time:  341.87s(wall), 340.59s(cpu) 
 Sun Jul  7 08:47:58 2013

        *************************************************************
        *                                                           *
        *  Thank you very much for using Q-Chem.  Have a nice day.  *
        *                                                           *
        *************************************************************


0 sent ACK to 0 
now end server 0 ... 
