Process 0 of 1 is on cl135 - thread support 1
initial socket setup ...start
initial socket setup ...done 
now start server 0 ... 

cmd = /usr/bin/ssh clhead /usr/local/qchem/bin/get_hostid 821561168 > /tmp/1602330.1.medium.q/qchem10441/lic.dat

cmd = /usr/bin/ssh clhead /usr/local/qchem/bin/get_hostid 821561168 > /tmp/1602330.1.medium.q/qchem10441/lic.dat

cmd = /usr/bin/ssh clhead /usr/local/qchem/bin/get_hostid 821561168 > /tmp/1602330.1.medium.q/qchem10441/lic.dat

cmd = /usr/bin/ssh clhead /usr/local/qchem/bin/get_hostid 821561168 > /tmp/1602330.1.medium.q/qchem10441/lic.dat

cmd = /usr/bin/ssh clhead /usr/local/qchem/bin/get_hostid 821561168 > /tmp/1602330.1.medium.q/qchem10441/lic.dat
                  Welcome to Q-Chem
     A Quantum Leap Into The Future Of Chemistry

 Y. Shao, L. Fusti-Molnar, Y. Jung, J. Kussmann, C. Ochsenfeld,
 S. T. Brown, A. T. B. Gilbert, L. V. Slipchenko,S. V. Levchenko,
 D. P. O'Neill, R. A. DiStasio Jr., R. C. Lochan, T. Wang,
 G. J. O. Beran, N. A. Besley, J. M. Herbert, C. Y. Lin,
 T. Van Voorhis, S. H. Chien, A. Sodt, R. P. Steele, 
 V. A. Rassolov, P. E. Maslen, P. P. Korambath, R. D. Adamson,
 B. Austin, J. Baker, E. F. C. Byrd, H. Dachsel, R. J. Doerksen,
 A. Dreuw, B. D. Dunietz, A. D. Dutoi, T. R. Furlani,
 S. R. Gwaltney, A. Heyden, S. Hirata, C.-P. Hsu, G. Kedziora,
 R. Z. Khaliullin, P. Klunzinger, A. M. Lee, M. S. Lee, W. Liang,
 I. Lotan, N. Nair, B. Peters, E. I. Proynov, P. A. Pieniazek, 
 Y. M. Rhee, J. Ritchie, E. Rosta, C. D. Sherrill, 
 A. C. Simmonett, J. E. Subotnik, H. L. Woodcock III,
 W. Zhang, A. T. Bell, A. K. Chakraborty, D. M. Chipman,
 F. J. Keil, A. Warshel, W. J. Hehre, H. F. Schaefer III,
 J. Kong, A. I. Krylov, P. M. W. Gill, M. Head-Gordon,
 Q-Chem, Version 3.1, Q-Chem, Inc., Pittsburgh, PA (2007).

 Additional authors for Version 3.1: 
 Z. Gan, Y. Zhao, N. E. Schultz, D. Truhlar, E. Epifanovsky and M. Oana.

 Additional authors for Version 3.2: 
 R. Baer, B. R. Brooks, D. Casanova, J.-D. Chai, C.-L. Cheng, 
 C. Cramer, D. Crittenden, A. Ghysels, G. Hawkins, E. G. Hohenstein, 
 C. Kelley, W. Kurlancheek, D. Liotard, E. Livshits, P. Manohar, 
 A. Marenich, D. Neuhauser, R. Olson, M. A. Rohrdanz, K. S. Thanthiriwatte, 
 A. J. W. Thom, V. Vanovschi, C. F. Williams, Q. Wu and Z.-Q. You. 


 Intel X86 Linux Version

 Q-chem begins on Sun Mar 23 14:21:22 2014  

 Parallel job on  1  processors
Processing $rem in /usr/local/qchem/config/preferences.

theFileMan(): MAXOPENFILES=974 MAX_SUB_FILE_NUM=16
Maximum size of a physical file is 2.0 GB, maximum size of a tmp-file is 32.0 GB


--------------------------------------------------------------
User input:
--------------------------------------------------------------

$molecule
-1,2
O          0.01286        0.00000        0.01011
H         -0.00638        0.00000        0.96340
H          0.93480        0.00000       -0.23309
$end

$comment
negative
$end

$xc_functional
C PBE   1.00
X wPBE  1.00
$end

$rem
SYMMETRY_DECOMPOSITION	0
exchange 		general
LRC_DFT                 true
BASIS                   g3large
omega			510
mem_static              760
max_scf_cycles          200
scf_final_print         1
sym_ignore              true
$end

--------------------------------------------------------------
 Writing REM_CC_EA            3
 ----------------------------------------------------
       Standard Nuclear Orientation (Angstroms)
    I     Atom         X            Y            Z
 ----------------------------------------------------
    1      O       0.012860     0.000000     0.010110
    2      H      -0.006380     0.000000     0.963400
    3      H       0.934800     0.000000    -0.233090
 ----------------------------------------------------
 Nuclear Repulsion Energy =     9.2275375290 hartrees
 There are        6 alpha and        5 beta electrons
 Requested basis set is G3large
 There are 22 shells and 62 basis functions

Total QAlloc Memory Limit   2000 MB
Mega-Array Size       743 MB
MEM_STATIC part       760 MB

                       Distance Matrix (Angstroms)
             O (  1)   H (  2)
   H (  2)  0.953484
   H (  3)  0.953478  1.522304
 
 A cutoff of  1.0D-08 yielded    253 shell pairs
 There are   2043 function pairs (  2475 Cartesian)
Evaluating contribution to one-electron hamiltonian from nuclear
 Smallest overlap matrix eigenvalue = 2.08E-03
 Multipole matrices computed through 2nd order

  Scale SEOQF with 1.000000e-01/1.000000e+00/1.000000e-01

 Standard Electronic Orientation quadrupole field applied
 Guess from superposition of atomic densities
 Warning:  Energy on first SCF cycle will be non-variational
 Long-range K will be added via erf
 Coulomb attenuation parameter = 0.51 bohr**(-1)
 An unrestricted Kohn-Sham SCF calculation will be
 performed using Pulay DIIS extrapolation
 Exchange:  wPBE + LR-HF      Correlation:  PBE
 Using SG-1 standard quadrature grid
 SCF converges when DIIS error is below 1.0E-05
 Requested basis set is G3large
 There are 22 shells and 62 basis functions
 A cutoff of  1.0D-08 yielded    253 shell pairs
 There are   2043 function pairs (  2475 Cartesian)
 Warning!  Inaccurate integrated density:
   Number of electrons =    11
   Numerical integral  =     9.999980851497
   Relative error      =    -9.0910831682 %
 ---------------------------------------
  Cycle       Energy         DIIS Error
 ---------------------------------------
    1     -76.3820517557      5.31E-02
    2     -76.2963459726      1.42E-02
    3     -76.3248598663      1.40E-02
    4     -76.3856835420      8.56E-04
    5     -76.3873308015      2.94E-04
    6     -76.3877120200      1.10E-04
    7     -76.3877916921      2.87E-05
    8     -76.3877960911      6.07E-06 Convergence criterion met
 ---------------------------------------
 One-Electron    Energy =  -125.0663792436
 Total Coulomb   Energy =    48.8577770157
 Alpha Exchange  Energy =    -1.3232137374
 Beta  Exchange  Energy =    -1.2367732003
 DFT   Exchange  Energy =    -6.5123718074
 DFT Correlation Energy =    -0.3343726471
 Nuclear Repu.   Energy =     9.2275375290
 Nuclear Attr.   Energy =  -201.3633817344
 Kinetic         Energy =    76.2970024907
 <S^2> = 0.7503
 SCF time:  CPU 6.41 s  wall 7.43 s
 Final Alpha MO Eigenvalues
            1           2           3           4           5           6
    1 -18.8209110  -1.0035568  -0.4977267  -0.3536793  -0.2780348   0.0292631
            7           8           9          10          11
    1   0.1756733   0.3698646   0.3834379   0.3876848   0.4049235
 Final Beta MO Eigenvalues
            1           2           3           4           5           6
    1 -18.8200588  -1.0001116  -0.4963377  -0.3518242  -0.2772126   0.1802864
            7           8           9          10
    1   0.2001217   0.3800826   0.3937766   0.4013867
 Analysis of SCF Wavefunction
 
 --------------------------------------------------------------
                    Orbital Energies (a.u.)
 --------------------------------------------------------------
 
 Alpha MOs
 -- Occupied --
-18.821  -1.004  -0.498  -0.354  -0.278   0.029
 -- Virtual --
  0.176   0.370   0.383   0.388   0.405   0.454   0.471   0.799
  0.841   0.939   0.983   1.069   1.172   1.193   1.326   1.344
  1.582   1.699   1.727   2.102   2.128   2.230   2.476   2.561
  2.776   3.174   3.932   3.973   3.979   4.224   4.417   4.553
  5.220   5.333   5.419   5.507   5.638   5.835   5.974   6.088
  7.203   7.240   7.329   7.367   7.622   7.700   7.824  44.051
 44.063  44.088  44.139  44.208  45.834  46.219  46.642  50.034
 
 Beta MOs
 -- Occupied --
-18.820  -1.000  -0.496  -0.352  -0.277
 -- Virtual --
  0.180   0.200   0.380   0.394   0.401   0.405   0.458   0.474
  0.797   0.841   0.942   0.987   1.072   1.172   1.192   1.329
  1.344   1.582   1.700   1.730   2.104   2.129   2.231   2.477
  2.562   2.775   3.174   3.933   3.973   3.979   4.225   4.418
  4.556   5.220   5.334   5.421   5.508   5.640   5.836   5.975
  6.089   7.205   7.241   7.332   7.369   7.623   7.702   7.826
 44.051  44.063  44.089  44.139  44.208  45.834  46.221  46.643
 50.035
 --------------------------------------------------------------
 
          Ground-State Mulliken Net Atomic Charges

     Atom                 Charge (a.u.)    Spin (a.u.)
  --------------------------------------------------------
      1 O                    -0.105304      -0.423506
      2 H                    -0.447061       0.711456
      3 H                    -0.447635       0.712049
  --------------------------------------------------------
  Sum of atomic charges =    -1.000000
  Sum of spin   charges =     1.000000

 -----------------------------------------------------------------
                    Cartesian Multipole Moments
 -----------------------------------------------------------------
    Charge (ESU x 10^10)
                -4.8032
    Dipole Moment (Debye)
         X      -2.0902      Y       0.0000      Z      -1.6416
       Tot       2.6578
    Quadrupole Moments (Debye-Ang)
        XX     -22.3047     XY       0.0000     YY     -21.1034
        XZ      -0.8965     YZ       0.0000     ZZ     -21.8665
    Octapole Moments (Debye-Ang^2)
       XXX     -28.4722    XXY       0.0000    XYY      -8.9559
       YYY       0.0000    XXZ      -7.2182    XYZ       0.0000
       YYZ      -7.0384    XZZ      -9.3596    YZZ       0.0000
       ZZZ     -22.5106
    Hexadecapole Moments (Debye-Ang^3)
      XXXX    -148.7989   XXXY       0.0000   XXYY     -41.9249
      XYYY       0.0000   YYYY    -103.8587   XXXZ      -1.1291
      XXYZ       0.0000   XYYZ      -0.3611   YYYZ       0.0000
      XXZZ     -49.2088   XYZZ       0.0000   YYZZ     -41.7420
      XZZZ      -1.2750   YZZZ       0.0001   ZZZZ    -147.5824
 -----------------------------------------------------------------
 Total job time:  7.53s(wall), 6.48s(cpu) 
 Sun Mar 23 14:21:29 2014

        *************************************************************
        *                                                           *
        *  Thank you very much for using Q-Chem.  Have a nice day.  *
        *                                                           *
        *************************************************************


0 sent ACK to 0 
now end server 0 ... 
 
**********************************************************************
Job 2 of 3 
**********************************************************************
 
Process 0 of 1 is on cl135 - thread support 1
initial socket setup ...start
initial socket setup ...done 
now start server 0 ... 

cmd = /usr/bin/ssh clhead /usr/local/qchem/bin/get_hostid 701790030 > /tmp/1602330.1.medium.q/qchem10441/lic.dat

cmd = /usr/bin/ssh clhead /usr/local/qchem/bin/get_hostid 701790030 > /tmp/1602330.1.medium.q/qchem10441/lic.dat

cmd = /usr/bin/ssh clhead /usr/local/qchem/bin/get_hostid 701790030 > /tmp/1602330.1.medium.q/qchem10441/lic.dat

cmd = /usr/bin/ssh clhead /usr/local/qchem/bin/get_hostid 701790030 > /tmp/1602330.1.medium.q/qchem10441/lic.dat

cmd = /usr/bin/ssh clhead /usr/local/qchem/bin/get_hostid 701790030 > /tmp/1602330.1.medium.q/qchem10441/lic.dat
                  Welcome to Q-Chem
     A Quantum Leap Into The Future Of Chemistry

 Y. Shao, L. Fusti-Molnar, Y. Jung, J. Kussmann, C. Ochsenfeld,
 S. T. Brown, A. T. B. Gilbert, L. V. Slipchenko,S. V. Levchenko,
 D. P. O'Neill, R. A. DiStasio Jr., R. C. Lochan, T. Wang,
 G. J. O. Beran, N. A. Besley, J. M. Herbert, C. Y. Lin,
 T. Van Voorhis, S. H. Chien, A. Sodt, R. P. Steele, 
 V. A. Rassolov, P. E. Maslen, P. P. Korambath, R. D. Adamson,
 B. Austin, J. Baker, E. F. C. Byrd, H. Dachsel, R. J. Doerksen,
 A. Dreuw, B. D. Dunietz, A. D. Dutoi, T. R. Furlani,
 S. R. Gwaltney, A. Heyden, S. Hirata, C.-P. Hsu, G. Kedziora,
 R. Z. Khaliullin, P. Klunzinger, A. M. Lee, M. S. Lee, W. Liang,
 I. Lotan, N. Nair, B. Peters, E. I. Proynov, P. A. Pieniazek, 
 Y. M. Rhee, J. Ritchie, E. Rosta, C. D. Sherrill, 
 A. C. Simmonett, J. E. Subotnik, H. L. Woodcock III,
 W. Zhang, A. T. Bell, A. K. Chakraborty, D. M. Chipman,
 F. J. Keil, A. Warshel, W. J. Hehre, H. F. Schaefer III,
 J. Kong, A. I. Krylov, P. M. W. Gill, M. Head-Gordon,
 Q-Chem, Version 3.1, Q-Chem, Inc., Pittsburgh, PA (2007).

 Additional authors for Version 3.1: 
 Z. Gan, Y. Zhao, N. E. Schultz, D. Truhlar, E. Epifanovsky and M. Oana.

 Additional authors for Version 3.2: 
 R. Baer, B. R. Brooks, D. Casanova, J.-D. Chai, C.-L. Cheng, 
 C. Cramer, D. Crittenden, A. Ghysels, G. Hawkins, E. G. Hohenstein, 
 C. Kelley, W. Kurlancheek, D. Liotard, E. Livshits, P. Manohar, 
 A. Marenich, D. Neuhauser, R. Olson, M. A. Rohrdanz, K. S. Thanthiriwatte, 
 A. J. W. Thom, V. Vanovschi, C. F. Williams, Q. Wu and Z.-Q. You. 


 Intel X86 Linux Version

 Q-chem begins on Sun Mar 23 14:21:33 2014  

 Parallel job on  1  processors
Processing $rem in /usr/local/qchem/config/preferences.

theFileMan(): MAXOPENFILES=974 MAX_SUB_FILE_NUM=16
Maximum size of a physical file is 2.0 GB, maximum size of a tmp-file is 32.0 GB


--------------------------------------------------------------
User input:
--------------------------------------------------------------

$molecule
0,1
O          0.01286        0.00000        0.01011
H         -0.00638        0.00000        0.96340
H          0.93480        0.00000       -0.23309
$end

$comment
neutral
$end

$xc_functional
C PBE   1.00
X wPBE  1.00
$end


$rem
SYMMETRY_DECOMPOSITION	0
LRC_DFT                 true
exchange 		general
BASIS                   g3large
omega			510
mem_static              760
max_scf_cycles          200
scf_final_print         1
sym_ignore              true
$end

--------------------------------------------------------------
 Writing REM_CC_EA            3
 ----------------------------------------------------
       Standard Nuclear Orientation (Angstroms)
    I     Atom         X            Y            Z
 ----------------------------------------------------
    1      O       0.012860     0.000000     0.010110
    2      H      -0.006380     0.000000     0.963400
    3      H       0.934800     0.000000    -0.233090
 ----------------------------------------------------
 Nuclear Repulsion Energy =     9.2275375290 hartrees
 There are        5 alpha and        5 beta electrons
 Requested basis set is G3large
 There are 22 shells and 62 basis functions

Total QAlloc Memory Limit   2000 MB
Mega-Array Size       743 MB
MEM_STATIC part       760 MB

                       Distance Matrix (Angstroms)
             O (  1)   H (  2)
   H (  2)  0.953484
   H (  3)  0.953478  1.522304
 
 A cutoff of  1.0D-08 yielded    253 shell pairs
 There are   2043 function pairs (  2475 Cartesian)
Evaluating contribution to one-electron hamiltonian from nuclear
 Smallest overlap matrix eigenvalue = 2.08E-03
 Multipole matrices computed through 2nd order

  Scale SEOQF with 1.000000e-01/1.000000e+00/1.000000e-01

 Standard Electronic Orientation quadrupole field applied
 Guess from superposition of atomic densities
 Warning:  Energy on first SCF cycle will be non-variational
 Long-range K will be added via erf
 Coulomb attenuation parameter = 0.51 bohr**(-1)
 A restricted Kohn-Sham SCF calculation will be
 performed using Pulay DIIS extrapolation
 Exchange:  wPBE + LR-HF      Correlation:  PBE
 Using SG-1 standard quadrature grid
 SCF converges when DIIS error is below 1.0E-05
 Requested basis set is G3large
 There are 22 shells and 62 basis functions
 A cutoff of  1.0D-08 yielded    253 shell pairs
 There are   2043 function pairs (  2475 Cartesian)
 ---------------------------------------
  Cycle       Energy         DIIS Error
 ---------------------------------------
    1     -76.3820517557      5.31E-02
    2     -76.3635243283      1.28E-02
    3     -76.3862278341      1.10E-02
    4     -76.4214868614      7.34E-04
    5     -76.4216844441      1.67E-04
    6     -76.4217119086      3.58E-05
    7     -76.4217139783      6.95E-06 Convergence criterion met
 ---------------------------------------
 One-Electron    Energy =  -123.1551199205
 Total Coulomb   Energy =    46.8153591145
 Alpha Exchange  Energy =    -1.2385506828
 Beta  Exchange  Energy =    -1.2385506828
 DFT   Exchange  Energy =    -6.5059664972
 DFT Correlation Energy =    -0.3264228385
 Nuclear Repu.   Energy =     9.2275375290
 Nuclear Attr.   Energy =  -199.3685033508
 Kinetic         Energy =    76.2133834303
 SCF time:  CPU 5.03 s  wall 5.84 s
 Final Alpha MO Eigenvalues
            1           2           3           4           5           6
    1 -19.0177829  -1.1991425  -0.6940222  -0.5441916  -0.4716171   0.0405369
            7           8           9          10
    1   0.0704265   0.2261414   0.2343436   0.2386986
 Analysis of SCF Wavefunction
 
 --------------------------------------------------------------
                    Orbital Energies (a.u.)
 --------------------------------------------------------------
 
 Alpha MOs
 -- Occupied --
-19.018  -1.199  -0.694  -0.544  -0.472
 -- Virtual --
  0.041   0.070   0.226   0.234   0.239   0.247   0.298   0.312
  0.615   0.655   0.745   0.787   0.875   0.993   1.014   1.135
  1.162   1.395   1.504   1.536   1.909   1.935   2.037   2.286
  2.371   2.580   2.979   3.732   3.772   3.778   4.024   4.218
  4.353   5.027   5.140   5.226   5.314   5.442   5.640   5.778
  5.893   7.009   7.047   7.134   7.174   7.430   7.502   7.632
 43.854  43.867  43.892  43.942  44.011  45.638  46.023  46.445
 49.838
 --------------------------------------------------------------
 
          Ground-State Mulliken Net Atomic Charges

     Atom                 Charge (a.u.)
  ----------------------------------------
      1 O                    -0.488274
      2 H                     0.244145
      3 H                     0.244129
  ----------------------------------------
  Sum of atomic charges =     0.000000

 -----------------------------------------------------------------
                    Cartesian Multipole Moments
 -----------------------------------------------------------------
    Charge (ESU x 10^10)
                 0.0000
    Dipole Moment (Debye)
         X       1.5900      Y       0.0000      Z       1.2507
       Tot       2.0230
    Quadrupole Moments (Debye-Ang)
        XX      -5.2494     XY       0.0000     YY      -7.6570
        XZ      -0.7684     YZ      -0.0001     ZZ      -4.8770
    Octapole Moments (Debye-Ang^2)
       XXX       0.2572    XXY       0.0000    XYY      -0.5032
       YYY       0.0000    XXZ      -0.8640    XYZ       0.0000
       YYZ      -0.3958    XZZ      -0.4213    YZZ      -0.0001
       ZZZ       0.7352
    Hexadecapole Moments (Debye-Ang^3)
      XXXX      -6.0420   XXXY       0.0001   XXYY      -2.5152
      XYYY       0.0001   YYYY      -7.0356   XXXZ      -0.5519
      XXYZ       0.0000   XYYZ       0.0016   YYYZ      -0.0001
      XXZZ      -2.5051   XYZZ       0.0000   YYZZ      -2.5159
      XZZZ      -0.1300   YZZZ      -0.0001   ZZZZ      -5.7115
 -----------------------------------------------------------------
 Total job time:  5.94s(wall), 5.09s(cpu) 
 Sun Mar 23 14:21:39 2014

        *************************************************************
        *                                                           *
        *  Thank you very much for using Q-Chem.  Have a nice day.  *
        *                                                           *
        *************************************************************


0 sent ACK to 0 
now end server 0 ... 
 
**********************************************************************
Job 3 of 3 
**********************************************************************
 
Process 0 of 1 is on cl135 - thread support 1
initial socket setup ...start
initial socket setup ...done 
now start server 0 ... 

cmd = /usr/bin/ssh clhead /usr/local/qchem/bin/get_hostid 1956067829 > /tmp/1602330.1.medium.q/qchem10441/lic.dat

cmd = /usr/bin/ssh clhead /usr/local/qchem/bin/get_hostid 1956067829 > /tmp/1602330.1.medium.q/qchem10441/lic.dat

cmd = /usr/bin/ssh clhead /usr/local/qchem/bin/get_hostid 1956067829 > /tmp/1602330.1.medium.q/qchem10441/lic.dat

cmd = /usr/bin/ssh clhead /usr/local/qchem/bin/get_hostid 1956067829 > /tmp/1602330.1.medium.q/qchem10441/lic.dat

cmd = /usr/bin/ssh clhead /usr/local/qchem/bin/get_hostid 1956067829 > /tmp/1602330.1.medium.q/qchem10441/lic.dat
                  Welcome to Q-Chem
     A Quantum Leap Into The Future Of Chemistry

 Y. Shao, L. Fusti-Molnar, Y. Jung, J. Kussmann, C. Ochsenfeld,
 S. T. Brown, A. T. B. Gilbert, L. V. Slipchenko,S. V. Levchenko,
 D. P. O'Neill, R. A. DiStasio Jr., R. C. Lochan, T. Wang,
 G. J. O. Beran, N. A. Besley, J. M. Herbert, C. Y. Lin,
 T. Van Voorhis, S. H. Chien, A. Sodt, R. P. Steele, 
 V. A. Rassolov, P. E. Maslen, P. P. Korambath, R. D. Adamson,
 B. Austin, J. Baker, E. F. C. Byrd, H. Dachsel, R. J. Doerksen,
 A. Dreuw, B. D. Dunietz, A. D. Dutoi, T. R. Furlani,
 S. R. Gwaltney, A. Heyden, S. Hirata, C.-P. Hsu, G. Kedziora,
 R. Z. Khaliullin, P. Klunzinger, A. M. Lee, M. S. Lee, W. Liang,
 I. Lotan, N. Nair, B. Peters, E. I. Proynov, P. A. Pieniazek, 
 Y. M. Rhee, J. Ritchie, E. Rosta, C. D. Sherrill, 
 A. C. Simmonett, J. E. Subotnik, H. L. Woodcock III,
 W. Zhang, A. T. Bell, A. K. Chakraborty, D. M. Chipman,
 F. J. Keil, A. Warshel, W. J. Hehre, H. F. Schaefer III,
 J. Kong, A. I. Krylov, P. M. W. Gill, M. Head-Gordon,
 Q-Chem, Version 3.1, Q-Chem, Inc., Pittsburgh, PA (2007).

 Additional authors for Version 3.1: 
 Z. Gan, Y. Zhao, N. E. Schultz, D. Truhlar, E. Epifanovsky and M. Oana.

 Additional authors for Version 3.2: 
 R. Baer, B. R. Brooks, D. Casanova, J.-D. Chai, C.-L. Cheng, 
 C. Cramer, D. Crittenden, A. Ghysels, G. Hawkins, E. G. Hohenstein, 
 C. Kelley, W. Kurlancheek, D. Liotard, E. Livshits, P. Manohar, 
 A. Marenich, D. Neuhauser, R. Olson, M. A. Rohrdanz, K. S. Thanthiriwatte, 
 A. J. W. Thom, V. Vanovschi, C. F. Williams, Q. Wu and Z.-Q. You. 


 Intel X86 Linux Version

 Q-chem begins on Sun Mar 23 14:21:43 2014  

 Parallel job on  1  processors
Processing $rem in /usr/local/qchem/config/preferences.

theFileMan(): MAXOPENFILES=974 MAX_SUB_FILE_NUM=16
Maximum size of a physical file is 2.0 GB, maximum size of a tmp-file is 32.0 GB


--------------------------------------------------------------
User input:
--------------------------------------------------------------

$molecule
1,2
O          0.01286        0.00000        0.01011
H         -0.00638        0.00000        0.96340
H          0.93480        0.00000       -0.23309
$end

$comment
positive
$end

$xc_functional
C PBE   1.00
X wPBE  1.00
$end

$rem
SYMMETRY_DECOMPOSITION	0
LRC_DFT                 true
exchange 		general
BASIS                   g3large
omega			510
mem_static              760
max_scf_cycles          200
scf_final_print         1
sym_ignore              true
$end

--------------------------------------------------------------
 Writing REM_CC_EA            3
 ----------------------------------------------------
       Standard Nuclear Orientation (Angstroms)
    I     Atom         X            Y            Z
 ----------------------------------------------------
    1      O       0.012860     0.000000     0.010110
    2      H      -0.006380     0.000000     0.963400
    3      H       0.934800     0.000000    -0.233090
 ----------------------------------------------------
 Nuclear Repulsion Energy =     9.2275375290 hartrees
 There are        5 alpha and        4 beta electrons
 Requested basis set is G3large
 There are 22 shells and 62 basis functions

Total QAlloc Memory Limit   2000 MB
Mega-Array Size       743 MB
MEM_STATIC part       760 MB

                       Distance Matrix (Angstroms)
             O (  1)   H (  2)
   H (  2)  0.953484
   H (  3)  0.953478  1.522304
 
 A cutoff of  1.0D-08 yielded    253 shell pairs
 There are   2043 function pairs (  2475 Cartesian)
Evaluating contribution to one-electron hamiltonian from nuclear
 Smallest overlap matrix eigenvalue = 2.08E-03
 Multipole matrices computed through 2nd order

  Scale SEOQF with 1.000000e-01/1.000000e+00/1.000000e-01

 Standard Electronic Orientation quadrupole field applied
 Guess from superposition of atomic densities
 Warning:  Energy on first SCF cycle will be non-variational
 Long-range K will be added via erf
 Coulomb attenuation parameter = 0.51 bohr**(-1)
 An unrestricted Kohn-Sham SCF calculation will be
 performed using Pulay DIIS extrapolation
 Exchange:  wPBE + LR-HF      Correlation:  PBE
 Using SG-1 standard quadrature grid
 SCF converges when DIIS error is below 1.0E-05
 Requested basis set is G3large
 There are 22 shells and 62 basis functions
 A cutoff of  1.0D-08 yielded    253 shell pairs
 There are   2043 function pairs (  2475 Cartesian)
 Warning!  Inaccurate integrated density:
   Number of electrons =     9
   Numerical integral  =     9.999980851497
   Relative error      =    11.1108983500 %
 ---------------------------------------
  Cycle       Energy         DIIS Error
 ---------------------------------------
    1     -76.3820517557      5.31E-02
    2     -75.8972003765      9.34E-03
    3     -75.9410092433      4.90E-03
    4     -75.9484446221      9.32E-04
    5     -75.9497088348      3.98E-04
    6     -75.9503470910      2.50E-04
    7     -75.9509504549      1.35E-04
    8     -75.9511755622      8.15E-05
    9     -75.9512758930      4.69E-05
   10     -75.9513167990      9.07E-06 Convergence criterion met
 ---------------------------------------
 One-Electron    Energy =  -118.2343508380
 Total Coulomb   Energy =    42.0190158070
 Alpha Exchange  Energy =    -1.2681450364
 Beta  Exchange  Energy =    -1.0115983825
 DFT   Exchange  Energy =    -6.3978642439
 DFT Correlation Energy =    -0.2859116342
 Nuclear Repu.   Energy =     9.2275375290
 Nuclear Attr.   Energy =  -194.1752548778
 Kinetic         Energy =    75.9409040398
 <S^2> = 0.7526
 SCF time:  CPU 8.57 s  wall 9.59 s
 Final Alpha MO Eigenvalues
            1           2           3           4           5           6
    1 -19.5788043  -1.7191708  -1.1719129  -1.0470995  -1.0300106  -0.1930958
            7           8           9          10
    1  -0.1233534  -0.0329052  -0.0325732  -0.0211866
 Final Beta MO Eigenvalues
            1           2           3           4           5           6
    1 -19.5538301  -1.6435026  -1.1505059  -1.0000706  -0.4674681  -0.1869819
            7           8           9
    1  -0.1205831  -0.0283692  -0.0195748
 Analysis of SCF Wavefunction
 
 --------------------------------------------------------------
                    Orbital Energies (a.u.)
 --------------------------------------------------------------
 
 Alpha MOs
 -- Occupied --
-19.579  -1.719  -1.172  -1.047  -1.030
 -- Virtual --
 -0.193  -0.123  -0.033  -0.033  -0.021  -0.014   0.054   0.058
  0.295   0.327   0.395   0.424   0.508   0.636   0.674   0.739
  0.807   1.005   1.128   1.137   1.448   1.473   1.612   1.899
  1.935   2.170   2.556   3.302   3.345   3.362   3.610   3.788
  3.920   4.444   4.617   4.680   4.767   4.967   5.115   5.272
  5.430   6.433   6.471   6.632   6.677   6.869   7.026   7.134
 43.269  43.281  43.309  43.383  43.472  45.046  45.475  45.896
 49.280
 
 Beta MOs
 -- Occupied --
-19.554  -1.644  -1.151  -1.000
 -- Virtual --
 -0.467  -0.187  -0.121  -0.028  -0.020  -0.012  -0.010   0.060
  0.061   0.296   0.332   0.403   0.443   0.533   0.658   0.680
  0.805   0.808   1.034   1.146   1.159   1.505   1.529   1.625
  1.903   1.989   2.176   2.566   3.311   3.359   3.361   3.609
  3.794   3.932   4.580   4.675   4.765   4.852   4.982   5.194
  5.322   5.437   6.543   6.582   6.663   6.713   6.988   7.044
  7.155  43.332  43.345  43.365  43.421  43.478  45.121  45.490
 45.913  49.306
 --------------------------------------------------------------
 
          Ground-State Mulliken Net Atomic Charges

     Atom                 Charge (a.u.)    Spin (a.u.)
  --------------------------------------------------------
      1 O                     0.307058       1.043338
      2 H                     0.346477      -0.021665
      3 H                     0.346465      -0.021674
  --------------------------------------------------------
  Sum of atomic charges =     1.000000
  Sum of spin   charges =     1.000000

 -----------------------------------------------------------------
                    Cartesian Multipole Moments
 -----------------------------------------------------------------
    Charge (ESU x 10^10)
                 4.8032
    Dipole Moment (Debye)
         X       2.1803      Y      -0.0004      Z       1.7151
       Tot       2.7741
    Quadrupole Moments (Debye-Ang)
        XX      -3.0620     XY       0.0006     YY      -4.7290
        XZ      -0.7968     YZ       0.0004     ZZ      -2.6759
    Octapole Moments (Debye-Ang^2)
       XXX       1.2835    XXY       0.0001    XYY      -0.3123
       YYY      -0.0002    XXZ      -0.8996    XYZ       0.0000
       YYZ      -0.2457    XZZ      -0.2450    YZZ       0.0000
       ZZZ       1.7166
    Hexadecapole Moments (Debye-Ang^3)
      XXXX      -2.3387   XXXY       0.0004   XXYY      -1.2490
      XYYY       0.0004   YYYY      -2.7057   XXXZ      -0.6071
      XXYZ       0.0001   XYYZ       0.0182   YYYZ       0.0002
      XXZZ      -1.4483   XYZZ       0.0001   YYZZ      -1.2578
      XZZZ      -0.0496   YZZZ       0.0002   ZZZZ      -2.0206
 -----------------------------------------------------------------
 Total job time:  9.69s(wall), 8.64s(cpu) 
 Sun Mar 23 14:21:53 2014

        *************************************************************
        *                                                           *
        *  Thank you very much for using Q-Chem.  Have a nice day.  *
        *                                                           *
        *************************************************************


0 sent ACK to 0 
now end server 0 ... 
