Process 0 of 1 is on cl070.stfx.acenet.ca - thread support 1
initial socket setup ...start
initial socket setup ...done 
now start server 0 ... 

cmd = /usr/bin/ssh clhead /usr/local/qchem/bin/get_hostid 318993269 > /scratch/tmp/6060893.1.short.q/qchem19100/lic.dat
                  Welcome to Q-Chem
     A Quantum Leap Into The Future Of Chemistry

 Y. Shao, L. Fusti-Molnar, Y. Jung, J. Kussmann, C. Ochsenfeld,
 S. T. Brown, A. T. B. Gilbert, L. V. Slipchenko,S. V. Levchenko,
 D. P. O'Neill, R. A. DiStasio Jr., R. C. Lochan, T. Wang,
 G. J. O. Beran, N. A. Besley, J. M. Herbert, C. Y. Lin,
 T. Van Voorhis, S. H. Chien, A. Sodt, R. P. Steele, 
 V. A. Rassolov, P. E. Maslen, P. P. Korambath, R. D. Adamson,
 B. Austin, J. Baker, E. F. C. Byrd, H. Dachsel, R. J. Doerksen,
 A. Dreuw, B. D. Dunietz, A. D. Dutoi, T. R. Furlani,
 S. R. Gwaltney, A. Heyden, S. Hirata, C.-P. Hsu, G. Kedziora,
 R. Z. Khaliullin, P. Klunzinger, A. M. Lee, M. S. Lee, W. Liang,
 I. Lotan, N. Nair, B. Peters, E. I. Proynov, P. A. Pieniazek, 
 Y. M. Rhee, J. Ritchie, E. Rosta, C. D. Sherrill, 
 A. C. Simmonett, J. E. Subotnik, H. L. Woodcock III,
 W. Zhang, A. T. Bell, A. K. Chakraborty, D. M. Chipman,
 F. J. Keil, A. Warshel, W. J. Hehre, H. F. Schaefer III,
 J. Kong, A. I. Krylov, P. M. W. Gill, M. Head-Gordon,
 Q-Chem, Version 3.1, Q-Chem, Inc., Pittsburgh, PA (2007).

 Additional authors for Version 3.1: 
 Z. Gan, Y. Zhao, N. E. Schultz, D. Truhlar, E. Epifanovsky and M. Oana.

 Additional authors for Version 3.2: 
 R. Baer, B. R. Brooks, D. Casanova, J.-D. Chai, C.-L. Cheng, 
 C. Cramer, D. Crittenden, A. Ghysels, G. Hawkins, E. G. Hohenstein, 
 C. Kelley, W. Kurlancheek, D. Liotard, E. Livshits, P. Manohar, 
 A. Marenich, D. Neuhauser, R. Olson, M. A. Rohrdanz, K. S. Thanthiriwatte, 
 A. J. W. Thom, V. Vanovschi, C. F. Williams, Q. Wu and Z.-Q. You. 


 Intel X86 Linux Version

 Q-chem begins on Thu Jul  4 11:07:34 2013  

 Parallel job on  1  processors
Processing $rem in /usr/local/qchem/config/preferences.

theFileMan(): MAXOPENFILES=974 MAX_SUB_FILE_NUM=16
Maximum size of a physical file is 2.0 GB, maximum size of a tmp-file is 32.0 GB


--------------------------------------------------------------
User input:
--------------------------------------------------------------

$molecule
-1,1
C          0.00021        0.00000       -0.00228
C          0.00782        0.00000        1.30302
H          0.93106        0.00000       -0.58491
H         -0.92808        0.00000       -0.57941
H          0.72667        0.00000        2.11648
$end

$comment
negative
$end

$xc_functional
C PBE   1.00
X wPBE  1.00
$end

$rem
SYMMETRY_DECOMPOSITION	0
exchange 		general
LRC_DFT                 true
BASIS                   g3large
omega			800
mem_static              760
max_scf_cycles          200
scf_final_print         1
sym_ignore              true
$end

--------------------------------------------------------------
 Writing REM_CC_EA            5
 ----------------------------------------------------
       Standard Nuclear Orientation (Angstroms)
    I     Atom         X            Y            Z
 ----------------------------------------------------
    1      C       0.000210     0.000000    -0.002280
    2      C       0.007820     0.000000     1.303020
    3      H       0.931060     0.000000    -0.584910
    4      H      -0.928080     0.000000    -0.579410
    5      H       0.726670     0.000000     2.116480
 ----------------------------------------------------
 Nuclear Repulsion Energy =    28.4010854523 hartrees
 There are        8 alpha and        8 beta electrons
 Requested basis set is G3large
 There are 38 shells and 114 basis functions

Total QAlloc Memory Limit   2000 MB
Mega-Array Size       743 MB
MEM_STATIC part       760 MB

                       Distance Matrix (Angstroms)
             C (  1)   C (  2)   H (  3)   H (  4)
   C (  2)  1.305322
   H (  3)  1.098153  2.101583
   H (  4)  1.093070  2.102249  1.859148
   H (  5)  2.239841  1.085570  2.709111  3.163229
 
 A cutoff of  1.0D-08 yielded    732 shell pairs
 There are   6640 function pairs (  8147 Cartesian)
Evaluating contribution to one-electron hamiltonian from nuclear
 Smallest overlap matrix eigenvalue = 1.16E-04
 Multipole matrices computed through 2nd order

  Scale SEOQF with 1.000000e-01/1.000000e-01/1.000000e-01

 Standard Electronic Orientation quadrupole field applied
 Nucleus-field energy     =    -0.0000000016 hartrees
 Guess from superposition of atomic densities
 Warning:  Energy on first SCF cycle will be non-variational
 Long-range K will be added via erf
 Coulomb attenuation parameter = 0.8 bohr**(-1)
 A restricted Kohn-Sham SCF calculation will be
 performed using Pulay DIIS extrapolation
 Exchange:  wPBE + LR-HF      Correlation:  PBE
 Using SG-1 standard quadrature grid
 SCF converges when DIIS error is below 1.0E-05
 Requested basis set is G3large
 There are 38 shells and 114 basis functions
 A cutoff of  1.0D-08 yielded    732 shell pairs
 There are   6640 function pairs (  8147 Cartesian)
 Warning!  Inaccurate integrated density:
   Number of electrons =    16
   Numerical integral  =    14.999948354761
   Relative error      =    -6.2503227827 %
 ---------------------------------------
  Cycle       Energy         DIIS Error
 ---------------------------------------
    1     -78.2021869340      3.78E-02
    2     -77.7396631170      6.59E-03
    3     -77.8160548714      4.02E-03
    4     -77.8453056533      6.78E-04
    5     -77.8493665002      3.71E-04
    6     -77.8506492594      2.29E-04
    7     -77.8514535673      9.91E-05
    8     -77.8516458007      2.37E-05
    9     -77.8516543118      7.19E-06 Convergence criterion met
 ---------------------------------------
 One-Electron    Energy =  -163.8106402968
 Total Coulomb   Energy =    69.5982000042
 Alpha Exchange  Energy =    -2.4840413184
 Beta  Exchange  Energy =    -2.4840413184
 DFT   Exchange  Energy =    -6.5818312381
 DFT Correlation Energy =    -0.4903855950
 Nuclear Repu.   Energy =    28.4010854507
 Nuclear Attr.   Energy =  -241.3673626403
 Kinetic         Energy =    77.5567223435
 SCF time:  CPU 23.70 s  wall 23.94 s
 Final Alpha MO Eigenvalues
            1           2           3           4           5           6
    1 -10.0682335 -10.0298558  -0.7452541  -0.5100027  -0.3758755  -0.3408760
            7           8           9          10          11          12
    1  -0.1595855  -0.0476205   0.1785880   0.1839380   0.1891397   0.2732152
           13
    1   0.2833115
 Analysis of SCF Wavefunction
 
 --------------------------------------------------------------
                    Orbital Energies (a.u.)
 --------------------------------------------------------------
 
 Alpha MOs
 -- Occupied --
-10.068 -10.030  -0.745  -0.510  -0.376  -0.341  -0.160  -0.048
 -- Virtual --
  0.179   0.184   0.189   0.273   0.283   0.288   0.303   0.344
  0.351   0.367   0.380   0.426   0.437   0.460   0.553   0.674
  0.780   0.796   0.849   0.879   0.888   0.905   0.966   0.977
  0.980   0.996   1.035   1.040   1.133   1.137   1.168   1.278
  1.323   1.349   1.437   1.493   1.559   1.596   1.720   1.740
  1.792   1.821   1.887   1.908   1.939   2.119   2.870   2.920
  3.090   3.115   3.143   3.154   3.215   3.243   3.275   3.334
  3.345   3.424   3.521   3.541   3.588   3.607   3.651   3.691
  3.692   3.774   3.781   3.844   3.883   3.971   4.077   4.177
  4.177   4.238   4.388   4.581   4.598   4.647   4.788   4.892
  4.940   5.089   5.280   5.605   5.737   5.879   6.028   6.629
 24.219  25.197  27.686  27.883  28.042  28.580  28.732  28.861
 41.334  41.398  41.433  41.588  41.590  41.631  41.706  41.735
 41.794  41.824
 --------------------------------------------------------------
 
          Ground-State Mulliken Net Atomic Charges

     Atom                 Charge (a.u.)
  ----------------------------------------
      1 C                    -0.505002
      2 C                    -0.513437
      3 H                    -0.072703
      4 H                     0.053831
      5 H                     0.037311
  ----------------------------------------
  Sum of atomic charges =    -1.000000

 -----------------------------------------------------------------
                    Cartesian Multipole Moments
 -----------------------------------------------------------------
    Charge (ESU x 10^10)
                -4.8032
    Dipole Moment (Debye)
         X       1.6669      Y       0.0004      Z      -5.0984
       Tot       5.3639
    Quadrupole Moments (Debye-Ang)
        XX     -19.7485     XY      -0.0017     YY     -19.0525
        XZ       4.5812     YZ       0.0013     ZZ     -26.1250
    Octapole Moments (Debye-Ang^2)
       XXX       1.5708    XXY       0.0002    XYY       0.8916
       YYY       0.0013    XXZ     -16.9320    XYZ      -0.0021
       YYZ     -12.7437    XZZ       8.9756    YZZ       0.0029
       ZZZ     -49.5085
    Hexadecapole Moments (Debye-Ang^3)
      XXXX     -51.6358   XXXY      -0.0061   XXYY     -14.3926
      XYYY      -0.0061   YYYY     -33.1983   XXXZ       6.8094
      XXYZ       0.0013   XYYZ       2.6274   YYYZ       0.0047
      XXZZ     -43.7845   XYZZ      -0.0057   YYZZ     -32.1272
      XZZZ      23.7102   YZZZ       0.0093   ZZZZ    -176.3966
 -----------------------------------------------------------------
 Total job time:  24.07s(wall), 23.81s(cpu) 
 Thu Jul  4 11:07:58 2013

        *************************************************************
        *                                                           *
        *  Thank you very much for using Q-Chem.  Have a nice day.  *
        *                                                           *
        *************************************************************


0 sent ACK to 0 
now end server 0 ... 
 
**********************************************************************
Job 2 of 3 
**********************************************************************
 
Process 0 of 1 is on cl070.stfx.acenet.ca - thread support 1
initial socket setup ...start
initial socket setup ...done 
now start server 0 ... 

cmd = /usr/bin/ssh clhead /usr/local/qchem/bin/get_hostid 1467100747 > /scratch/tmp/6060893.1.short.q/qchem19100/lic.dat
                  Welcome to Q-Chem
     A Quantum Leap Into The Future Of Chemistry

 Y. Shao, L. Fusti-Molnar, Y. Jung, J. Kussmann, C. Ochsenfeld,
 S. T. Brown, A. T. B. Gilbert, L. V. Slipchenko,S. V. Levchenko,
 D. P. O'Neill, R. A. DiStasio Jr., R. C. Lochan, T. Wang,
 G. J. O. Beran, N. A. Besley, J. M. Herbert, C. Y. Lin,
 T. Van Voorhis, S. H. Chien, A. Sodt, R. P. Steele, 
 V. A. Rassolov, P. E. Maslen, P. P. Korambath, R. D. Adamson,
 B. Austin, J. Baker, E. F. C. Byrd, H. Dachsel, R. J. Doerksen,
 A. Dreuw, B. D. Dunietz, A. D. Dutoi, T. R. Furlani,
 S. R. Gwaltney, A. Heyden, S. Hirata, C.-P. Hsu, G. Kedziora,
 R. Z. Khaliullin, P. Klunzinger, A. M. Lee, M. S. Lee, W. Liang,
 I. Lotan, N. Nair, B. Peters, E. I. Proynov, P. A. Pieniazek, 
 Y. M. Rhee, J. Ritchie, E. Rosta, C. D. Sherrill, 
 A. C. Simmonett, J. E. Subotnik, H. L. Woodcock III,
 W. Zhang, A. T. Bell, A. K. Chakraborty, D. M. Chipman,
 F. J. Keil, A. Warshel, W. J. Hehre, H. F. Schaefer III,
 J. Kong, A. I. Krylov, P. M. W. Gill, M. Head-Gordon,
 Q-Chem, Version 3.1, Q-Chem, Inc., Pittsburgh, PA (2007).

 Additional authors for Version 3.1: 
 Z. Gan, Y. Zhao, N. E. Schultz, D. Truhlar, E. Epifanovsky and M. Oana.

 Additional authors for Version 3.2: 
 R. Baer, B. R. Brooks, D. Casanova, J.-D. Chai, C.-L. Cheng, 
 C. Cramer, D. Crittenden, A. Ghysels, G. Hawkins, E. G. Hohenstein, 
 C. Kelley, W. Kurlancheek, D. Liotard, E. Livshits, P. Manohar, 
 A. Marenich, D. Neuhauser, R. Olson, M. A. Rohrdanz, K. S. Thanthiriwatte, 
 A. J. W. Thom, V. Vanovschi, C. F. Williams, Q. Wu and Z.-Q. You. 


 Intel X86 Linux Version

 Q-chem begins on Thu Jul  4 11:08:01 2013  

 Parallel job on  1  processors
Processing $rem in /usr/local/qchem/config/preferences.

theFileMan(): MAXOPENFILES=974 MAX_SUB_FILE_NUM=16
Maximum size of a physical file is 2.0 GB, maximum size of a tmp-file is 32.0 GB


--------------------------------------------------------------
User input:
--------------------------------------------------------------

$molecule
0,2
C          0.00021        0.00000       -0.00228
C          0.00782        0.00000        1.30302
H          0.93106        0.00000       -0.58491
H         -0.92808        0.00000       -0.57941
H          0.72667        0.00000        2.11648
$end

$comment
neutral
$end

$xc_functional
C PBE   1.00
X wPBE  1.00
$end


$rem
SYMMETRY_DECOMPOSITION	0
LRC_DFT                 true
exchange 		general
BASIS                   g3large
omega			800
mem_static              760
max_scf_cycles          200
scf_final_print         1
sym_ignore              true
$end

--------------------------------------------------------------
 Writing REM_CC_EA            5
 ----------------------------------------------------
       Standard Nuclear Orientation (Angstroms)
    I     Atom         X            Y            Z
 ----------------------------------------------------
    1      C       0.000210     0.000000    -0.002280
    2      C       0.007820     0.000000     1.303020
    3      H       0.931060     0.000000    -0.584910
    4      H      -0.928080     0.000000    -0.579410
    5      H       0.726670     0.000000     2.116480
 ----------------------------------------------------
 Nuclear Repulsion Energy =    28.4010854523 hartrees
 There are        8 alpha and        7 beta electrons
 Requested basis set is G3large
 There are 38 shells and 114 basis functions

Total QAlloc Memory Limit   2000 MB
Mega-Array Size       743 MB
MEM_STATIC part       760 MB

                       Distance Matrix (Angstroms)
             C (  1)   C (  2)   H (  3)   H (  4)
   C (  2)  1.305322
   H (  3)  1.098153  2.101583
   H (  4)  1.093070  2.102249  1.859148
   H (  5)  2.239841  1.085570  2.709111  3.163229
 
 A cutoff of  1.0D-08 yielded    732 shell pairs
 There are   6640 function pairs (  8147 Cartesian)
Evaluating contribution to one-electron hamiltonian from nuclear
 Smallest overlap matrix eigenvalue = 1.16E-04
 Multipole matrices computed through 2nd order

  Scale SEOQF with 1.000000e-01/1.000000e-01/1.000000e-01

 Standard Electronic Orientation quadrupole field applied
 Nucleus-field energy     =    -0.0000000016 hartrees
 Guess from superposition of atomic densities
 Warning:  Energy on first SCF cycle will be non-variational
 Long-range K will be added via erf
 Coulomb attenuation parameter = 0.8 bohr**(-1)
 An unrestricted Kohn-Sham SCF calculation will be
 performed using Pulay DIIS extrapolation
 Exchange:  wPBE + LR-HF      Correlation:  PBE
 Using SG-1 standard quadrature grid
 SCF converges when DIIS error is below 1.0E-05
 Requested basis set is G3large
 There are 38 shells and 114 basis functions
 A cutoff of  1.0D-08 yielded    732 shell pairs
 There are   6640 function pairs (  8147 Cartesian)
 ---------------------------------------
  Cycle       Energy         DIIS Error
 ---------------------------------------
    1     -78.2021869340      3.78E-02
    2     -77.8028403436      3.11E-03
    3     -77.8413392093      1.10E-03
    4     -77.8513950975      5.77E-04
    5     -77.8560017351      2.81E-04
    6     -77.8582108278      1.48E-04
    7     -77.8590139822      5.69E-05
    8     -77.8593928003      2.58E-05
    9     -77.8596452940      1.48E-05
   10     -77.8598446626      8.83E-06 Convergence criterion met
 ---------------------------------------
 One-Electron    Energy =  -159.7360338483
 Total Coulomb   Energy =    65.3048370612
 Alpha Exchange  Energy =    -2.5510230835
 Beta  Exchange  Energy =    -2.2523957759
 DFT   Exchange  Energy =    -6.5698907163
 DFT Correlation Energy =    -0.4564237506
 Nuclear Repu.   Energy =    28.4010854507
 Nuclear Attr.   Energy =  -237.1630466759
 Kinetic         Energy =    77.4270128276
 <S^2> = 0.7820
 SCF time:  CPU 30.38 s  wall 30.79 s
 Final Alpha MO Eigenvalues
            1           2           3           4           5           6
    1 -10.3480884 -10.3248628  -1.0311347  -0.7917452  -0.6505129  -0.6148467
            7           8           9          10          11          12
    1  -0.4343274  -0.4075809   0.0458087   0.0580845   0.0653636   0.0867713
           13
    1   0.1233804
 Final Beta MO Eigenvalues
            1           2           3           4           5           6
    1 -10.3317468 -10.3277384  -1.0038614  -0.7551336  -0.6281463  -0.5887297
            7           8           9          10          11          12
    1  -0.4241689   0.0420504   0.0522061   0.0588658   0.0672969   0.0954531
 Analysis of SCF Wavefunction
 
 --------------------------------------------------------------
                    Orbital Energies (a.u.)
 --------------------------------------------------------------
 
 Alpha MOs
 -- Occupied --
-10.348 -10.325  -1.031  -0.792  -0.651  -0.615  -0.434  -0.408
 -- Virtual --
  0.046   0.058   0.065   0.087   0.123   0.131   0.140   0.182
  0.185   0.197   0.206   0.215   0.247   0.260   0.363   0.454
  0.547   0.561   0.626   0.634   0.650   0.666   0.719   0.737
  0.744   0.761   0.786   0.795   0.867   0.884   0.908   1.051
  1.074   1.119   1.196   1.241   1.308   1.345   1.469   1.488
  1.534   1.583   1.634   1.658   1.696   1.846   2.607   2.664
  2.810   2.851   2.862   2.881   2.927   2.957   2.972   3.047
  3.068   3.130   3.255   3.257   3.324   3.330   3.366   3.376
  3.415   3.490   3.500   3.539   3.593   3.687   3.797   3.889
  3.902   3.960   4.119   4.319   4.336   4.390   4.509   4.623
  4.664   4.805   4.998   5.326   5.456   5.601   5.773   6.342
 23.928  24.915  27.400  27.600  27.712  28.323  28.474  28.549
 41.048  41.076  41.175  41.292  41.309  41.347  41.409  41.450
 41.510  41.538
 
 Beta MOs
 -- Occupied --
-10.332 -10.328  -1.004  -0.755  -0.628  -0.589  -0.424
 -- Virtual --
  0.042   0.052   0.059   0.067   0.095   0.124   0.139   0.157
  0.184   0.192   0.205   0.207   0.220   0.251   0.272   0.376
  0.465   0.564   0.581   0.630   0.643   0.655   0.689   0.743
  0.747   0.764   0.775   0.794   0.812   0.897   0.898   0.935
  1.057   1.083   1.122   1.199   1.259   1.324   1.352   1.480
  1.496   1.554   1.589   1.642   1.667   1.700   1.863   2.615
  2.672   2.833   2.859   2.875   2.888   2.951   2.970   3.006
  3.066   3.076   3.162   3.260   3.270   3.328   3.345   3.388
  3.420   3.430   3.515   3.517   3.575   3.617   3.710   3.812
  3.905   3.912   3.974   4.132   4.330   4.344   4.396   4.522
  4.631   4.677   4.819   5.007   5.341   5.468   5.615   5.779
  6.357  23.937  24.921  27.405  27.603  27.745  28.321  28.472
 28.560  41.054  41.102  41.171  41.309  41.314  41.348  41.424
 41.452  41.516  41.543
 --------------------------------------------------------------
 
          Ground-State Mulliken Net Atomic Charges

     Atom                 Charge (a.u.)    Spin (a.u.)
  --------------------------------------------------------
      1 C                    -0.231237      -0.255866
      2 C                    -0.051231       1.117991
      3 H                     0.078388       0.079884
      4 H                     0.094163       0.044176
      5 H                     0.109918       0.013816
  --------------------------------------------------------
  Sum of atomic charges =     0.000000
  Sum of spin   charges =     1.000000

 -----------------------------------------------------------------
                    Cartesian Multipole Moments
 -----------------------------------------------------------------
    Charge (ESU x 10^10)
                 0.0000
    Dipole Moment (Debye)
         X       0.6245      Y       0.0000      Z      -0.2489
       Tot       0.6723
    Quadrupole Moments (Debye-Ang)
        XX     -12.0200     XY       0.0004     YY     -14.7769
        XZ       1.5846     YZ      -0.0003     ZZ     -11.1231
    Octapole Moments (Debye-Ang^2)
       XXX      -0.9371    XXY       0.0002    XYY      -0.4799
       YYY       0.0004    XXZ      -8.3824    XYZ       0.0000
       YYZ      -8.8461    XZZ       3.1615    YZZ      -0.0004
       ZZZ     -19.0210
    Hexadecapole Moments (Debye-Ang^3)
      XXXX     -22.0002   XXXY       0.0006   XXYY      -7.1668
      XYYY       0.0004   YYYY     -17.8521   XXXZ      -1.5150
      XXYZ       0.0000   XYYZ      -0.9093   YYYZ       0.0000
      XXZZ     -17.1420   XYZZ       0.0011   YYZZ     -19.2912
      XZZZ       5.7269   YZZZ      -0.0014   ZZZZ     -80.0118
 -----------------------------------------------------------------
 Total job time:  30.91s(wall), 30.49s(cpu) 
 Thu Jul  4 11:08:32 2013

        *************************************************************
        *                                                           *
        *  Thank you very much for using Q-Chem.  Have a nice day.  *
        *                                                           *
        *************************************************************


0 sent ACK to 0 
now end server 0 ... 
 
**********************************************************************
Job 3 of 3 
**********************************************************************
 
Process 0 of 1 is on cl070.stfx.acenet.ca - thread support 1
initial socket setup ...start
initial socket setup ...done 
now start server 0 ... 

cmd = /usr/bin/ssh clhead /usr/local/qchem/bin/get_hostid 33504792 > /scratch/tmp/6060893.1.short.q/qchem19100/lic.dat
                  Welcome to Q-Chem
     A Quantum Leap Into The Future Of Chemistry

 Y. Shao, L. Fusti-Molnar, Y. Jung, J. Kussmann, C. Ochsenfeld,
 S. T. Brown, A. T. B. Gilbert, L. V. Slipchenko,S. V. Levchenko,
 D. P. O'Neill, R. A. DiStasio Jr., R. C. Lochan, T. Wang,
 G. J. O. Beran, N. A. Besley, J. M. Herbert, C. Y. Lin,
 T. Van Voorhis, S. H. Chien, A. Sodt, R. P. Steele, 
 V. A. Rassolov, P. E. Maslen, P. P. Korambath, R. D. Adamson,
 B. Austin, J. Baker, E. F. C. Byrd, H. Dachsel, R. J. Doerksen,
 A. Dreuw, B. D. Dunietz, A. D. Dutoi, T. R. Furlani,
 S. R. Gwaltney, A. Heyden, S. Hirata, C.-P. Hsu, G. Kedziora,
 R. Z. Khaliullin, P. Klunzinger, A. M. Lee, M. S. Lee, W. Liang,
 I. Lotan, N. Nair, B. Peters, E. I. Proynov, P. A. Pieniazek, 
 Y. M. Rhee, J. Ritchie, E. Rosta, C. D. Sherrill, 
 A. C. Simmonett, J. E. Subotnik, H. L. Woodcock III,
 W. Zhang, A. T. Bell, A. K. Chakraborty, D. M. Chipman,
 F. J. Keil, A. Warshel, W. J. Hehre, H. F. Schaefer III,
 J. Kong, A. I. Krylov, P. M. W. Gill, M. Head-Gordon,
 Q-Chem, Version 3.1, Q-Chem, Inc., Pittsburgh, PA (2007).

 Additional authors for Version 3.1: 
 Z. Gan, Y. Zhao, N. E. Schultz, D. Truhlar, E. Epifanovsky and M. Oana.

 Additional authors for Version 3.2: 
 R. Baer, B. R. Brooks, D. Casanova, J.-D. Chai, C.-L. Cheng, 
 C. Cramer, D. Crittenden, A. Ghysels, G. Hawkins, E. G. Hohenstein, 
 C. Kelley, W. Kurlancheek, D. Liotard, E. Livshits, P. Manohar, 
 A. Marenich, D. Neuhauser, R. Olson, M. A. Rohrdanz, K. S. Thanthiriwatte, 
 A. J. W. Thom, V. Vanovschi, C. F. Williams, Q. Wu and Z.-Q. You. 


 Intel X86 Linux Version

 Q-chem begins on Thu Jul  4 11:08:34 2013  

 Parallel job on  1  processors
Processing $rem in /usr/local/qchem/config/preferences.

theFileMan(): MAXOPENFILES=974 MAX_SUB_FILE_NUM=16
Maximum size of a physical file is 2.0 GB, maximum size of a tmp-file is 32.0 GB


--------------------------------------------------------------
User input:
--------------------------------------------------------------

$molecule
1,1
C          0.00021        0.00000       -0.00228
C          0.00782        0.00000        1.30302
H          0.93106        0.00000       -0.58491
H         -0.92808        0.00000       -0.57941
H          0.72667        0.00000        2.11648
$end

$comment
positive
$end

$xc_functional
C PBE   1.00
X wPBE  1.00
$end

$rem
SYMMETRY_DECOMPOSITION	0
LRC_DFT                 true
exchange 		general
BASIS                   g3large
omega			800
mem_static              760
max_scf_cycles          200
scf_final_print         1
sym_ignore              true
$end

--------------------------------------------------------------
 Writing REM_CC_EA            5
 ----------------------------------------------------
       Standard Nuclear Orientation (Angstroms)
    I     Atom         X            Y            Z
 ----------------------------------------------------
    1      C       0.000210     0.000000    -0.002280
    2      C       0.007820     0.000000     1.303020
    3      H       0.931060     0.000000    -0.584910
    4      H      -0.928080     0.000000    -0.579410
    5      H       0.726670     0.000000     2.116480
 ----------------------------------------------------
 Nuclear Repulsion Energy =    28.4010854523 hartrees
 There are        7 alpha and        7 beta electrons
 Requested basis set is G3large
 There are 38 shells and 114 basis functions

Total QAlloc Memory Limit   2000 MB
Mega-Array Size       743 MB
MEM_STATIC part       760 MB

                       Distance Matrix (Angstroms)
             C (  1)   C (  2)   H (  3)   H (  4)
   C (  2)  1.305322
   H (  3)  1.098153  2.101583
   H (  4)  1.093070  2.102249  1.859148
   H (  5)  2.239841  1.085570  2.709111  3.163229
 
 A cutoff of  1.0D-08 yielded    732 shell pairs
 There are   6640 function pairs (  8147 Cartesian)
Evaluating contribution to one-electron hamiltonian from nuclear
 Smallest overlap matrix eigenvalue = 1.16E-04
 Multipole matrices computed through 2nd order

  Scale SEOQF with 1.000000e-01/1.000000e-01/1.000000e-01

 Standard Electronic Orientation quadrupole field applied
 Nucleus-field energy     =    -0.0000000016 hartrees
 Guess from superposition of atomic densities
 Warning:  Energy on first SCF cycle will be non-variational
 Long-range K will be added via erf
 Coulomb attenuation parameter = 0.8 bohr**(-1)
 A restricted Kohn-Sham SCF calculation will be
 performed using Pulay DIIS extrapolation
 Exchange:  wPBE + LR-HF      Correlation:  PBE
 Using SG-1 standard quadrature grid
 SCF converges when DIIS error is below 1.0E-05
 Requested basis set is G3large
 There are 38 shells and 114 basis functions
 A cutoff of  1.0D-08 yielded    732 shell pairs
 There are   6640 function pairs (  8147 Cartesian)
 Warning!  Inaccurate integrated density:
   Number of electrons =    14
   Numerical integral  =    14.999948354761
   Relative error      =     7.1424882483 %
 ---------------------------------------
  Cycle       Energy         DIIS Error
 ---------------------------------------
    1     -78.2021869340      3.78E-02
    2     -77.4188357747      4.68E-03
    3     -77.4733739483      2.25E-03
    4     -77.4834950180      8.40E-04
    5     -77.4869706494      4.06E-04
    6     -77.4885620116      2.89E-04
    7     -77.4904629970      1.84E-04
    8     -77.4915612717      7.61E-05
    9     -77.4917097724      2.33E-05
   10     -77.4917158116      7.51E-06 Convergence criterion met
 ---------------------------------------
 One-Electron    Energy =  -154.8488171585
 Total Coulomb   Energy =    60.4213196477
 Alpha Exchange  Energy =    -2.2739193980
 Beta  Exchange  Energy =    -2.2739193980
 DFT   Exchange  Energy =    -6.4899525836
 DFT Correlation Energy =    -0.4275123719
 Nuclear Repu.   Energy =    28.4010854507
 Nuclear Attr.   Energy =  -231.8480053178
 Kinetic         Energy =    76.9991881593
 SCF time:  CPU 25.32 s  wall 25.84 s
 Final Alpha MO Eigenvalues
            1           2           3           4           5           6
    1 -10.7417159 -10.6478357  -1.3441510  -1.0877231  -0.9540890  -0.8997383
            7           8           9          10          11          12
    1  -0.7520049  -0.3203590  -0.1773920  -0.1110653  -0.0900202  -0.0801293
 Analysis of SCF Wavefunction
 
 --------------------------------------------------------------
                    Orbital Energies (a.u.)
 --------------------------------------------------------------
 
 Alpha MOs
 -- Occupied --
-10.742 -10.648  -1.344  -1.088  -0.954  -0.900  -0.752
 -- Virtual --
 -0.320  -0.177  -0.111  -0.090  -0.080  -0.052  -0.034  -0.021
  0.001   0.008   0.022   0.042   0.044   0.048   0.055   0.165
  0.215   0.309   0.325   0.358   0.380   0.391   0.423   0.471
  0.477   0.495   0.515   0.519   0.547   0.596   0.615   0.650
  0.790   0.814   0.863   0.927   0.975   1.042   1.071   1.196
  1.214   1.259   1.318   1.354   1.385   1.426   1.560   2.306
  2.373   2.501   2.536   2.550   2.556   2.610   2.637   2.651
  2.726   2.751   2.813   2.932   2.948   3.014   3.019   3.047
  3.049   3.103   3.172   3.191   3.219   3.276   3.374   3.481
  3.564   3.586   3.646   3.812   4.021   4.029   4.094   4.192
  4.314   4.349   4.484   4.672   5.007   5.130   5.284   5.474
  6.015  23.566  24.568  27.034  27.254  27.321  28.001  28.150
 28.162  40.680  40.690  40.850  40.904  40.939  41.019  41.024
 41.103  41.172  41.191
 --------------------------------------------------------------
 
          Ground-State Mulliken Net Atomic Charges

     Atom                 Charge (a.u.)
  ----------------------------------------
      1 C                     0.011912
      2 C                     0.365493
      3 H                     0.197454
      4 H                     0.182039
      5 H                     0.243101
  ----------------------------------------
  Sum of atomic charges =     1.000000

 -----------------------------------------------------------------
                    Cartesian Multipole Moments
 -----------------------------------------------------------------
    Charge (ESU x 10^10)
                 4.8032
    Dipole Moment (Debye)
         X       0.4885      Y       0.0003      Z       3.4393
       Tot       3.4738
    Quadrupole Moments (Debye-Ang)
        XX      -7.2176     XY      -0.0004     YY     -12.3363
        XZ       1.0459     YZ       0.0005     ZZ      -0.5113
    Octapole Moments (Debye-Ang^2)
       XXX      -0.5697    XXY       0.0001    XYY      -0.5569
       YYY       0.0003    XXZ      -5.0721    XYZ      -0.0007
       YYZ      -7.6100    XZZ       2.9750    YZZ       0.0009
       ZZZ      -1.1699
    Hexadecapole Moments (Debye-Ang^3)
      XXXX     -12.1969   XXXY      -0.0003   XXYY      -4.8561
      XYYY      -0.0003   YYYY     -12.3938   XXXZ      -1.2950
      XXYZ       0.0001   XYYZ      -1.1404   YYYZ       0.0005
      XXZZ      -6.6333   XYZZ      -0.0009   YYZZ     -15.1080
      XZZZ       5.8648   YZZZ       0.0016   ZZZZ     -33.7214
 -----------------------------------------------------------------
 Total job time:  25.96s(wall), 25.42s(cpu) 
 Thu Jul  4 11:09:00 2013

        *************************************************************
        *                                                           *
        *  Thank you very much for using Q-Chem.  Have a nice day.  *
        *                                                           *
        *************************************************************


0 sent ACK to 0 
now end server 0 ... 
