Process 0 of 1 is on cl233.stfx.acenet.ca - thread support 1
initial socket setup ...start
initial socket setup ...done 
now start server 0 ... 

cmd = /usr/bin/ssh clhead /usr/local/qchem/bin/get_hostid 1612870211 > /globalscratch/itamblyn/bnl/g297_b3lyp_neut_g03Large_worked/g2g71095/omega500/qchem20829/lic.dat
                  Welcome to Q-Chem
     A Quantum Leap Into The Future Of Chemistry

 Y. Shao, L. Fusti-Molnar, Y. Jung, J. Kussmann, C. Ochsenfeld,
 S. T. Brown, A. T. B. Gilbert, L. V. Slipchenko,S. V. Levchenko,
 D. P. O'Neill, R. A. DiStasio Jr., R. C. Lochan, T. Wang,
 G. J. O. Beran, N. A. Besley, J. M. Herbert, C. Y. Lin,
 T. Van Voorhis, S. H. Chien, A. Sodt, R. P. Steele, 
 V. A. Rassolov, P. E. Maslen, P. P. Korambath, R. D. Adamson,
 B. Austin, J. Baker, E. F. C. Byrd, H. Dachsel, R. J. Doerksen,
 A. Dreuw, B. D. Dunietz, A. D. Dutoi, T. R. Furlani,
 S. R. Gwaltney, A. Heyden, S. Hirata, C.-P. Hsu, G. Kedziora,
 R. Z. Khaliullin, P. Klunzinger, A. M. Lee, M. S. Lee, W. Liang,
 I. Lotan, N. Nair, B. Peters, E. I. Proynov, P. A. Pieniazek, 
 Y. M. Rhee, J. Ritchie, E. Rosta, C. D. Sherrill, 
 A. C. Simmonett, J. E. Subotnik, H. L. Woodcock III,
 W. Zhang, A. T. Bell, A. K. Chakraborty, D. M. Chipman,
 F. J. Keil, A. Warshel, W. J. Hehre, H. F. Schaefer III,
 J. Kong, A. I. Krylov, P. M. W. Gill, M. Head-Gordon,
 Q-Chem, Version 3.1, Q-Chem, Inc., Pittsburgh, PA (2007).

 Additional authors for Version 3.1: 
 Z. Gan, Y. Zhao, N. E. Schultz, D. Truhlar, E. Epifanovsky and M. Oana.

 Additional authors for Version 3.2: 
 R. Baer, B. R. Brooks, D. Casanova, J.-D. Chai, C.-L. Cheng, 
 C. Cramer, D. Crittenden, A. Ghysels, G. Hawkins, E. G. Hohenstein, 
 C. Kelley, W. Kurlancheek, D. Liotard, E. Livshits, P. Manohar, 
 A. Marenich, D. Neuhauser, R. Olson, M. A. Rohrdanz, K. S. Thanthiriwatte, 
 A. J. W. Thom, V. Vanovschi, C. F. Williams, Q. Wu and Z.-Q. You. 


 Intel X86 Linux Version

 Q-chem begins on Tue Apr 12 22:26:12 2011  

 Parallel job on  1  processors
Processing $rem in /usr/local/qchem/config/preferences.

theFileMan(): MAXOPENFILES=974 MAX_SUB_FILE_NUM=16
Maximum size of a physical file is 2.0 GB, maximum size of a tmp-file is 32.0 GB


--------------------------------------------------------------
User input:
--------------------------------------------------------------

$molecule
-1,2
C
H,1,R
Cl,1,R1,2,A
Cl,1,R1,2,A,3,120.,0
Cl,1,R1,2,A,3,-120.,0

R=1.08553635
R1=1.78773686
A=107.50826708

$end

$comment
negative
$end

$xc_functional
   X HF 1.0
   X BNL 1.0
   C LYP 1.0
$end

$rem
SYMMETRY_DECOMPOSITION	0
exchange 		general
BASIS                   g3large
omega			500
separate_jk		true
mem_static              760
max_scf_cycles          200
scf_final_print         1
sym_ignore              true
$end

--------------------------------------------------------------
 Writing REM_CC_EA            5
 ----------------------------------------------------
       Standard Nuclear Orientation (Angstroms)
    I     Atom         X            Y            Z
 ----------------------------------------------------
    1      C       0.000000     0.000000     0.000000
    2      H       0.000000     0.000000     1.085536
    3      Cl      1.704917     0.000000    -0.537829
    4      Cl     -0.852459    -1.476502    -0.537829
    5      Cl     -0.852459     1.476502    -0.537829
 ----------------------------------------------------
 Nuclear Repulsion Energy =   260.3321865543 hartrees
 There are       30 alpha and       29 beta electrons
 Requested basis set is G3large
 There are 73 shells and 250 basis functions

Total QAlloc Memory Limit   2000 MB
Mega-Array Size       743 MB
MEM_STATIC part       760 MB

                       Distance Matrix (Angstroms)
             C (  1)   H (  2)   Cl(  3)   Cl(  4)
   H (  2)  1.085536
   Cl(  3)  1.787737  2.354158
   Cl(  4)  1.787737  2.354158  2.953003
   Cl(  5)  1.787737  2.354158  2.953003  2.953003
 
 A cutoff of  1.0D-08 yielded   2236 shell pairs
 There are  26872 function pairs ( 37270 Cartesian)
Evaluating contribution to one-electron hamiltonian from nuclear
 Smallest overlap matrix eigenvalue = 9.07E-05

 Q-Chem warning in module mkSTV.C, line 194:

 Overlap eigenvalue is smaller than square root of threshold

 Multipole matrices computed through 2nd order

  Scale SEOQF with 1.000000e-01/1.000000e-01/1.000000e-01

 Standard Electronic Orientation quadrupole field applied
 Nucleus-field energy     =     0.0000000062 hartrees
 Guess from superposition of atomic densities
 Warning:  Energy on first SCF cycle will be non-variational
 An unrestricted hybrid HF-DFT SCF calculation will be
 performed using Pulay DIIS extrapolation
 Exchange:     1.0000 Hartree-Fock + 1.0000 BNL
 Correlation:  1.0000 LYP
 Using SG-1 standard quadrature grid
 SCF converges when DIIS error is below 1.0E-05
 Warning!  Inaccurate integrated density:
   Number of electrons =    59
   Numerical integral  =    57.999919144246
   Relative error      =    -1.6950522979 %
 ---------------------------------------
  Cycle       Energy         DIIS Error
 ---------------------------------------
    1   -1414.0012143295      2.32E-02
    2   -1413.3265563243      2.58E-03
    3   -1413.3609873335      2.27E-03
    4   -1413.3923666658      3.59E-04
    5   -1413.3938086726      1.65E-04
    6   -1413.3942255359      6.32E-05
    7   -1413.3943626969      2.29E-05
    8   -1413.3944185718      1.61E-05
    9   -1413.3944570274      1.27E-05
   10   -1413.3945021032      1.07E-05
   11   -1413.3945673187      8.13E-06 Convergence criterion met
 ---------------------------------------
 One-Electron    Energy = -2487.6531345485
 Total Coulomb   Energy =   898.5844578249
 Alpha Exchange  Energy =    -7.4262926065
 Beta  Exchange  Energy =    -7.2552420347
 DFT   Exchange  Energy =   -67.5894800741
 DFT Correlation Energy =    -2.3870624404
 Nuclear Repu.   Energy =   260.3321865605
 Nuclear Attr.   Energy = -3898.9735405259
 Kinetic         Energy =  1411.3204059774
 <S^2> = 0.7558
 SCF time:  CPU 315.14 s  wall 351.99 s
 Final Alpha MO Eigenvalues
            1           2           3           4           5           6
    1-100.3625927-100.3625384-100.3625380  -9.9846384  -9.2177909  -9.2177326
            7           8           9          10          11          12
    1  -9.2177166  -7.0670774  -7.0670702  -7.0670654  -7.0574325  -7.0573263
           13          14          15          16          17          18
    1  -7.0573172  -7.0573014  -7.0572611  -7.0572415  -0.9279685  -0.8202587
           19          20          21          22          23          24
    1  -0.8202395  -0.6227670  -0.4602516  -0.4166711  -0.4166646  -0.2999878
           25          26          27          28          29          30
    1  -0.2999690  -0.2698470  -0.2698352  -0.2625721  -0.2485631   0.0177217
           31          32          33          34          35
    1   0.1622666   0.2055274   0.2055403   0.2169913   0.2511875
 Final Beta MO Eigenvalues
            1           2           3           4           5           6
    1-100.3616729-100.3616203-100.3616165  -9.9737115  -9.2167475  -9.2166904
            7           8           9          10          11          12
    1  -9.2166696  -7.0650999  -7.0650838  -7.0650220  -7.0566722  -7.0564988
           13          14          15          16          17          18
    1  -7.0564819  -7.0564799  -7.0564054  -7.0563846  -0.9166592  -0.8131639
           19          20          21          22          23          24
    1  -0.8131417  -0.6082579  -0.4396458  -0.4037803  -0.4037642  -0.2955523
           25          26          27          28          29          30
    1  -0.2955317  -0.2621475  -0.2621244  -0.2578321  -0.2455641   0.1535150
           31          32          33          34
    1   0.1939122   0.2015030   0.2015182   0.2429943
 Analysis of SCF Wavefunction
 
 --------------------------------------------------------------
                    Orbital Energies (a.u.)
 --------------------------------------------------------------
 
 Alpha MOs
 -- Occupied --
*******-100.363-100.363  -9.985  -9.218  -9.218  -9.218  -7.067
 -7.067  -7.067  -7.057  -7.057  -7.057  -7.057  -7.057  -7.057
 -0.928  -0.820  -0.820  -0.623  -0.460  -0.417  -0.417  -0.300
 -0.300  -0.270  -0.270  -0.263  -0.249   0.018
 -- Virtual --
  0.162   0.206   0.206   0.217   0.251   0.251   0.266   0.267
  0.267   0.299   0.299   0.300   0.310   0.322   0.322   0.326
  0.355   0.373   0.373   0.479   0.523   0.523   0.552   0.552
  0.566   0.606   0.618   0.622   0.622   0.629   0.629   0.658
  0.683   0.683   0.690   0.731   0.733   0.733   0.763   0.763
  0.797   0.836   0.836   0.850   0.939   0.974   0.974   0.990
  1.117   1.167   1.167   1.201   1.201   1.252   1.301   1.301
  1.342   1.343   1.349   1.378   1.395   1.395   1.405   1.411
  1.414   1.414   1.426   1.426   1.449   1.461   1.461   1.461
  1.507   1.507   1.508   1.580   1.581   1.671   1.689   1.690
  1.730   1.751   1.751   1.757   1.784   1.861   1.861   1.926
  1.926   1.977   2.006   2.006   2.025   2.051   2.051   2.168
  2.491   2.493   2.493   2.533   2.579   2.579   2.620   2.620
  2.846   3.010   3.319   3.319   3.454   3.517   3.517   3.655
  3.663   3.711   3.711   3.786   3.926   3.927   4.092   4.092
  4.207   4.570   4.570   4.648   4.648   4.666   4.679   4.679
  4.687   4.698   4.727   4.727   4.751   4.751   4.754   4.814
  4.814   4.846   4.887   4.887   4.917   4.932   4.956   4.956
  5.340   5.351   5.351   5.367   5.367   5.374   5.448   5.523
  5.523   5.544   5.546   5.626   5.748   6.050   6.050   6.087
 10.112  10.112  10.138  20.820  20.820  20.830  20.837  20.866
 20.866  21.081  21.081  21.158  24.249  27.374  27.384  27.393
 27.398  27.446  27.446  27.474  27.478  27.481  27.484  27.513
 27.525  27.528  27.560  27.597  28.238  28.247  28.287  37.115
 37.116  37.116  37.118  37.118  37.118  37.121  37.123  37.124
 37.127  37.128  37.130  37.131  37.134  37.139  37.141  37.142
 37.146  37.148  37.150  37.153  41.060  41.109  41.377  41.380
 41.395 216.587 216.587 216.642
 
 Beta MOs
 -- Occupied --
*******-100.362-100.362  -9.974  -9.217  -9.217  -9.217  -7.065
 -7.065  -7.065  -7.057  -7.056  -7.056  -7.056  -7.056  -7.056
 -0.917  -0.813  -0.813  -0.608  -0.440  -0.404  -0.404  -0.296
 -0.296  -0.262  -0.262  -0.258  -0.246
 -- Virtual --
  0.154   0.194   0.202   0.202   0.243   0.253   0.253   0.261
  0.261   0.283   0.294   0.294   0.296   0.309   0.331   0.340
  0.340   0.359   0.369   0.369   0.476   0.526   0.526   0.557
  0.557   0.567   0.607   0.619   0.624   0.624   0.633   0.633
  0.662   0.684   0.684   0.694   0.733   0.734   0.734   0.763
  0.763   0.807   0.842   0.842   0.848   0.941   0.977   0.977
  1.000   1.123   1.170   1.170   1.205   1.205   1.254   1.303
  1.303   1.345   1.345   1.351   1.379   1.398   1.398   1.407
  1.413   1.416   1.417   1.428   1.428   1.452   1.464   1.464
  1.467   1.510   1.510   1.510   1.583   1.583   1.673   1.692
  1.692   1.732   1.753   1.753   1.759   1.788   1.866   1.866
  1.930   1.930   1.982   2.009   2.009   2.031   2.055   2.055
  2.172   2.493   2.495   2.495   2.536   2.582   2.582   2.625
  2.625   2.852   3.013   3.329   3.329   3.466   3.529   3.529
  3.661   3.675   3.718   3.718   3.794   3.944   3.944   4.103
  4.103   4.220   4.573   4.573   4.651   4.651   4.670   4.682
  4.682   4.691   4.700   4.731   4.731   4.755   4.755   4.758
  4.820   4.820   4.852   4.892   4.892   4.922   4.938   4.961
  4.962   5.342   5.352   5.352   5.369   5.369   5.376   5.452
  5.526   5.526   5.547   5.548   5.629   5.754   6.053   6.054
  6.090  10.114  10.114  10.140  20.821  20.821  20.831  20.838
 20.867  20.867  21.083  21.083  21.160  24.264  27.375  27.385
 27.394  27.400  27.448  27.449  27.475  27.479  27.482  27.485
 27.515  27.528  27.529  27.562  27.600  28.245  28.253  28.297
 37.116  37.116  37.117  37.118  37.119  37.119  37.121  37.124
 37.124  37.128  37.128  37.131  37.132  37.135  37.140  37.142
 37.143  37.147  37.149  37.151  37.154  41.064  41.116  41.381
 41.385  41.398 216.588 216.588 216.643
 --------------------------------------------------------------
 
          Ground-State Mulliken Net Atomic Charges

     Atom                 Charge (a.u.)    Spin (a.u.)
  --------------------------------------------------------
      1 C                     1.599204      -0.838919
      2 H                    -0.442847       0.512589
      3 Cl                   -0.718864       0.442060
      4 Cl                   -0.718871       0.442378
      5 Cl                   -0.718622       0.441892
  --------------------------------------------------------
  Sum of atomic charges =    -1.000000
  Sum of spin   charges =     1.000000

 -----------------------------------------------------------------
                    Cartesian Multipole Moments
 -----------------------------------------------------------------
    Charge (ESU x 10^10)
                -4.8032
    Dipole Moment (Debye)
         X       0.0008      Y       0.0004      Z       1.7816
       Tot       1.7816
    Quadrupole Moments (Debye-Ang)
        XX     -60.5453     XY      -0.0020     YY     -60.5474
        XZ      -0.0008     YZ      -0.0017     ZZ     -54.6499
    Octapole Moments (Debye-Ang^2)
       XXX      -9.7450    XXY       0.0021    XYY       9.7484
       YYY       0.0061    XXZ      23.8006    XYZ       0.0008
       YYZ      23.8010    XZZ       0.0022    YZZ      -0.0021
       ZZZ      51.0953
    Hexadecapole Moments (Debye-Ang^3)
      XXXX    -492.9952   XXXY      -0.0090   XXYY    -164.3369
      XYYY      -0.0160   YYYY    -493.0216   XXXZ       5.4439
      XXYZ      -0.0037   XYYZ      -5.4499   YYYZ      -0.0106
      XXZZ    -112.8225   XYZZ      -0.0020   YYZZ    -112.8266
      XZZZ      -0.0018   YZZZ      -0.0092   ZZZZ    -211.8793
 -----------------------------------------------------------------
 Total job time:  356.01s(wall), 315.55s(cpu) 
 Tue Apr 12 22:32:08 2011

        *************************************************************
        *                                                           *
        *  Thank you very much for using Q-Chem.  Have a nice day.  *
        *                                                           *
        *************************************************************


0 sent ACK to 0 
now end server 0 ... 
 
**********************************************************************
Job 2 of 3 
**********************************************************************
 
Process 0 of 1 is on cl233.stfx.acenet.ca - thread support 1
initial socket setup ...start
initial socket setup ...done 
now start server 0 ... 

cmd = /usr/bin/ssh clhead /usr/local/qchem/bin/get_hostid 1952838035 > /globalscratch/itamblyn/bnl/g297_b3lyp_neut_g03Large_worked/g2g71095/omega500/qchem20829/lic.dat
                  Welcome to Q-Chem
     A Quantum Leap Into The Future Of Chemistry

 Y. Shao, L. Fusti-Molnar, Y. Jung, J. Kussmann, C. Ochsenfeld,
 S. T. Brown, A. T. B. Gilbert, L. V. Slipchenko,S. V. Levchenko,
 D. P. O'Neill, R. A. DiStasio Jr., R. C. Lochan, T. Wang,
 G. J. O. Beran, N. A. Besley, J. M. Herbert, C. Y. Lin,
 T. Van Voorhis, S. H. Chien, A. Sodt, R. P. Steele, 
 V. A. Rassolov, P. E. Maslen, P. P. Korambath, R. D. Adamson,
 B. Austin, J. Baker, E. F. C. Byrd, H. Dachsel, R. J. Doerksen,
 A. Dreuw, B. D. Dunietz, A. D. Dutoi, T. R. Furlani,
 S. R. Gwaltney, A. Heyden, S. Hirata, C.-P. Hsu, G. Kedziora,
 R. Z. Khaliullin, P. Klunzinger, A. M. Lee, M. S. Lee, W. Liang,
 I. Lotan, N. Nair, B. Peters, E. I. Proynov, P. A. Pieniazek, 
 Y. M. Rhee, J. Ritchie, E. Rosta, C. D. Sherrill, 
 A. C. Simmonett, J. E. Subotnik, H. L. Woodcock III,
 W. Zhang, A. T. Bell, A. K. Chakraborty, D. M. Chipman,
 F. J. Keil, A. Warshel, W. J. Hehre, H. F. Schaefer III,
 J. Kong, A. I. Krylov, P. M. W. Gill, M. Head-Gordon,
 Q-Chem, Version 3.1, Q-Chem, Inc., Pittsburgh, PA (2007).

 Additional authors for Version 3.1: 
 Z. Gan, Y. Zhao, N. E. Schultz, D. Truhlar, E. Epifanovsky and M. Oana.

 Additional authors for Version 3.2: 
 R. Baer, B. R. Brooks, D. Casanova, J.-D. Chai, C.-L. Cheng, 
 C. Cramer, D. Crittenden, A. Ghysels, G. Hawkins, E. G. Hohenstein, 
 C. Kelley, W. Kurlancheek, D. Liotard, E. Livshits, P. Manohar, 
 A. Marenich, D. Neuhauser, R. Olson, M. A. Rohrdanz, K. S. Thanthiriwatte, 
 A. J. W. Thom, V. Vanovschi, C. F. Williams, Q. Wu and Z.-Q. You. 


 Intel X86 Linux Version

 Q-chem begins on Tue Apr 12 22:32:11 2011  

 Parallel job on  1  processors
Processing $rem in /usr/local/qchem/config/preferences.

theFileMan(): MAXOPENFILES=974 MAX_SUB_FILE_NUM=16
Maximum size of a physical file is 2.0 GB, maximum size of a tmp-file is 32.0 GB


--------------------------------------------------------------
User input:
--------------------------------------------------------------

$molecule
0,1
C
H,1,R
Cl,1,R1,2,A
Cl,1,R1,2,A,3,120.,0
Cl,1,R1,2,A,3,-120.,0

R=1.08553635
R1=1.78773686
A=107.50826708

$end

$comment
neutral
$end

$xc_functional
   X HF 1.0
   X BNL 1.0
   C LYP 1.0
$end

$rem
SYMMETRY_DECOMPOSITION	0
exchange 		general
BASIS                   g3large
omega			500
separate_jk		true
mem_static              760
max_scf_cycles          200
scf_final_print         1
sym_ignore              true
$end

--------------------------------------------------------------
 Writing REM_CC_EA            5
 ----------------------------------------------------
       Standard Nuclear Orientation (Angstroms)
    I     Atom         X            Y            Z
 ----------------------------------------------------
    1      C       0.000000     0.000000     0.000000
    2      H       0.000000     0.000000     1.085536
    3      Cl      1.704917     0.000000    -0.537829
    4      Cl     -0.852459    -1.476502    -0.537829
    5      Cl     -0.852459     1.476502    -0.537829
 ----------------------------------------------------
 Nuclear Repulsion Energy =   260.3321865543 hartrees
 There are       29 alpha and       29 beta electrons
 Requested basis set is G3large
 There are 73 shells and 250 basis functions

Total QAlloc Memory Limit   2000 MB
Mega-Array Size       743 MB
MEM_STATIC part       760 MB

                       Distance Matrix (Angstroms)
             C (  1)   H (  2)   Cl(  3)   Cl(  4)
   H (  2)  1.085536
   Cl(  3)  1.787737  2.354158
   Cl(  4)  1.787737  2.354158  2.953003
   Cl(  5)  1.787737  2.354158  2.953003  2.953003
 
 A cutoff of  1.0D-08 yielded   2236 shell pairs
 There are  26872 function pairs ( 37270 Cartesian)
Evaluating contribution to one-electron hamiltonian from nuclear
 Smallest overlap matrix eigenvalue = 9.07E-05

 Q-Chem warning in module mkSTV.C, line 194:

 Overlap eigenvalue is smaller than square root of threshold

 Multipole matrices computed through 2nd order

  Scale SEOQF with 1.000000e-01/1.000000e-01/1.000000e-01

 Standard Electronic Orientation quadrupole field applied
 Nucleus-field energy     =     0.0000000062 hartrees
 Guess from superposition of atomic densities
 Warning:  Energy on first SCF cycle will be non-variational
 A restricted hybrid HF-DFT SCF calculation will be
 performed using Pulay DIIS extrapolation
 Exchange:     1.0000 Hartree-Fock + 1.0000 BNL
 Correlation:  1.0000 LYP
 Using SG-1 standard quadrature grid
 SCF converges when DIIS error is below 1.0E-05
 ---------------------------------------
  Cycle       Energy         DIIS Error
 ---------------------------------------
    1   -1414.0012143295      2.32E-02
    2   -1413.3049728577      3.72E-03
    3   -1413.3084060379      4.30E-03
    4   -1413.4231849502      2.95E-04
    5   -1413.4244614806      1.15E-04
    6   -1413.4246911542      4.04E-05
    7   -1413.4247200521      1.24E-05
    8   -1413.4247242679      3.76E-06 Convergence criterion met
 ---------------------------------------
 One-Electron    Energy = -2475.5547870147
 Total Coulomb   Energy =   886.2038929352
 Alpha Exchange  Energy =    -7.2743799436
 Beta  Exchange  Energy =    -7.2743799436
 DFT   Exchange  Energy =   -67.4950701726
 DFT Correlation Energy =    -2.3621866891
 Nuclear Repu.   Energy =   260.3321865605
 Nuclear Attr.   Energy = -3886.2517002517
 Kinetic         Energy =  1410.6969132370
 SCF time:  CPU 182.45 s  wall 205.46 s
 Final Alpha MO Eigenvalues
            1           2           3           4           5           6
    1-100.5729039-100.5728792-100.5727927 -10.2305112  -9.4276922  -9.4276507
            7           8           9          10          11          12
    1  -9.4275768  -7.2786760  -7.2786017  -7.2785510  -7.2664980  -7.2663375
           13          14          15          16          17          18
    1  -7.2663131  -7.2662623  -7.2662293  -7.2661530  -1.1335743  -1.0230006
           19          20          21          22          23          24
    1  -1.0229747  -0.8167827  -0.6592621  -0.6165272  -0.6165068  -0.4971959
           25          26          27          28          29          30
    1  -0.4971838  -0.4654966  -0.4654816  -0.4593459  -0.4475666   0.0324624
           31          32          33          34
    1   0.0441004   0.0691156   0.0691280   0.0873888
 Analysis of SCF Wavefunction
 
 --------------------------------------------------------------
                    Orbital Energies (a.u.)
 --------------------------------------------------------------
 
 Alpha MOs
 -- Occupied --
*******-100.573-100.573 -10.231  -9.428  -9.428  -9.428  -7.279
 -7.279  -7.279  -7.266  -7.266  -7.266  -7.266  -7.266  -7.266
 -1.134  -1.023  -1.023  -0.817  -0.659  -0.617  -0.617  -0.497
 -0.497  -0.465  -0.465  -0.459  -0.448
 -- Virtual --
  0.032   0.044   0.069   0.069   0.087   0.105   0.105   0.128
  0.128   0.135   0.147   0.147   0.169   0.170   0.174   0.174
  0.182   0.192   0.219   0.220   0.315   0.336   0.336   0.372
  0.372   0.389   0.431   0.433   0.441   0.441   0.448   0.448
  0.497   0.512   0.518   0.518   0.557   0.557   0.558   0.586
  0.586   0.620   0.650   0.650   0.668   0.756   0.786   0.786
  0.803   0.926   0.974   0.974   1.007   1.007   1.058   1.108
  1.108   1.148   1.149   1.156   1.189   1.203   1.203   1.211
  1.217   1.221   1.222   1.234   1.234   1.257   1.265   1.266
  1.266   1.315   1.315   1.318   1.387   1.387   1.477   1.495
  1.495   1.540   1.556   1.556   1.567   1.587   1.665   1.665
  1.733   1.733   1.784   1.813   1.813   1.828   1.853   1.853
  1.968   2.298   2.298   2.298   2.336   2.384   2.384   2.416
  2.416   2.642   2.808   3.108   3.108   3.243   3.306   3.306
  3.446   3.451   3.499   3.499   3.578   3.714   3.715   3.880
  3.880   3.999   4.367   4.367   4.445   4.445   4.463   4.476
  4.476   4.484   4.496   4.524   4.524   4.548   4.548   4.550
  4.609   4.609   4.641   4.683   4.683   4.712   4.725   4.751
  4.751   5.136   5.146   5.146   5.163   5.163   5.170   5.241
  5.315   5.316   5.336   5.337   5.420   5.542   5.840   5.841
  5.878   9.905   9.905   9.931  20.612  20.612  20.623  20.629
 20.658  20.658  20.870  20.870  20.947  24.008  27.165  27.172
 27.184  27.187  27.230  27.235  27.262  27.270  27.273  27.276
 27.303  27.313  27.318  27.349  27.384  28.004  28.013  28.047
 36.905  36.906  36.906  36.908  36.908  36.909  36.912  36.915
 36.915  36.918  36.918  36.921  36.921  36.923  36.928  36.930
 36.931  36.935  36.937  36.939  36.942  40.816  40.865  41.132
 41.135  41.151 216.377 216.377 216.432
 --------------------------------------------------------------
 
          Ground-State Mulliken Net Atomic Charges

     Atom                 Charge (a.u.)
  ----------------------------------------
      1 C                     0.529393
      2 H                     0.107750
      3 Cl                   -0.212541
      4 Cl                   -0.212145
      5 Cl                   -0.212458
  ----------------------------------------
  Sum of atomic charges =     0.000000

 -----------------------------------------------------------------
                    Cartesian Multipole Moments
 -----------------------------------------------------------------
    Charge (ESU x 10^10)
                 0.0000
    Dipole Moment (Debye)
         X       0.0009      Y      -0.0007      Z       1.1527
       Tot       1.1527
    Quadrupole Moments (Debye-Ang)
        XX     -44.6421     XY      -0.0001     YY     -44.6430
        XZ      -0.0008     YZ       0.0004     ZZ     -43.4528
    Octapole Moments (Debye-Ang^2)
       XXX       3.9701    XXY      -0.0012    XYY      -3.9662
       YYY      -0.0037    XXZ      17.3285    XYZ       0.0005
       YYZ      17.3267    XZZ       0.0005    YZZ       0.0000
       ZZZ      61.8880
    Hexadecapole Moments (Debye-Ang^3)
      XXXX    -363.9968   XXXY      -0.0056   XXYY    -121.3390
      XYYY       0.0021   YYYY    -364.0097   XXXZ      -5.8462
      XXYZ       0.0006   XYYZ       5.8440   YYYZ       0.0018
      XXZZ     -82.2094   XYZZ      -0.0012   YYZZ     -82.2073
      XZZZ      -0.0015   YZZZ      -0.0003   ZZZZ    -120.8837
 -----------------------------------------------------------------
 Total job time:  208.90s(wall), 182.83s(cpu) 
 Tue Apr 12 22:35:40 2011

        *************************************************************
        *                                                           *
        *  Thank you very much for using Q-Chem.  Have a nice day.  *
        *                                                           *
        *************************************************************


0 sent ACK to 0 
now end server 0 ... 
 
**********************************************************************
Job 3 of 3 
**********************************************************************
 
Process 0 of 1 is on cl233.stfx.acenet.ca - thread support 1
initial socket setup ...start
initial socket setup ...done 
now start server 0 ... 

cmd = /usr/bin/ssh clhead /usr/local/qchem/bin/get_hostid 1903793193 > /globalscratch/itamblyn/bnl/g297_b3lyp_neut_g03Large_worked/g2g71095/omega500/qchem20829/lic.dat
                  Welcome to Q-Chem
     A Quantum Leap Into The Future Of Chemistry

 Y. Shao, L. Fusti-Molnar, Y. Jung, J. Kussmann, C. Ochsenfeld,
 S. T. Brown, A. T. B. Gilbert, L. V. Slipchenko,S. V. Levchenko,
 D. P. O'Neill, R. A. DiStasio Jr., R. C. Lochan, T. Wang,
 G. J. O. Beran, N. A. Besley, J. M. Herbert, C. Y. Lin,
 T. Van Voorhis, S. H. Chien, A. Sodt, R. P. Steele, 
 V. A. Rassolov, P. E. Maslen, P. P. Korambath, R. D. Adamson,
 B. Austin, J. Baker, E. F. C. Byrd, H. Dachsel, R. J. Doerksen,
 A. Dreuw, B. D. Dunietz, A. D. Dutoi, T. R. Furlani,
 S. R. Gwaltney, A. Heyden, S. Hirata, C.-P. Hsu, G. Kedziora,
 R. Z. Khaliullin, P. Klunzinger, A. M. Lee, M. S. Lee, W. Liang,
 I. Lotan, N. Nair, B. Peters, E. I. Proynov, P. A. Pieniazek, 
 Y. M. Rhee, J. Ritchie, E. Rosta, C. D. Sherrill, 
 A. C. Simmonett, J. E. Subotnik, H. L. Woodcock III,
 W. Zhang, A. T. Bell, A. K. Chakraborty, D. M. Chipman,
 F. J. Keil, A. Warshel, W. J. Hehre, H. F. Schaefer III,
 J. Kong, A. I. Krylov, P. M. W. Gill, M. Head-Gordon,
 Q-Chem, Version 3.1, Q-Chem, Inc., Pittsburgh, PA (2007).

 Additional authors for Version 3.1: 
 Z. Gan, Y. Zhao, N. E. Schultz, D. Truhlar, E. Epifanovsky and M. Oana.

 Additional authors for Version 3.2: 
 R. Baer, B. R. Brooks, D. Casanova, J.-D. Chai, C.-L. Cheng, 
 C. Cramer, D. Crittenden, A. Ghysels, G. Hawkins, E. G. Hohenstein, 
 C. Kelley, W. Kurlancheek, D. Liotard, E. Livshits, P. Manohar, 
 A. Marenich, D. Neuhauser, R. Olson, M. A. Rohrdanz, K. S. Thanthiriwatte, 
 A. J. W. Thom, V. Vanovschi, C. F. Williams, Q. Wu and Z.-Q. You. 


 Intel X86 Linux Version

 Q-chem begins on Tue Apr 12 22:35:43 2011  

 Parallel job on  1  processors
Processing $rem in /usr/local/qchem/config/preferences.

theFileMan(): MAXOPENFILES=974 MAX_SUB_FILE_NUM=16
Maximum size of a physical file is 2.0 GB, maximum size of a tmp-file is 32.0 GB


--------------------------------------------------------------
User input:
--------------------------------------------------------------

$molecule
1,2
C
H,1,R
Cl,1,R1,2,A
Cl,1,R1,2,A,3,120.,0
Cl,1,R1,2,A,3,-120.,0

R=1.08553635
R1=1.78773686
A=107.50826708

$end

$comment
positive
$end

$xc_functional
   X HF 1.0
   X BNL 1.0
   C LYP 1.0
$end

$rem
SYMMETRY_DECOMPOSITION	0
exchange 		general
BASIS                   g3large
omega			500
separate_jk		true
mem_static              760
max_scf_cycles          200
scf_final_print         1
sym_ignore              true
$end

--------------------------------------------------------------
 Writing REM_CC_EA            5
 ----------------------------------------------------
       Standard Nuclear Orientation (Angstroms)
    I     Atom         X            Y            Z
 ----------------------------------------------------
    1      C       0.000000     0.000000     0.000000
    2      H       0.000000     0.000000     1.085536
    3      Cl      1.704917     0.000000    -0.537829
    4      Cl     -0.852459    -1.476502    -0.537829
    5      Cl     -0.852459     1.476502    -0.537829
 ----------------------------------------------------
 Nuclear Repulsion Energy =   260.3321865543 hartrees
 There are       29 alpha and       28 beta electrons
 Requested basis set is G3large
 There are 73 shells and 250 basis functions

Total QAlloc Memory Limit   2000 MB
Mega-Array Size       743 MB
MEM_STATIC part       760 MB

                       Distance Matrix (Angstroms)
             C (  1)   H (  2)   Cl(  3)   Cl(  4)
   H (  2)  1.085536
   Cl(  3)  1.787737  2.354158
   Cl(  4)  1.787737  2.354158  2.953003
   Cl(  5)  1.787737  2.354158  2.953003  2.953003
 
 A cutoff of  1.0D-08 yielded   2236 shell pairs
 There are  26872 function pairs ( 37270 Cartesian)
Evaluating contribution to one-electron hamiltonian from nuclear
 Smallest overlap matrix eigenvalue = 9.07E-05

 Q-Chem warning in module mkSTV.C, line 194:

 Overlap eigenvalue is smaller than square root of threshold

 Multipole matrices computed through 2nd order

  Scale SEOQF with 1.000000e-01/1.000000e-01/1.000000e-01

 Standard Electronic Orientation quadrupole field applied
 Nucleus-field energy     =     0.0000000062 hartrees
 Guess from superposition of atomic densities
 Warning:  Energy on first SCF cycle will be non-variational
 An unrestricted hybrid HF-DFT SCF calculation will be
 performed using Pulay DIIS extrapolation
 Exchange:     1.0000 Hartree-Fock + 1.0000 BNL
 Correlation:  1.0000 LYP
 Using SG-1 standard quadrature grid
 SCF converges when DIIS error is below 1.0E-05
 Warning!  Inaccurate integrated density:
   Number of electrons =    57
   Numerical integral  =    57.999919144246
   Relative error      =     1.7542441127 %
 ---------------------------------------
  Cycle       Energy         DIIS Error
 ---------------------------------------
    1   -1414.0012143295      2.32E-02
    2   -1412.7764946573      4.57E-03
    3   -1412.8030140795      5.21E-03
    4   -1412.9772214838      4.72E-04
    5   -1412.9797059455      2.11E-04
    6   -1412.9805712326      7.00E-05
    7   -1412.9809761844      4.57E-05
    8   -1412.9812421435      3.13E-05
    9   -1412.9815393222      2.52E-05
   10   -1412.9818811167      2.21E-05
   11   -1412.9820411202      1.93E-05
   12   -1412.9821820411      1.77E-05
   13   -1412.9823529100      1.63E-05
   14   -1412.9825463525      1.44E-05
   15   -1412.9827130651      1.20E-05
   16   -1412.9829191985      1.50E-05
   17   -1412.9829852354      1.10E-05
   18   -1412.9831035737      1.24E-05
   19   -1412.9831304450      1.07E-05
   20   -1412.9832148825      7.99E-06 Convergence criterion met
 ---------------------------------------
 One-Electron    Energy = -2461.0829555005
 Total Coulomb   Energy =   871.7802685921
 Alpha Exchange  Energy =    -7.3007247126
 Beta  Exchange  Energy =    -7.0208133006
 DFT   Exchange  Energy =   -67.3634323294
 DFT Correlation Energy =    -2.3277441920
 Nuclear Repu.   Energy =   260.3321865605
 Nuclear Attr.   Energy = -3871.2999026380
 Kinetic         Energy =  1410.2169471375
 <S^2> = 0.7614
 SCF time:  CPU 553.93 s  wall 641.49 s
 Final Alpha MO Eigenvalues
            1           2           3           4           5           6
    1-100.9008307-100.8249237-100.7901383 -10.4571621  -9.7502513  -9.6763892
            7           8           9          10          11          12
    1  -9.6427516  -7.6017552  -7.5964456  -7.5848855  -7.5275274  -7.5191584
           13          14          15          16          17          18
    1  -7.5128815  -7.4941110  -7.4833975  -7.4801726  -1.3886778  -1.2920597
           19          20          21          22          23          24
    1  -1.2451435  -1.0505194  -0.8958379  -0.8641166  -0.8557238  -0.7758971
           25          26          27          28          29          30
    1  -0.7542186  -0.7207516  -0.6972491  -0.6766282  -0.6694835  -0.1816683
           31          32          33          34
    1  -0.1295606  -0.1192371  -0.1089008  -0.0680870
 Final Beta MO Eigenvalues
            1           2           3           4           5           6
    1-100.8955918-100.8226449-100.7892763 -10.4575393  -9.7448144  -9.6740349
            7           8           9          10          11          12
    1  -9.6418641  -7.5925739  -7.5895125  -7.5809949  -7.5248278  -7.5148102
           13          14          15          16          17          18
    1  -7.5112457  -7.4934696  -7.4813795  -7.4795544  -1.3713194  -1.2651566
           19          20          21          22          23          24
    1  -1.2351570  -1.0411081  -0.8882687  -0.8541395  -0.8253980  -0.7417164
           25          26          27          28          29          30
    1  -0.6927134  -0.6786218  -0.6636772  -0.6599060  -0.4324445  -0.1745202
           31          32          33
    1  -0.1256332  -0.1142576  -0.1083505
 Analysis of SCF Wavefunction
 
 --------------------------------------------------------------
                    Orbital Energies (a.u.)
 --------------------------------------------------------------
 
 Alpha MOs
 -- Occupied --
*******-100.825-100.790 -10.457  -9.750  -9.676  -9.643  -7.602
 -7.596  -7.585  -7.528  -7.519  -7.513  -7.494  -7.483  -7.480
 -1.389  -1.292  -1.245  -1.051  -0.896  -0.864  -0.856  -0.776
 -0.754  -0.721  -0.697  -0.677  -0.669
 -- Virtual --
 -0.182  -0.130  -0.119  -0.109  -0.068  -0.057  -0.054  -0.024
 -0.022  -0.020  -0.009  -0.007   0.015   0.021   0.023   0.027
  0.033   0.035   0.047   0.054   0.109   0.115   0.142   0.152
  0.166   0.188   0.209   0.224   0.237   0.244   0.249   0.255
  0.301   0.310   0.337   0.345   0.353   0.357   0.364   0.384
  0.393   0.418   0.431   0.448   0.486   0.542   0.572   0.587
  0.592   0.715   0.750   0.760   0.781   0.787   0.839   0.875
  0.880   0.909   0.915   0.938   0.942   0.948   0.966   0.976
  0.987   0.995   0.999   1.004   1.024   1.030   1.039   1.049
  1.056   1.075   1.092   1.106   1.157   1.176   1.247   1.256
  1.281   1.315   1.339   1.348   1.361   1.373   1.439   1.447
  1.495   1.520   1.570   1.576   1.599   1.603   1.627   1.639
  1.734   2.020   2.048   2.083   2.108   2.154   2.162   2.169
  2.200   2.413   2.591   2.883   2.884   3.015   3.076   3.084
  3.216   3.230   3.259   3.279   3.352   3.488   3.489   3.651
  3.653   3.779   4.116   4.139   4.144   4.169   4.188   4.196
  4.231   4.235   4.247   4.275   4.285   4.296   4.313   4.326
  4.336   4.368   4.406   4.421   4.441   4.465   4.475   4.511
  4.532   4.832   4.836   4.907   4.910   4.943   4.946   4.981
  5.031   5.060   5.096   5.107   5.176   5.322   5.560   5.609
  5.647   9.598   9.668   9.706  20.296  20.310  20.378  20.381
 20.422  20.425  20.570  20.635  20.705  23.781  26.855  26.893
 26.931  26.943  26.953  26.964  26.974  26.989  27.014  27.026
 27.057  27.066  27.071  27.127  27.136  27.766  27.779  27.818
 36.585  36.586  36.590  36.593  36.600  36.613  36.618  36.660
 36.664  36.667  36.667  36.674  36.680  36.687  36.696  36.698
 36.702  36.704  36.712  36.716  36.718  40.589  40.639  40.905
 40.909  40.923 216.063 216.137 216.191
 
 Beta MOs
 -- Occupied --
*******-100.823-100.789 -10.458  -9.745  -9.674  -9.642  -7.593
 -7.590  -7.581  -7.525  -7.515  -7.511  -7.493  -7.481  -7.480
 -1.371  -1.265  -1.235  -1.041  -0.888  -0.854  -0.825  -0.742
 -0.693  -0.679  -0.664  -0.660
 -- Virtual --
 -0.432  -0.175  -0.126  -0.114  -0.108  -0.067  -0.055  -0.053
 -0.022  -0.020  -0.019  -0.007  -0.004   0.017   0.022   0.025
  0.028   0.033   0.036   0.055   0.056   0.123   0.127   0.144
  0.166   0.176   0.193   0.223   0.230   0.243   0.248   0.252
  0.260   0.312   0.314   0.340   0.348   0.358   0.366   0.368
  0.391   0.398   0.421   0.436   0.451   0.487   0.552   0.574
  0.588   0.595   0.717   0.755   0.762   0.786   0.790   0.843
  0.885   0.888   0.917   0.925   0.942   0.958   0.964   0.973
  0.985   0.992   1.003   1.006   1.014   1.028   1.036   1.044
  1.053   1.059   1.083   1.100   1.110   1.163   1.180   1.254
  1.265   1.286   1.322   1.342   1.351   1.362   1.375   1.443
  1.450   1.501   1.524   1.572   1.585   1.604   1.607   1.629
  1.641   1.741   2.043   2.055   2.089   2.114   2.160   2.166
  2.174   2.202   2.416   2.592   2.883   2.884   3.015   3.076
  3.084   3.217   3.230   3.261   3.280   3.353   3.487   3.489
  3.651   3.653   3.779   4.132   4.147   4.174   4.195   4.205
  4.213   4.241   4.250   4.256   4.287   4.296   4.305   4.319
  4.331   4.347   4.378   4.411   4.435   4.448   4.473   4.482
  4.517   4.535   4.848   4.850   4.913   4.917   4.946   4.949
  4.985   5.043   5.064   5.100   5.108   5.182   5.323   5.568
  5.613   5.649   9.609   9.673   9.708  20.310  20.316  20.382
 20.385  20.425  20.427  20.576  20.638  20.707  23.781  26.864
 26.900  26.934  26.952  26.956  26.968  26.978  26.995  27.018
 27.029  27.058  27.070  27.072  27.129  27.138  27.767  27.779
 27.818  36.590  36.591  36.595  36.597  36.604  36.614  36.620
 36.662  36.666  36.669  36.669  36.676  36.681  36.688  36.696
 36.699  36.703  36.705  36.712  36.717  36.718  40.589  40.638
 40.905  40.908  40.923 216.068 216.139 216.193
 --------------------------------------------------------------
 
          Ground-State Mulliken Net Atomic Charges

     Atom                 Charge (a.u.)    Spin (a.u.)
  --------------------------------------------------------
      1 C                     0.511515      -0.022239
      2 H                     0.152547       0.002773
      3 Cl                   -0.031501       0.097687
      4 Cl                    0.302357       0.656681
      5 Cl                    0.065082       0.265097
  --------------------------------------------------------
  Sum of atomic charges =     1.000000
  Sum of spin   charges =     1.000000

 -----------------------------------------------------------------
                    Cartesian Multipole Moments
 -----------------------------------------------------------------
    Charge (ESU x 10^10)
                 4.8032
    Dipole Moment (Debye)
         X      -1.4816      Y      -1.4271      Z      -1.1018
       Tot       2.3336
    Quadrupole Moments (Debye-Ang)
        XX     -33.8768     XY       1.3331     YY     -30.2199
        XZ       0.9624     YZ       0.7088     ZZ     -38.6678
    Octapole Moments (Debye-Ang^2)
       XXX       5.4545    XXY      -1.4802    XYY     -11.5988
       YYY      -4.7202    XXZ      11.5367    XYZ      -0.6790
       YYZ      10.7982    XZZ      -1.3153    YZZ      -1.0260
       ZZZ      56.8209
    Hexadecapole Moments (Debye-Ang^3)
      XXXX    -308.3525   XXXY       5.0315   XXYY    -102.2175
      XYYY       2.0169   YYYY    -286.1356   XXXZ      -5.9690
      XXYZ       1.0684   XYYZ       9.3557   YYYZ       1.4782
      XXZZ     -71.6877   XYZZ       1.1185   YYZZ     -70.0170
      XZZZ       1.7267   YZZZ       1.3376   ZZZZ    -106.5599
 -----------------------------------------------------------------
 Total job time:  644.71s(wall), 554.33s(cpu) 
 Tue Apr 12 22:46:28 2011

        *************************************************************
        *                                                           *
        *  Thank you very much for using Q-Chem.  Have a nice day.  *
        *                                                           *
        *************************************************************


0 sent ACK to 0 
now end server 0 ... 
