Process 0 of 1 is on cl135 - thread support 1
initial socket setup ...start
initial socket setup ...done 
now start server 0 ... 

cmd = /usr/bin/ssh clhead /usr/local/qchem/bin/get_hostid 1657182854 > /tmp/1602265.1.medium.q/qchem897/lic.dat

cmd = /usr/bin/ssh clhead /usr/local/qchem/bin/get_hostid 1657182854 > /tmp/1602265.1.medium.q/qchem897/lic.dat

cmd = /usr/bin/ssh clhead /usr/local/qchem/bin/get_hostid 1657182854 > /tmp/1602265.1.medium.q/qchem897/lic.dat

cmd = /usr/bin/ssh clhead /usr/local/qchem/bin/get_hostid 1657182854 > /tmp/1602265.1.medium.q/qchem897/lic.dat

cmd = /usr/bin/ssh clhead /usr/local/qchem/bin/get_hostid 1657182854 > /tmp/1602265.1.medium.q/qchem897/lic.dat
                  Welcome to Q-Chem
     A Quantum Leap Into The Future Of Chemistry

 Y. Shao, L. Fusti-Molnar, Y. Jung, J. Kussmann, C. Ochsenfeld,
 S. T. Brown, A. T. B. Gilbert, L. V. Slipchenko,S. V. Levchenko,
 D. P. O'Neill, R. A. DiStasio Jr., R. C. Lochan, T. Wang,
 G. J. O. Beran, N. A. Besley, J. M. Herbert, C. Y. Lin,
 T. Van Voorhis, S. H. Chien, A. Sodt, R. P. Steele, 
 V. A. Rassolov, P. E. Maslen, P. P. Korambath, R. D. Adamson,
 B. Austin, J. Baker, E. F. C. Byrd, H. Dachsel, R. J. Doerksen,
 A. Dreuw, B. D. Dunietz, A. D. Dutoi, T. R. Furlani,
 S. R. Gwaltney, A. Heyden, S. Hirata, C.-P. Hsu, G. Kedziora,
 R. Z. Khaliullin, P. Klunzinger, A. M. Lee, M. S. Lee, W. Liang,
 I. Lotan, N. Nair, B. Peters, E. I. Proynov, P. A. Pieniazek, 
 Y. M. Rhee, J. Ritchie, E. Rosta, C. D. Sherrill, 
 A. C. Simmonett, J. E. Subotnik, H. L. Woodcock III,
 W. Zhang, A. T. Bell, A. K. Chakraborty, D. M. Chipman,
 F. J. Keil, A. Warshel, W. J. Hehre, H. F. Schaefer III,
 J. Kong, A. I. Krylov, P. M. W. Gill, M. Head-Gordon,
 Q-Chem, Version 3.1, Q-Chem, Inc., Pittsburgh, PA (2007).

 Additional authors for Version 3.1: 
 Z. Gan, Y. Zhao, N. E. Schultz, D. Truhlar, E. Epifanovsky and M. Oana.

 Additional authors for Version 3.2: 
 R. Baer, B. R. Brooks, D. Casanova, J.-D. Chai, C.-L. Cheng, 
 C. Cramer, D. Crittenden, A. Ghysels, G. Hawkins, E. G. Hohenstein, 
 C. Kelley, W. Kurlancheek, D. Liotard, E. Livshits, P. Manohar, 
 A. Marenich, D. Neuhauser, R. Olson, M. A. Rohrdanz, K. S. Thanthiriwatte, 
 A. J. W. Thom, V. Vanovschi, C. F. Williams, Q. Wu and Z.-Q. You. 


 Intel X86 Linux Version

 Q-chem begins on Sat Mar 22 05:42:09 2014  

 Parallel job on  1  processors
Processing $rem in /usr/local/qchem/config/preferences.

theFileMan(): MAXOPENFILES=974 MAX_SUB_FILE_NUM=16
Maximum size of a physical file is 2.0 GB, maximum size of a tmp-file is 32.0 GB


--------------------------------------------------------------
User input:
--------------------------------------------------------------

$molecule
-1,1
C         -0.00017        0.00000       -0.00233
C          0.00868        0.00000        1.30341
H          0.93029        0.00000       -0.58611
H         -0.92923        0.00000       -0.57859
H          0.72813        0.00000        2.11653
$end

$comment
negative
$end

$xc_functional
C PBE   1.00
X wPBE  1.00
$end

$rem
SYMMETRY_DECOMPOSITION	0
exchange 		general
LRC_DFT                 true
BASIS                   g3large
omega			400
mem_static              760
max_scf_cycles          200
scf_final_print         1
sym_ignore              true
$end

--------------------------------------------------------------
 Writing REM_CC_EA            5
 ----------------------------------------------------
       Standard Nuclear Orientation (Angstroms)
    I     Atom         X            Y            Z
 ----------------------------------------------------
    1      C      -0.000170     0.000000    -0.002330
    2      C       0.008680     0.000000     1.303410
    3      H       0.930290     0.000000    -0.586110
    4      H      -0.929230     0.000000    -0.578590
    5      H       0.728130     0.000000     2.116530
 ----------------------------------------------------
 Nuclear Repulsion Energy =    28.3929478384 hartrees
 There are        8 alpha and        8 beta electrons
 Requested basis set is G3large
 There are 38 shells and 114 basis functions

Total QAlloc Memory Limit   2000 MB
Mega-Array Size       743 MB
MEM_STATIC part       760 MB

                       Distance Matrix (Angstroms)
             C (  1)   C (  2)   H (  3)   H (  4)
   C (  2)  1.305770
   H (  3)  1.098433  2.102297
   H (  4)  1.093265  2.102760  1.859535
   H (  5)  2.240533  1.085713  2.710190  3.163940
 
 A cutoff of  1.0D-08 yielded    732 shell pairs
 There are   6640 function pairs (  8147 Cartesian)
Evaluating contribution to one-electron hamiltonian from nuclear
 Smallest overlap matrix eigenvalue = 1.16E-04
 Multipole matrices computed through 2nd order

  Scale SEOQF with 1.000000e-01/1.000000e-01/1.000000e-01

 Standard Electronic Orientation quadrupole field applied
 Nucleus-field energy     =    -0.0000000016 hartrees
 Guess from superposition of atomic densities
 Warning:  Energy on first SCF cycle will be non-variational
 Long-range K will be added via erf
 Coulomb attenuation parameter = 0.4 bohr**(-1)
 A restricted Kohn-Sham SCF calculation will be
 performed using Pulay DIIS extrapolation
 Exchange:  wPBE + LR-HF      Correlation:  PBE
 Using SG-1 standard quadrature grid
 SCF converges when DIIS error is below 1.0E-05
 Requested basis set is G3large
 There are 38 shells and 114 basis functions
 A cutoff of  1.0D-08 yielded    732 shell pairs
 There are   6640 function pairs (  8147 Cartesian)
 Warning!  Inaccurate integrated density:
   Number of electrons =    16
   Numerical integral  =    14.999949395692
   Relative error      =    -6.2503162769 %
 ---------------------------------------
  Cycle       Energy         DIIS Error
 ---------------------------------------
    1     -78.1388559147      3.68E-02
    2     -77.7262949392      7.69E-03
    3     -77.7893340478      6.25E-03
    4     -77.8572896015      6.05E-04
    5     -77.8594303846      4.39E-04
    6     -77.8603615961      1.81E-04
    7     -77.8609175595      8.00E-05
    8     -77.8610591514      2.05E-05
    9     -77.8610686056      6.67E-06 Convergence criterion met
 ---------------------------------------
 One-Electron    Energy =  -163.7033180331
 Total Coulomb   Energy =    69.4785718866
 Alpha Exchange  Energy =    -1.5401744308
 Beta  Exchange  Energy =    -1.5401744308
 DFT   Exchange  Energy =    -8.4611274692
 DFT Correlation Energy =    -0.4877939652
 Nuclear Repu.   Energy =    28.3929478369
 Nuclear Attr.   Energy =  -241.3077080634
 Kinetic         Energy =    77.6043900303
 SCF time:  CPU 23.08 s  wall 24.37 s
 Final Alpha MO Eigenvalues
            1           2           3           4           5           6
    1  -9.8606866  -9.8226383  -0.6437556  -0.4435636  -0.3284386  -0.2931854
            7           8           9          10          11          12
    1  -0.1448837  -0.0238345   0.1771830   0.1832962   0.1880792   0.2682568
           13
    1   0.2812608
 Analysis of SCF Wavefunction
 
 --------------------------------------------------------------
                    Orbital Energies (a.u.)
 --------------------------------------------------------------
 
 Alpha MOs
 -- Occupied --
 -9.861  -9.823  -0.644  -0.444  -0.328  -0.293  -0.145  -0.024
 -- Virtual --
  0.177   0.183   0.188   0.268   0.281   0.284   0.302   0.341
  0.347   0.363   0.376   0.399   0.425   0.447   0.540   0.655
  0.750   0.772   0.809   0.843   0.854   0.873   0.927   0.933
  0.936   0.964   0.995   1.000   1.085   1.089   1.126   1.236
  1.278   1.307   1.387   1.444   1.506   1.541   1.658   1.685
  1.726   1.756   1.810   1.835   1.868   2.047   2.765   2.812
  2.980   3.007   3.019   3.040   3.103   3.122   3.165   3.221
  3.233   3.303   3.410   3.428   3.474   3.489   3.536   3.572
  3.576   3.652   3.665   3.720   3.758   3.841   3.953   4.050
  4.051   4.107   4.258   4.454   4.471   4.520   4.653   4.764
  4.806   4.952   5.145   5.464   5.594   5.737   5.886   6.482
 24.003  24.980  27.486  27.684  27.841  28.380  28.532  28.661
 41.108  41.174  41.208  41.387  41.389  41.430  41.504  41.534
 41.586  41.603
 --------------------------------------------------------------
 
          Ground-State Mulliken Net Atomic Charges

     Atom                 Charge (a.u.)
  ----------------------------------------
      1 C                    -0.545285
      2 C                    -0.465288
      3 H                    -0.080145
      4 H                     0.054702
      5 H                     0.036016
  ----------------------------------------
  Sum of atomic charges =    -1.000000

 -----------------------------------------------------------------
                    Cartesian Multipole Moments
 -----------------------------------------------------------------
    Charge (ESU x 10^10)
                -4.8032
    Dipole Moment (Debye)
         X       1.7959      Y       0.0016      Z      -5.3055
       Tot       5.6012
    Quadrupole Moments (Debye-Ang)
        XX     -20.6339     XY      -0.0038     YY     -19.4573
        XZ       5.1187     YZ       0.0043     ZZ     -27.5092
    Octapole Moments (Debye-Ang^2)
       XXX       2.5393    XXY       0.0022    XYY       1.2491
       YYY       0.0079    XXZ     -18.1536    XYZ      -0.0066
       YYZ     -13.5086    XZZ      10.1906    YZZ       0.0108
       ZZZ     -53.4855
    Hexadecapole Moments (Debye-Ang^3)
      XXXX     -59.2402   XXXY      -0.0154   XXYY     -16.1335
      XYYY      -0.0153   YYYY     -36.2645   XXXZ      10.3798
      XXYZ       0.0060   XYYZ       3.7919   YYYZ       0.0206
      XXZZ     -49.1694   XYZZ      -0.0180   YYZZ     -35.2145
      XZZZ      29.0547   YZZZ       0.0358   ZZZZ    -195.3138
 -----------------------------------------------------------------
 Total job time:  24.53s(wall), 23.19s(cpu) 
 Sat Mar 22 05:42:33 2014

        *************************************************************
        *                                                           *
        *  Thank you very much for using Q-Chem.  Have a nice day.  *
        *                                                           *
        *************************************************************


0 sent ACK to 0 
now end server 0 ... 
 
**********************************************************************
Job 2 of 3 
**********************************************************************
 
Process 0 of 1 is on cl135 - thread support 1
initial socket setup ...start
initial socket setup ...done 
now start server 0 ... 

cmd = /usr/bin/ssh clhead /usr/local/qchem/bin/get_hostid 350408964 > /tmp/1602265.1.medium.q/qchem897/lic.dat

cmd = /usr/bin/ssh clhead /usr/local/qchem/bin/get_hostid 350408964 > /tmp/1602265.1.medium.q/qchem897/lic.dat

cmd = /usr/bin/ssh clhead /usr/local/qchem/bin/get_hostid 350408964 > /tmp/1602265.1.medium.q/qchem897/lic.dat

cmd = /usr/bin/ssh clhead /usr/local/qchem/bin/get_hostid 350408964 > /tmp/1602265.1.medium.q/qchem897/lic.dat

cmd = /usr/bin/ssh clhead /usr/local/qchem/bin/get_hostid 350408964 > /tmp/1602265.1.medium.q/qchem897/lic.dat
                  Welcome to Q-Chem
     A Quantum Leap Into The Future Of Chemistry

 Y. Shao, L. Fusti-Molnar, Y. Jung, J. Kussmann, C. Ochsenfeld,
 S. T. Brown, A. T. B. Gilbert, L. V. Slipchenko,S. V. Levchenko,
 D. P. O'Neill, R. A. DiStasio Jr., R. C. Lochan, T. Wang,
 G. J. O. Beran, N. A. Besley, J. M. Herbert, C. Y. Lin,
 T. Van Voorhis, S. H. Chien, A. Sodt, R. P. Steele, 
 V. A. Rassolov, P. E. Maslen, P. P. Korambath, R. D. Adamson,
 B. Austin, J. Baker, E. F. C. Byrd, H. Dachsel, R. J. Doerksen,
 A. Dreuw, B. D. Dunietz, A. D. Dutoi, T. R. Furlani,
 S. R. Gwaltney, A. Heyden, S. Hirata, C.-P. Hsu, G. Kedziora,
 R. Z. Khaliullin, P. Klunzinger, A. M. Lee, M. S. Lee, W. Liang,
 I. Lotan, N. Nair, B. Peters, E. I. Proynov, P. A. Pieniazek, 
 Y. M. Rhee, J. Ritchie, E. Rosta, C. D. Sherrill, 
 A. C. Simmonett, J. E. Subotnik, H. L. Woodcock III,
 W. Zhang, A. T. Bell, A. K. Chakraborty, D. M. Chipman,
 F. J. Keil, A. Warshel, W. J. Hehre, H. F. Schaefer III,
 J. Kong, A. I. Krylov, P. M. W. Gill, M. Head-Gordon,
 Q-Chem, Version 3.1, Q-Chem, Inc., Pittsburgh, PA (2007).

 Additional authors for Version 3.1: 
 Z. Gan, Y. Zhao, N. E. Schultz, D. Truhlar, E. Epifanovsky and M. Oana.

 Additional authors for Version 3.2: 
 R. Baer, B. R. Brooks, D. Casanova, J.-D. Chai, C.-L. Cheng, 
 C. Cramer, D. Crittenden, A. Ghysels, G. Hawkins, E. G. Hohenstein, 
 C. Kelley, W. Kurlancheek, D. Liotard, E. Livshits, P. Manohar, 
 A. Marenich, D. Neuhauser, R. Olson, M. A. Rohrdanz, K. S. Thanthiriwatte, 
 A. J. W. Thom, V. Vanovschi, C. F. Williams, Q. Wu and Z.-Q. You. 


 Intel X86 Linux Version

 Q-chem begins on Sat Mar 22 05:42:37 2014  

 Parallel job on  1  processors
Processing $rem in /usr/local/qchem/config/preferences.

theFileMan(): MAXOPENFILES=974 MAX_SUB_FILE_NUM=16
Maximum size of a physical file is 2.0 GB, maximum size of a tmp-file is 32.0 GB


--------------------------------------------------------------
User input:
--------------------------------------------------------------

$molecule
0,2
C         -0.00017        0.00000       -0.00233
C          0.00868        0.00000        1.30341
H          0.93029        0.00000       -0.58611
H         -0.92923        0.00000       -0.57859
H          0.72813        0.00000        2.11653
$end

$comment
neutral
$end

$xc_functional
C PBE   1.00
X wPBE  1.00
$end


$rem
SYMMETRY_DECOMPOSITION	0
LRC_DFT                 true
exchange 		general
BASIS                   g3large
omega			400
mem_static              760
max_scf_cycles          200
scf_final_print         1
sym_ignore              true
$end

--------------------------------------------------------------
 Writing REM_CC_EA            5
 ----------------------------------------------------
       Standard Nuclear Orientation (Angstroms)
    I     Atom         X            Y            Z
 ----------------------------------------------------
    1      C      -0.000170     0.000000    -0.002330
    2      C       0.008680     0.000000     1.303410
    3      H       0.930290     0.000000    -0.586110
    4      H      -0.929230     0.000000    -0.578590
    5      H       0.728130     0.000000     2.116530
 ----------------------------------------------------
 Nuclear Repulsion Energy =    28.3929478384 hartrees
 There are        8 alpha and        7 beta electrons
 Requested basis set is G3large
 There are 38 shells and 114 basis functions

Total QAlloc Memory Limit   2000 MB
Mega-Array Size       743 MB
MEM_STATIC part       760 MB

                       Distance Matrix (Angstroms)
             C (  1)   C (  2)   H (  3)   H (  4)
   C (  2)  1.305770
   H (  3)  1.098433  2.102297
   H (  4)  1.093265  2.102760  1.859535
   H (  5)  2.240533  1.085713  2.710190  3.163940
 
 A cutoff of  1.0D-08 yielded    732 shell pairs
 There are   6640 function pairs (  8147 Cartesian)
Evaluating contribution to one-electron hamiltonian from nuclear
 Smallest overlap matrix eigenvalue = 1.16E-04
 Multipole matrices computed through 2nd order

  Scale SEOQF with 1.000000e-01/1.000000e-01/1.000000e-01

 Standard Electronic Orientation quadrupole field applied
 Nucleus-field energy     =    -0.0000000016 hartrees
 Guess from superposition of atomic densities
 Warning:  Energy on first SCF cycle will be non-variational
 Long-range K will be added via erf
 Coulomb attenuation parameter = 0.4 bohr**(-1)
 An unrestricted Kohn-Sham SCF calculation will be
 performed using Pulay DIIS extrapolation
 Exchange:  wPBE + LR-HF      Correlation:  PBE
 Using SG-1 standard quadrature grid
 SCF converges when DIIS error is below 1.0E-05
 Requested basis set is G3large
 There are 38 shells and 114 basis functions
 A cutoff of  1.0D-08 yielded    732 shell pairs
 There are   6640 function pairs (  8147 Cartesian)
 ---------------------------------------
  Cycle       Energy         DIIS Error
 ---------------------------------------
    1     -78.1388559147      3.68E-02
    2     -77.8216351519      3.27E-03
    3     -77.8490230218      1.66E-03
    4     -77.8568250848      4.84E-04
    5     -77.8600964602      2.71E-04
    6     -77.8611308726      1.41E-04
    7     -77.8617876491      4.25E-05
    8     -77.8619390042      1.88E-05
    9     -77.8620018088      1.00E-05
   10     -77.8620362147      4.44E-06 Convergence criterion met
 ---------------------------------------
 One-Electron    Energy =  -159.7210958001
 Total Coulomb   Energy =    65.2852739129
 Alpha Exchange  Energy =    -1.5699981454
 Beta  Exchange  Energy =    -1.3780121124
 DFT   Exchange  Energy =    -8.4155869428
 DFT Correlation Energy =    -0.4555649638
 Nuclear Repu.   Energy =    28.3929478369
 Nuclear Attr.   Energy =  -237.1938227068
 Kinetic         Energy =    77.4727269067
 <S^2> = 0.7659
 SCF time:  CPU 30.05 s  wall 31.70 s
 Final Alpha MO Eigenvalues
            1           2           3           4           5           6
    1 -10.1342829 -10.1113411  -0.9181626  -0.7146476  -0.5930383  -0.5584743
            7           8           9          10          11          12
    1  -0.4098743  -0.3599710   0.0449318   0.0572350   0.0646404   0.0751652
           13
    1   0.1210258
 Final Beta MO Eigenvalues
            1           2           3           4           5           6
    1 -10.1194670 -10.1132877  -0.8996526  -0.6885980  -0.5743432  -0.5398430
            7           8           9          10          11          12
    1  -0.4008322   0.0225001   0.0467790   0.0579789   0.0657461   0.0842177
 Analysis of SCF Wavefunction
 
 --------------------------------------------------------------
                    Orbital Energies (a.u.)
 --------------------------------------------------------------
 
 Alpha MOs
 -- Occupied --
-10.134 -10.111  -0.918  -0.715  -0.593  -0.558  -0.410  -0.360
 -- Virtual --
  0.045   0.057   0.065   0.075   0.121   0.131   0.139   0.179
  0.183   0.183   0.203   0.213   0.235   0.248   0.351   0.437
  0.524   0.542   0.590   0.605   0.622   0.641   0.687   0.694
  0.710   0.734   0.752   0.760   0.829   0.840   0.877   1.013
  1.035   1.082   1.152   1.198   1.262   1.297   1.416   1.439
  1.476   1.521   1.567   1.593   1.632   1.782   2.508   2.562
  2.706   2.746   2.749   2.772   2.825   2.839   2.868   2.941
  2.960   3.017   3.149   3.152   3.215   3.219   3.256   3.267
  3.303   3.381   3.386   3.425   3.475   3.562   3.680   3.769
  3.782   3.834   3.994   4.199   4.214   4.268   4.380   4.500
  4.534   4.674   4.868   5.190   5.318   5.465   5.636   6.201
 23.718  24.704  27.206  27.406  27.516  28.130  28.279  28.355
 40.828  40.856  40.957  41.096  41.113  41.152  41.212  41.254
 41.306  41.326
 
 Beta MOs
 -- Occupied --
-10.119 -10.113  -0.900  -0.689  -0.574  -0.540  -0.401
 -- Virtual --
  0.023   0.047   0.058   0.066   0.084   0.122   0.137   0.149
  0.181   0.187   0.189   0.204   0.216   0.240   0.259   0.362
  0.447   0.538   0.560   0.595   0.614   0.627   0.661   0.701
  0.715   0.724   0.745   0.760   0.778   0.852   0.860   0.900
  1.020   1.047   1.086   1.157   1.218   1.278   1.307   1.428
  1.450   1.500   1.530   1.575   1.604   1.641   1.807   2.518
  2.573   2.734   2.758   2.759   2.782   2.845   2.864   2.910
  2.964   2.972   3.054   3.158   3.167   3.223   3.239   3.285
  3.319   3.322   3.404   3.411   3.464   3.506   3.592   3.698
  3.789   3.794   3.853   4.011   4.213   4.224   4.276   4.397
  4.511   4.553   4.694   4.879   5.211   5.332   5.484   5.645
  6.220  23.728  24.710  27.212  27.409  27.553  28.128  28.279
 28.365  40.835  40.884  40.953  41.114  41.120  41.154  41.228
 41.257  41.314  41.331
 --------------------------------------------------------------
 
          Ground-State Mulliken Net Atomic Charges

     Atom                 Charge (a.u.)    Spin (a.u.)
  --------------------------------------------------------
      1 C                    -0.228558      -0.179797
      2 C                    -0.072852       1.037061
      3 H                     0.081981       0.081114
      4 H                     0.103129       0.042062
      5 H                     0.116301       0.019561
  --------------------------------------------------------
  Sum of atomic charges =     0.000000
  Sum of spin   charges =     1.000000

 -----------------------------------------------------------------
                    Cartesian Multipole Moments
 -----------------------------------------------------------------
    Charge (ESU x 10^10)
                 0.0000
    Dipole Moment (Debye)
         X       0.6422      Y      -0.0001      Z      -0.3120
       Tot       0.7139
    Quadrupole Moments (Debye-Ang)
        XX     -12.2510     XY       0.0004     YY     -14.8342
        XZ       1.6112     YZ      -0.0003     ZZ     -11.5426
    Octapole Moments (Debye-Ang^2)
       XXX      -0.9304    XXY       0.0001    XYY      -0.4590
       YYY       0.0001    XXZ      -8.5694    XYZ       0.0002
       YYZ      -8.9230    XZZ       3.1942    YZZ      -0.0005
       ZZZ     -19.9251
    Hexadecapole Moments (Debye-Ang^3)
      XXXX     -23.3412   XXXY       0.0007   XXYY      -7.4476
      XYYY       0.0005   YYYY     -18.3692   XXXZ      -1.5061
      XXYZ      -0.0001   XYYZ      -0.8717   YYYZ      -0.0004
      XXZZ     -18.0995   XYZZ       0.0011   YYZZ     -19.8087
      XZZZ       5.7421   YZZZ      -0.0015   ZZZZ     -83.8638
 -----------------------------------------------------------------
 Total job time:  31.84s(wall), 30.15s(cpu) 
 Sat Mar 22 05:43:09 2014

        *************************************************************
        *                                                           *
        *  Thank you very much for using Q-Chem.  Have a nice day.  *
        *                                                           *
        *************************************************************


0 sent ACK to 0 
now end server 0 ... 
 
**********************************************************************
Job 3 of 3 
**********************************************************************
 
Process 0 of 1 is on cl135 - thread support 1
initial socket setup ...start
initial socket setup ...done 
now start server 0 ... 

cmd = /usr/bin/ssh clhead /usr/local/qchem/bin/get_hostid 1225097316 > /tmp/1602265.1.medium.q/qchem897/lic.dat

cmd = /usr/bin/ssh clhead /usr/local/qchem/bin/get_hostid 1225097316 > /tmp/1602265.1.medium.q/qchem897/lic.dat

cmd = /usr/bin/ssh clhead /usr/local/qchem/bin/get_hostid 1225097316 > /tmp/1602265.1.medium.q/qchem897/lic.dat

cmd = /usr/bin/ssh clhead /usr/local/qchem/bin/get_hostid 1225097316 > /tmp/1602265.1.medium.q/qchem897/lic.dat

cmd = /usr/bin/ssh clhead /usr/local/qchem/bin/get_hostid 1225097316 > /tmp/1602265.1.medium.q/qchem897/lic.dat
                  Welcome to Q-Chem
     A Quantum Leap Into The Future Of Chemistry

 Y. Shao, L. Fusti-Molnar, Y. Jung, J. Kussmann, C. Ochsenfeld,
 S. T. Brown, A. T. B. Gilbert, L. V. Slipchenko,S. V. Levchenko,
 D. P. O'Neill, R. A. DiStasio Jr., R. C. Lochan, T. Wang,
 G. J. O. Beran, N. A. Besley, J. M. Herbert, C. Y. Lin,
 T. Van Voorhis, S. H. Chien, A. Sodt, R. P. Steele, 
 V. A. Rassolov, P. E. Maslen, P. P. Korambath, R. D. Adamson,
 B. Austin, J. Baker, E. F. C. Byrd, H. Dachsel, R. J. Doerksen,
 A. Dreuw, B. D. Dunietz, A. D. Dutoi, T. R. Furlani,
 S. R. Gwaltney, A. Heyden, S. Hirata, C.-P. Hsu, G. Kedziora,
 R. Z. Khaliullin, P. Klunzinger, A. M. Lee, M. S. Lee, W. Liang,
 I. Lotan, N. Nair, B. Peters, E. I. Proynov, P. A. Pieniazek, 
 Y. M. Rhee, J. Ritchie, E. Rosta, C. D. Sherrill, 
 A. C. Simmonett, J. E. Subotnik, H. L. Woodcock III,
 W. Zhang, A. T. Bell, A. K. Chakraborty, D. M. Chipman,
 F. J. Keil, A. Warshel, W. J. Hehre, H. F. Schaefer III,
 J. Kong, A. I. Krylov, P. M. W. Gill, M. Head-Gordon,
 Q-Chem, Version 3.1, Q-Chem, Inc., Pittsburgh, PA (2007).

 Additional authors for Version 3.1: 
 Z. Gan, Y. Zhao, N. E. Schultz, D. Truhlar, E. Epifanovsky and M. Oana.

 Additional authors for Version 3.2: 
 R. Baer, B. R. Brooks, D. Casanova, J.-D. Chai, C.-L. Cheng, 
 C. Cramer, D. Crittenden, A. Ghysels, G. Hawkins, E. G. Hohenstein, 
 C. Kelley, W. Kurlancheek, D. Liotard, E. Livshits, P. Manohar, 
 A. Marenich, D. Neuhauser, R. Olson, M. A. Rohrdanz, K. S. Thanthiriwatte, 
 A. J. W. Thom, V. Vanovschi, C. F. Williams, Q. Wu and Z.-Q. You. 


 Intel X86 Linux Version

 Q-chem begins on Sat Mar 22 05:43:13 2014  

 Parallel job on  1  processors
Processing $rem in /usr/local/qchem/config/preferences.

theFileMan(): MAXOPENFILES=974 MAX_SUB_FILE_NUM=16
Maximum size of a physical file is 2.0 GB, maximum size of a tmp-file is 32.0 GB


--------------------------------------------------------------
User input:
--------------------------------------------------------------

$molecule
1,1
C         -0.00017        0.00000       -0.00233
C          0.00868        0.00000        1.30341
H          0.93029        0.00000       -0.58611
H         -0.92923        0.00000       -0.57859
H          0.72813        0.00000        2.11653
$end

$comment
positive
$end

$xc_functional
C PBE   1.00
X wPBE  1.00
$end

$rem
SYMMETRY_DECOMPOSITION	0
LRC_DFT                 true
exchange 		general
BASIS                   g3large
omega			400
mem_static              760
max_scf_cycles          200
scf_final_print         1
sym_ignore              true
$end

--------------------------------------------------------------
 Writing REM_CC_EA            5
 ----------------------------------------------------
       Standard Nuclear Orientation (Angstroms)
    I     Atom         X            Y            Z
 ----------------------------------------------------
    1      C      -0.000170     0.000000    -0.002330
    2      C       0.008680     0.000000     1.303410
    3      H       0.930290     0.000000    -0.586110
    4      H      -0.929230     0.000000    -0.578590
    5      H       0.728130     0.000000     2.116530
 ----------------------------------------------------
 Nuclear Repulsion Energy =    28.3929478384 hartrees
 There are        7 alpha and        7 beta electrons
 Requested basis set is G3large
 There are 38 shells and 114 basis functions

Total QAlloc Memory Limit   2000 MB
Mega-Array Size       743 MB
MEM_STATIC part       760 MB

                       Distance Matrix (Angstroms)
             C (  1)   C (  2)   H (  3)   H (  4)
   C (  2)  1.305770
   H (  3)  1.098433  2.102297
   H (  4)  1.093265  2.102760  1.859535
   H (  5)  2.240533  1.085713  2.710190  3.163940
 
 A cutoff of  1.0D-08 yielded    732 shell pairs
 There are   6640 function pairs (  8147 Cartesian)
Evaluating contribution to one-electron hamiltonian from nuclear
 Smallest overlap matrix eigenvalue = 1.16E-04
 Multipole matrices computed through 2nd order

  Scale SEOQF with 1.000000e-01/1.000000e-01/1.000000e-01

 Standard Electronic Orientation quadrupole field applied
 Nucleus-field energy     =    -0.0000000016 hartrees
 Guess from superposition of atomic densities
 Warning:  Energy on first SCF cycle will be non-variational
 Long-range K will be added via erf
 Coulomb attenuation parameter = 0.4 bohr**(-1)
 A restricted Kohn-Sham SCF calculation will be
 performed using Pulay DIIS extrapolation
 Exchange:  wPBE + LR-HF      Correlation:  PBE
 Using SG-1 standard quadrature grid
 SCF converges when DIIS error is below 1.0E-05
 Requested basis set is G3large
 There are 38 shells and 114 basis functions
 A cutoff of  1.0D-08 yielded    732 shell pairs
 There are   6640 function pairs (  8147 Cartesian)
 Warning!  Inaccurate integrated density:
   Number of electrons =    14
   Numerical integral  =    14.999949395692
   Relative error      =     7.1424956835 %
 ---------------------------------------
  Cycle       Energy         DIIS Error
 ---------------------------------------
    1     -78.1388559147      3.68E-02
    2     -77.4491887637      4.25E-03
    3     -77.4748374629      3.61E-03
    4     -77.4954686984      7.92E-04
    5     -77.4982093915      3.31E-04
    6     -77.4992858077      2.24E-04
    7     -77.5005380963      1.26E-04
    8     -77.5010648373      3.95E-05
    9     -77.5010964769      1.20E-05
   10     -77.5010977602      3.00E-06 Convergence criterion met
 ---------------------------------------
 One-Electron    Energy =  -154.8812986698
 Total Coulomb   Energy =    60.4484338502
 Alpha Exchange  Energy =    -1.3849991339
 Beta  Exchange  Energy =    -1.3849991339
 DFT   Exchange  Energy =    -8.2641086678
 DFT Correlation Energy =    -0.4270738418
 Nuclear Repu.   Energy =    28.3929478369
 Nuclear Attr.   Energy =  -231.9340634440
 Kinetic         Energy =    77.0527647742
 SCF time:  CPU 25.39 s  wall 27.09 s
 Final Alpha MO Eigenvalues
            1           2           3           4           5           6
    1 -10.5222643 -10.4300069  -1.2342688  -1.0149282  -0.8964353  -0.8512311
            7           8           9          10          11          12
    1  -0.7216517  -0.3529583  -0.1986602  -0.1137723  -0.0945928  -0.0826625
 Analysis of SCF Wavefunction
 
 --------------------------------------------------------------
                    Orbital Energies (a.u.)
 --------------------------------------------------------------
 
 Alpha MOs
 -- Occupied --
-10.522 -10.430  -1.234  -1.015  -0.896  -0.851  -0.722
 -- Virtual --
 -0.353  -0.199  -0.114  -0.095  -0.083  -0.054  -0.037  -0.024
 -0.006   0.002   0.014   0.033   0.037   0.040   0.051   0.149
  0.194   0.288   0.306   0.331   0.348   0.368   0.394   0.441
  0.443   0.464   0.483   0.488   0.517   0.560   0.577   0.623
  0.755   0.780   0.829   0.888   0.934   1.000   1.029   1.150
  1.171   1.207   1.262   1.294   1.327   1.369   1.507   2.212
  2.277   2.405   2.425   2.452   2.455   2.518   2.525   2.558
  2.628   2.647   2.709   2.833   2.848   2.909   2.913   2.947
  2.951   2.996   3.069   3.083   3.113   3.166   3.255   3.369
  3.451   3.472   3.526   3.693   3.906   3.912   3.977   4.069
  4.197   4.226   4.362   4.547   4.879   4.998   5.154   5.341
  5.882  23.362  24.362  26.845  27.066  27.136  27.811  27.959
 27.974  40.468  40.476  40.636  40.716  40.749  40.829  40.835
 40.912  40.962  40.993
 --------------------------------------------------------------
 
          Ground-State Mulliken Net Atomic Charges

     Atom                 Charge (a.u.)
  ----------------------------------------
      1 C                    -0.003367
      2 C                     0.349906
      3 H                     0.211938
      4 H                     0.196455
      5 H                     0.245069
  ----------------------------------------
  Sum of atomic charges =     1.000000

 -----------------------------------------------------------------
                    Cartesian Multipole Moments
 -----------------------------------------------------------------
    Charge (ESU x 10^10)
                 4.8032
    Dipole Moment (Debye)
         X       0.5382      Y       0.0000      Z       3.3221
       Tot       3.3654
    Quadrupole Moments (Debye-Ang)
        XX      -7.2783     XY       0.0000     YY     -12.3065
        XZ       1.1103     YZ       0.0001     ZZ      -0.7533
    Octapole Moments (Debye-Ang^2)
       XXX      -0.5742    XXY       0.0000    XYY      -0.5483
       YYY       0.0000    XXZ      -5.2842    XYZ      -0.0001
       YYZ      -7.4903    XZZ       3.0677    YZZ       0.0001
       ZZZ      -1.7054
    Hexadecapole Moments (Debye-Ang^3)
      XXXX     -12.5554   XXXY       0.0000   XXYY      -4.9112
      XYYY       0.0000   YYYY     -12.4397   XXXZ      -1.3632
      XXYZ       0.0000   XYYZ      -1.1408   YYYZ       0.0001
      XXZZ      -7.0929   XYZZ      -0.0001   YYZZ     -15.0925
      XZZZ       5.8674   YZZZ       0.0003   ZZZZ     -35.4223
 -----------------------------------------------------------------
 Total job time:  27.24s(wall), 25.49s(cpu) 
 Sat Mar 22 05:43:41 2014

        *************************************************************
        *                                                           *
        *  Thank you very much for using Q-Chem.  Have a nice day.  *
        *                                                           *
        *************************************************************


0 sent ACK to 0 
now end server 0 ... 
