Process 0 of 1 is on cl257.stfx.acenet.ca - thread support 1
initial socket setup ...start
initial socket setup ...done 
now start server 0 ... 

cmd = /usr/bin/ssh clhead /usr/local/qchem/bin/get_hostid 1817538518 > /scratch/tmp/4506643.1.long.q/qchem25796/lic.dat
                  Welcome to Q-Chem
     A Quantum Leap Into The Future Of Chemistry

 Y. Shao, L. Fusti-Molnar, Y. Jung, J. Kussmann, C. Ochsenfeld,
 S. T. Brown, A. T. B. Gilbert, L. V. Slipchenko,S. V. Levchenko,
 D. P. O'Neill, R. A. DiStasio Jr., R. C. Lochan, T. Wang,
 G. J. O. Beran, N. A. Besley, J. M. Herbert, C. Y. Lin,
 T. Van Voorhis, S. H. Chien, A. Sodt, R. P. Steele, 
 V. A. Rassolov, P. E. Maslen, P. P. Korambath, R. D. Adamson,
 B. Austin, J. Baker, E. F. C. Byrd, H. Dachsel, R. J. Doerksen,
 A. Dreuw, B. D. Dunietz, A. D. Dutoi, T. R. Furlani,
 S. R. Gwaltney, A. Heyden, S. Hirata, C.-P. Hsu, G. Kedziora,
 R. Z. Khaliullin, P. Klunzinger, A. M. Lee, M. S. Lee, W. Liang,
 I. Lotan, N. Nair, B. Peters, E. I. Proynov, P. A. Pieniazek, 
 Y. M. Rhee, J. Ritchie, E. Rosta, C. D. Sherrill, 
 A. C. Simmonett, J. E. Subotnik, H. L. Woodcock III,
 W. Zhang, A. T. Bell, A. K. Chakraborty, D. M. Chipman,
 F. J. Keil, A. Warshel, W. J. Hehre, H. F. Schaefer III,
 J. Kong, A. I. Krylov, P. M. W. Gill, M. Head-Gordon,
 Q-Chem, Version 3.1, Q-Chem, Inc., Pittsburgh, PA (2007).

 Additional authors for Version 3.1: 
 Z. Gan, Y. Zhao, N. E. Schultz, D. Truhlar, E. Epifanovsky and M. Oana.

 Additional authors for Version 3.2: 
 R. Baer, B. R. Brooks, D. Casanova, J.-D. Chai, C.-L. Cheng, 
 C. Cramer, D. Crittenden, A. Ghysels, G. Hawkins, E. G. Hohenstein, 
 C. Kelley, W. Kurlancheek, D. Liotard, E. Livshits, P. Manohar, 
 A. Marenich, D. Neuhauser, R. Olson, M. A. Rohrdanz, K. S. Thanthiriwatte, 
 A. J. W. Thom, V. Vanovschi, C. F. Williams, Q. Wu and Z.-Q. You. 


 Intel X86 Linux Version

 Q-chem begins on Sat Apr 23 21:57:36 2011  

 Parallel job on  1  processors
Processing $rem in /usr/local/qchem/config/preferences.

theFileMan(): MAXOPENFILES=974 MAX_SUB_FILE_NUM=16
Maximum size of a physical file is 2.0 GB, maximum size of a tmp-file is 32.0 GB


--------------------------------------------------------------
User input:
--------------------------------------------------------------

$molecule
0,1
C
Si,1,SiC
H,1,CH,2,HCSi
H,1,CH,2,HCSi,3,120.,0
H,1,CH,2,HCSi,3,240.,0
H,2,SiH,1,HSiC,3,180.,0
H,2,SiH,1,HSiC,6,120.,0
H,2,SiH,1,HSiC,6,240.,0

SiC=1.88859042
CH=1.09552797
SiH=1.48953333
HCSi=111.0156463
HSiC=110.84558134

$end

$comment
neutral
$end

$xc_functional
   X HF 1.0
   X BNL 1.0
   C LYP 1.0
$end

$rem
SYMMETRY_DECOMPOSITION	0
exchange 		general
BASIS                   g3large
omega			420 
JOBTYPE                 opt
separate_jk		true
mem_static              760
max_scf_cycles          200
scf_final_print         1
sym_ignore              true
$end


--------------------------------------------------------------
 Writing REM_CC_EA            8
 ----------------------------------------------------
       Standard Nuclear Orientation (Angstroms)
    I     Atom         X            Y            Z
 ----------------------------------------------------
    1      C       0.000000     0.000000     0.000000
    2      Si      0.000000     0.000000     1.888590
    3      H       1.022656     0.000000    -0.392881
    4      H      -0.511328    -0.885646    -0.392881
    5      H      -0.511328     0.885646    -0.392881
    6      H      -1.392033     0.000000     2.418642
    7      H       0.696016    -1.205536     2.418642
    8      H       0.696016     1.205536     2.418642
 ----------------------------------------------------
 Nuclear Repulsion Energy =    62.4701127810 hartrees
 There are       13 alpha and       13 beta electrons
 Requested basis set is G3large
 There are 65 shells and 168 basis functions

Total QAlloc Memory Limit   2000 MB
Mega-Array Size       743 MB
MEM_STATIC part       760 MB
 A cutoff of  1.0D-11 yielded   2106 shell pairs
 There are  14143 function pairs ( 17593 Cartesian)
Evaluating contribution to one-electron hamiltonian from nuclear
 Smallest overlap matrix eigenvalue = 1.45E-04
 Multipole matrices computed through 2nd order

  Scale SEOQF with 1.000000e-01/1.000000e-01/1.000000e-01

 Standard Electronic Orientation quadrupole field applied
 Nucleus-field energy     =    -0.0000000068 hartrees
 Guess from superposition of atomic densities
 Warning:  Energy on first SCF cycle will be non-variational
 A restricted hybrid HF-DFT SCF calculation will be
 performed using Pulay DIIS extrapolation
 Exchange:     1.0000 Hartree-Fock + 1.0000 BNL
 Correlation:  1.0000 LYP
 Using SG-1 standard quadrature grid
 SCF converges when DIIS error is below 1.0E-08
 ---------------------------------------
  Cycle       Energy         DIIS Error
 ---------------------------------------
    1    -329.3725686415      2.82E-02
    2    -329.2128982570      2.86E-03
    3    -329.2361936472      1.77E-03
    4    -329.2465363950      2.78E-04
    5    -329.2469345484      5.62E-05
    6    -329.2469563765      1.51E-05
    7    -329.2469579784      3.24E-06
    8    -329.2469580793      9.76E-07
    9    -329.2469580857      1.93E-07
   10    -329.2469580860      2.91E-08
   11    -329.2469580857      5.61E-09 Convergence criterion met
 ---------------------------------------
 One-Electron    Energy =  -579.8091212385
 Total Coulomb   Energy =   214.5767797945
 Alpha Exchange  Energy =    -2.7067990485
 Beta  Exchange  Energy =    -2.7067990485
 DFT   Exchange  Energy =   -20.1626293110
 DFT Correlation Energy =    -0.9085020079
 Nuclear Repu.   Energy =    62.4701127742
 Nuclear Attr.   Energy =  -908.0183670992
 Kinetic         Energy =   328.2092458607
 SCF time:  CPU 105.92 s  wall 107.68 s
 Final Alpha MO Eigenvalues
            1           2           3           4           5           6
    1 -65.3035136  -9.9704112  -5.2322249  -3.6637342  -3.6637234  -3.6631814
            7           8           9          10          11          12
    1  -0.8453517  -0.6606636  -0.5334621  -0.5334616  -0.4446281  -0.4446247
           13          14          15          16          17          18
    1  -0.4411103   0.0316915   0.0534130   0.0620219   0.0620266   0.0793544
 Analysis of SCF Wavefunction
 
 --------------------------------------------------------------
                    Orbital Energies (a.u.)
 --------------------------------------------------------------
 
 Alpha MOs
 -- Occupied --
-65.304  -9.970  -5.232  -3.664  -3.664  -3.663  -0.845  -0.661
 -0.533  -0.533  -0.445  -0.445  -0.441
 -- Virtual --
  0.032   0.053   0.062   0.062   0.079   0.087   0.087   0.097
  0.097   0.146   0.146   0.148   0.155   0.182   0.185   0.185
  0.197   0.228   0.233   0.233   0.293   0.293   0.347   0.353
  0.353   0.358   0.404   0.404   0.492   0.497   0.497   0.510
  0.540   0.582   0.582   0.603   0.632   0.632   0.639   0.674
  0.674   0.744   0.774   0.791   0.791   0.836   0.836   0.906
  0.917   0.917   0.935   0.951   0.998   1.072   1.072   1.139
  1.139   1.176   1.202   1.202   1.295   1.295   1.324   1.379
  1.406   1.406   1.421   1.421   1.424   1.487   1.487   1.565
  1.565   1.581   1.634   1.634   1.669   1.712   2.228   2.263
  2.275   2.275   2.338   2.338   2.448   2.621   2.621   2.723
  2.960   2.961   3.062   3.076   3.212   3.212   3.233   3.330
  3.331   3.418   3.418   3.439   3.649   3.649   3.754   3.755
  3.780   3.900   3.901   3.994   4.028   4.028   4.188   4.194
  4.194   4.241   4.252   4.252   4.346   4.346   4.366   4.472
  4.487   4.488   4.546   4.603   4.746   4.746   5.151   5.753
  5.754   6.318  11.457  11.457  11.767  17.625  17.729  17.794
 17.899  17.964  22.265  22.278  22.287  22.287  22.294  22.296
 22.319  24.295  27.900  28.181  28.181  40.979  40.994  41.288
 41.326  41.370 141.584
 --------------------------------------------------------------
 
          Ground-State Mulliken Net Atomic Charges

     Atom                 Charge (a.u.)
  ----------------------------------------
      1 C                    -0.486157
      2 Si                    0.248001
      3 H                     0.132737
      4 H                     0.132726
      5 H                     0.132727
      6 H                    -0.053342
      7 H                    -0.053346
      8 H                    -0.053346
  ----------------------------------------
  Sum of atomic charges =     0.000000

 -----------------------------------------------------------------
                    Cartesian Multipole Moments
 -----------------------------------------------------------------
    Charge (ESU x 10^10)
                 0.0000
    Dipole Moment (Debye)
         X      -0.0001      Y       0.0000      Z      -0.7548
       Tot       0.7548
    Quadrupole Moments (Debye-Ang)
        XX     -23.4229     XY       0.0000     YY     -23.4229
        XZ      -0.0002     YZ       0.0000     ZZ     -25.5209
    Octapole Moments (Debye-Ang^2)
       XXX       1.6649    XXY       0.0000    XYY      -1.6650
       YYY       0.0000    XXZ     -32.3086    XYZ       0.0000
       YYZ     -32.3086    XZZ      -0.0003    YZZ       0.0000
       ZZZ     -94.6913
    Hexadecapole Moments (Debye-Ang^3)
      XXXX     -59.6550   XXXY       0.0000   XXYY     -19.8851
      XYYY       0.0000   YYYY     -59.6549   XXXZ       1.2093
      XXYZ       0.0000   XYYZ      -1.2096   YYYZ       0.0000
      XXZZ     -84.1590   XYZZ       0.0000   YYZZ     -84.1591
      XZZZ      -0.0003   YZZZ       0.0000   ZZZZ    -423.6971
 -----------------------------------------------------------------
 Calculating analytic gradient of the SCF energy
 Gradient of AOints
            1           2           3           4           5           6
    1   0.0003737  -0.0007807  -2.7054463   1.3528097   1.3528097   3.0072048
    2  -0.0000011   0.0000002   0.0000001   2.3431506  -2.3431504   0.0000002
    3   4.4831498  -5.3145449   1.6311670   1.6315525   1.6315535  -1.3543702
            7           8
    1  -1.5034855  -1.5034855
    2   2.6040861  -2.6040858
    3  -1.3542532  -1.3542545
 Gradient of XC Energy
            1           2           3           4           5           6
    1   0.0000410   0.0001369   0.1370908  -0.0685700  -0.0685700  -0.0791822
    2   0.0000000  -0.0000000  -0.0000000  -0.1187532   0.1187532  -0.0000000
    3   0.0705956   0.0135890  -0.0591036  -0.0590959  -0.0590959   0.0309299
            7           8
    1   0.0395268   0.0395268
    2  -0.0685138   0.0685138
    3   0.0310904   0.0310905
 Gradient of SCF Energy
            1           2           3           4           5           6
    1   0.0000469   0.0001175  -0.0005160   0.0002357   0.0002357  -0.0006976
    2   0.0000000   0.0000000   0.0000000   0.0004231  -0.0004231  -0.0000000
    3  -0.0121197   0.0108601  -0.0004956  -0.0004788  -0.0004788   0.0007914
            7           8
    1   0.0002889   0.0002889
    2  -0.0005592   0.0005592
    3   0.0009606   0.0009607
 Max gradient component =       1.212E-02
 RMS gradient           =       3.354E-03
 Gradient time:  CPU 43.90 s  wall 44.38 s
 Geometry Optimization Parameters
   NAtoms,    NIC,     NZ,  NCons,   NDum,   NFix, NCnnct, MaxDiis
        8      44       8       0       0       0       0       0


** GEOMETRY OPTIMIZATION IN DELOCALIZED INTERNAL COORDINATES **
   Searching for a Minimum

   Optimization Cycle:   1

                       Coordinates (Angstroms)
     ATOM              X           Y           Z
    1  C           0.000000    0.000000    0.000000
    2  Si          0.000000    0.000000    1.888590
    3  H           1.022656    0.000000   -0.392881
    4  H          -0.511328   -0.885646   -0.392881
    5  H          -0.511328    0.885646   -0.392881
    6  H          -1.392033    0.000000    2.418642
    7  H           0.696016   -1.205536    2.418642
    8  H           0.696016    1.205536    2.418642
   Point Group: c1    Number of degrees of freedom:  18


   Energy is   -329.246958086


 Attempting to Generate Delocalized Internal Coordinates

 17 Hessian modes will be used to form the next step
  Hessian Eigenvalues:
     0.054481    0.054481    0.054795    0.054795    0.160000    0.160000
     0.160000    0.160000    0.160000    0.160000    0.173309    0.173309
     0.173309    0.202184    0.341815    0.341815    0.341815

 Minimum Search - Taking Simple RFO Step
 Searching for Lamda that Minimizes Along All modes
 Value Taken    Lamda =  -0.00096470
 Step Taken.  Stepsize is  0.069406

                             Maximum     Tolerance    Cnvgd?
         Gradient           0.010344      0.000300      NO
         Displacement       0.053637      0.001200      NO
         Energy change     *********      0.000001      NO


 New Cartesian Coordinates Obtained by Inverse Iteration

 Displacement from previous Coordinates is:  0.119512
 Writing REM_CC_EA            8
 ----------------------------------------------------
       Standard Nuclear Orientation (Angstroms)
    I     Atom         X            Y            Z
 ----------------------------------------------------
    1      C      -0.000128     0.000000     0.019309
    2      Si     -0.000815     0.000000     1.872544
    3      H       1.024878     0.000000    -0.368788
    4      H      -0.511880    -0.887364    -0.370309
    5      H      -0.511880     0.887364    -0.370308
    6      H      -1.392214     0.000000     2.396371
    7      H       0.696019    -1.205510     2.393526
    8      H       0.696019     1.205510     2.393526
 ----------------------------------------------------
 Nuclear Repulsion Energy =    63.1331491089 hartrees
 There are       13 alpha and       13 beta electrons
 Applying Cartesian multipole field
    Component          Value
    ---------          -----
     (2,0,0)        1.00000E-11
     (0,2,0)        2.00000E-11
     (0,0,2)       -3.00000E-11
 Nucleus-field energy     =    -0.0000000067 hartrees
 Requested basis set is G3large
 There are 65 shells and 168 basis functions
 A cutoff of  1.0D-11 yielded   2106 shell pairs
 There are  14143 function pairs ( 17593 Cartesian)
Evaluating contribution to one-electron hamiltonian from nuclear
 Smallest overlap matrix eigenvalue = 1.34E-04
 Multipole matrices computed through 2nd order
 Guess MOs from SCF MO coefficient file
Reading MOs from coefficient file
Reading MOs from coefficient file
 A restricted hybrid HF-DFT SCF calculation will be
 performed using Pulay DIIS extrapolation
 Exchange:     1.0000 Hartree-Fock + 1.0000 BNL
 Correlation:  1.0000 LYP
 Using SG-1 standard quadrature grid
 SCF converges when DIIS error is below 1.0E-08
 ---------------------------------------
  Cycle       Energy         DIIS Error
 ---------------------------------------
    1    -329.2525933807      6.82E-04
    2    -329.2474372180      6.36E-05
    3    -329.2474515259      2.52E-05
    4    -329.2474529433      4.06E-06
    5    -329.2474530836      1.92E-06
    6    -329.2474531007      5.27E-07
    7    -329.2474531024      1.21E-07
    8    -329.2474531024      3.67E-08
    9    -329.2474531022      4.95E-09 Convergence criterion met
 ---------------------------------------
 One-Electron    Energy =  -581.1473874396
 Total Coulomb   Energy =   215.2651307154
 Alpha Exchange  Energy =    -2.7079583255
 Beta  Exchange  Energy =    -2.7079583255
 DFT   Exchange  Energy =   -20.1730056984
 DFT Correlation Energy =    -0.9094231309
 Nuclear Repu.   Energy =    63.1331491022
 Nuclear Attr.   Energy =  -909.4114006330
 Kinetic         Energy =   328.2640131935
 SCF time:  CPU 88.24 s  wall 89.63 s
 Final Alpha MO Eigenvalues
            1           2           3           4           5           6
    1 -65.2998131  -9.9685827  -5.2293808  -3.6608536  -3.6608405  -3.6602392
            7           8           9          10          11          12
    1  -0.8487750  -0.6596648  -0.5362537  -0.5362090  -0.4436692  -0.4435910
           13          14          15          16          17          18
    1  -0.4432571   0.0316736   0.0541166   0.0618082   0.0618309   0.0794214
 Analysis of SCF Wavefunction
 
 --------------------------------------------------------------
                    Orbital Energies (a.u.)
 --------------------------------------------------------------
 
 Alpha MOs
 -- Occupied --
-65.300  -9.969  -5.229  -3.661  -3.661  -3.660  -0.849  -0.660
 -0.536  -0.536  -0.444  -0.444  -0.443
 -- Virtual --
  0.032   0.054   0.062   0.062   0.079   0.087   0.087   0.097
  0.098   0.146   0.146   0.149   0.155   0.182   0.186   0.186
  0.198   0.231   0.231   0.232   0.295   0.295   0.347   0.353
  0.353   0.361   0.403   0.403   0.496   0.497   0.497   0.511
  0.539   0.586   0.586   0.600   0.636   0.636   0.638   0.674
  0.674   0.744   0.777   0.788   0.788   0.837   0.837   0.903
  0.918   0.918   0.945   0.949   1.009   1.078   1.079   1.144
  1.144   1.184   1.203   1.203   1.294   1.295   1.330   1.379
  1.402   1.402   1.422   1.422   1.423   1.498   1.498   1.569
  1.569   1.587   1.638   1.638   1.671   1.718   2.230   2.271
  2.277   2.277   2.338   2.338   2.451   2.632   2.632   2.736
  2.961   2.961   3.060   3.076   3.229   3.229   3.239   3.335
  3.335   3.423   3.423   3.481   3.653   3.653   3.769   3.771
  3.792   3.904   3.905   4.000   4.038   4.039   4.192   4.196
  4.196   4.240   4.253   4.253   4.347   4.347   4.366   4.478
  4.491   4.492   4.554   4.617   4.760   4.761   5.161   5.750
  5.750   6.357  11.465  11.465  11.812  17.632  17.738  17.805
 17.907  17.970  22.268  22.282  22.292  22.292  22.299  22.300
 22.323  24.300  27.943  28.184  28.185  40.983  40.997  41.290
 41.327  41.371 141.627
 --------------------------------------------------------------
 
          Ground-State Mulliken Net Atomic Charges

     Atom                 Charge (a.u.)
  ----------------------------------------
      1 C                    -0.475601
      2 Si                    0.241125
      3 H                     0.133082
      4 H                     0.133042
      5 H                     0.133042
      6 H                    -0.054798
      7 H                    -0.054946
      8 H                    -0.054946
  ----------------------------------------
  Sum of atomic charges =     0.000000

 -----------------------------------------------------------------
                    Cartesian Multipole Moments
 -----------------------------------------------------------------
    Charge (ESU x 10^10)
                 0.0000
    Dipole Moment (Debye)
         X      -0.0024      Y       0.0000      Z      -0.7974
       Tot       0.7974
    Quadrupole Moments (Debye-Ang)
        XX     -23.3844     XY       0.0000     YY     -23.3859
        XZ      -0.0051     YZ       0.0000     ZZ     -25.6350
    Octapole Moments (Debye-Ang^2)
       XXX       1.7261    XXY       0.0000    XYY      -1.6922
       YYY       0.0000    XXZ     -32.2327    XYZ       0.0000
       YYZ     -32.2385    XZZ      -0.0012    YZZ       0.0000
       ZZZ     -94.5171
    Hexadecapole Moments (Debye-Ang^3)
      XXXX     -59.6124   XXXY       0.0000   XXYY     -19.8700
      XYYY       0.0000   YYYY     -59.6163   XXXZ       1.3361
      XXYZ       0.0000   XYYZ      -1.2604   YYYZ       0.0000
      XXZZ     -83.1590   XYZZ       0.0000   YYZZ     -83.1691
      XZZZ       0.0482   YZZZ       0.0000   ZZZZ    -416.9941
 -----------------------------------------------------------------
 Calculating analytic gradient of the SCF energy
 Gradient of AOints
            1           2           3           4           5           6
    1   0.0009018   0.0092258  -2.7397457   1.3675387   1.3675387   3.0141442
    2   0.0000005   0.0000004  -0.0000002   2.3721624  -2.3721628  -0.0000001
    3   4.5426780  -5.4575779   1.6266571   1.6306763   1.6306756  -1.3296917
            7           8
    1  -1.5098017  -1.5098018
    2   2.6112802  -2.6112805
    3  -1.3217091  -1.3217083
 Gradient of XC Energy
            1           2           3           4           5           6
    1  -0.0000816  -0.0000824   0.1375506  -0.0687019  -0.0687019  -0.0791084
    2  -0.0000000  -0.0000000   0.0000000  -0.1191338   0.1191338   0.0000000
    3   0.0696742   0.0151201  -0.0582472  -0.0584417  -0.0584416   0.0301634
            7           8
    1   0.0395628   0.0395628
    2  -0.0684713   0.0684713
    3   0.0300864   0.0300863
 Gradient of SCF Energy
            1           2           3           4           5           6
    1   0.0000825  -0.0000028   0.0000937  -0.0000427  -0.0000427   0.0001269
    2   0.0000000  -0.0000000   0.0000000  -0.0000898   0.0000898  -0.0000000
    3  -0.0013018   0.0009989   0.0002997   0.0003444   0.0003444  -0.0002619
            7           8
    1  -0.0001075  -0.0001075
    2   0.0001628  -0.0001628
    3  -0.0002119  -0.0002119
 Max gradient component =       1.302E-03
 RMS gradient           =       3.711E-04
 Gradient time:  CPU 43.98 s  wall 44.26 s
 Geometry Optimization Parameters
   NAtoms,    NIC,     NZ,  NCons,   NDum,   NFix, NCnnct, MaxDiis
        8      44       8       0       0       0       0       0

 Cartesian Hessian Update
 Hessian Updated using BFGS Update


** GEOMETRY OPTIMIZATION IN DELOCALIZED INTERNAL COORDINATES **
   Searching for a Minimum

   Optimization Cycle:   2

                       Coordinates (Angstroms)
     ATOM              X           Y           Z
    1  C          -0.000128    0.000000    0.019309
    2  Si         -0.000815    0.000000    1.872544
    3  H           1.024878    0.000000   -0.368788
    4  H          -0.511880   -0.887364   -0.370309
    5  H          -0.511880    0.887364   -0.370308
    6  H          -1.392214    0.000000    2.396371
    7  H           0.696019   -1.205510    2.393526
    8  H           0.696019    1.205510    2.393526
   Point Group: c1    Number of degrees of freedom:  18


   Energy is   -329.247453102

 Hessian Updated using BFGS Update

  9 Hessian modes will be used to form the next step
  Hessian Eigenvalues:
     0.054475    0.054792    0.159148    0.161548    0.173304    0.173562
     0.201524    0.341776    0.341815

 Minimum Search - Taking Simple RFO Step
 Searching for Lamda that Minimizes Along All modes
 Value Taken    Lamda =  -0.00000786
 Step Taken.  Stepsize is  0.006974

                             Maximum     Tolerance    Cnvgd?
         Gradient           0.000915      0.000300      NO
         Displacement       0.005643      0.001200      NO
         Energy change     -0.000495      0.000001      NO


 New Cartesian Coordinates Obtained by Inverse Iteration

 Displacement from previous Coordinates is:  0.007905
 Writing REM_CC_EA            8
 ----------------------------------------------------
       Standard Nuclear Orientation (Angstroms)
    I     Atom         X            Y            Z
 ----------------------------------------------------
    1      C      -0.000334     0.000000     0.019921
    2      Si     -0.000975     0.000000     1.872045
    3      H       1.024162     0.000000    -0.369667
    4      H      -0.511401    -0.886715    -0.372180
    5      H      -0.511401     0.886715    -0.372179
    6      H      -1.392121     0.000000     2.398404
    7      H       0.696035    -1.205576     2.394764
    8      H       0.696035     1.205576     2.394764
 ----------------------------------------------------
 Nuclear Repulsion Energy =    63.1362482835 hartrees
 There are       13 alpha and       13 beta electrons
 Applying Cartesian multipole field
    Component          Value
    ---------          -----
     (2,0,0)        1.00000E-11
     (0,2,0)        2.00000E-11
     (0,0,2)       -3.00000E-11
 Nucleus-field energy     =    -0.0000000067 hartrees
 Requested basis set is G3large
 There are 65 shells and 168 basis functions
 A cutoff of  1.0D-11 yielded   2106 shell pairs
 There are  14143 function pairs ( 17593 Cartesian)
Evaluating contribution to one-electron hamiltonian from nuclear
 Smallest overlap matrix eigenvalue = 1.34E-04
 Multipole matrices computed through 2nd order
 Guess MOs from SCF MO coefficient file
Reading MOs from coefficient file
Reading MOs from coefficient file
 A restricted hybrid HF-DFT SCF calculation will be
 performed using Pulay DIIS extrapolation
 Exchange:     1.0000 Hartree-Fock + 1.0000 BNL
 Correlation:  1.0000 LYP
 Using SG-1 standard quadrature grid
 SCF converges when DIIS error is below 1.0E-08
 ---------------------------------------
  Cycle       Energy         DIIS Error
 ---------------------------------------
    1    -329.2471084101      4.81E-05
    2    -329.2474581416      3.75E-06
    3    -329.2474582089      1.17E-06
    4    -329.2474582126      3.15E-07
    5    -329.2474582134      1.46E-07
    6    -329.2474582138      3.91E-08
    7    -329.2474582139      7.93E-09 Convergence criterion met
 ---------------------------------------
 One-Electron    Energy =  -581.1524691715
 Total Coulomb   Energy =   215.2668599221
 Alpha Exchange  Energy =    -2.7079250594
 Beta  Exchange  Energy =    -2.7079250594
 DFT   Exchange  Energy =   -20.1728339868
 DFT Correlation Energy =    -0.9094131358
 Nuclear Repu.   Energy =    63.1362482768
 Nuclear Attr.   Energy =  -909.4155172997
 Kinetic         Energy =   328.2630481283
 SCF time:  CPU 66.96 s  wall 67.88 s
 Final Alpha MO Eigenvalues
            1           2           3           4           5           6
    1 -65.2999118  -9.9686550  -5.2294514  -3.6609291  -3.6609163  -3.6603064
            7           8           9          10          11          12
    1  -0.8489670  -0.6596576  -0.5361701  -0.5361217  -0.4438317  -0.4434373
           13          14          15          16          17          18
    1  -0.4433857   0.0316422   0.0541339   0.0617989   0.0618276   0.0794225
 Analysis of SCF Wavefunction
 
 --------------------------------------------------------------
                    Orbital Energies (a.u.)
 --------------------------------------------------------------
 
 Alpha MOs
 -- Occupied --
-65.300  -9.969  -5.229  -3.661  -3.661  -3.660  -0.849  -0.660
 -0.536  -0.536  -0.444  -0.443  -0.443
 -- Virtual --
  0.032   0.054   0.062   0.062   0.079   0.087   0.087   0.097
  0.098   0.146   0.146   0.149   0.155   0.182   0.186   0.186
  0.198   0.231   0.231   0.231   0.295   0.295   0.348   0.353
  0.353   0.362   0.403   0.403   0.496   0.497   0.497   0.511
  0.539   0.585   0.586   0.600   0.636   0.636   0.638   0.674
  0.674   0.745   0.776   0.788   0.788   0.837   0.837   0.903
  0.918   0.918   0.945   0.949   1.009   1.078   1.078   1.144
  1.144   1.183   1.204   1.204   1.295   1.295   1.330   1.380
  1.402   1.402   1.422   1.423   1.423   1.497   1.498   1.569
  1.569   1.587   1.638   1.638   1.670   1.717   2.229   2.271
  2.277   2.278   2.338   2.338   2.451   2.631   2.631   2.736
  2.961   2.961   3.060   3.076   3.229   3.230   3.239   3.334
  3.335   3.423   3.423   3.482   3.653   3.653   3.768   3.770
  3.794   3.904   3.905   3.999   4.037   4.037   4.191   4.196
  4.196   4.240   4.253   4.253   4.348   4.348   4.367   4.478
  4.491   4.492   4.550   4.615   4.761   4.762   5.159   5.751
  5.751   6.356  11.464  11.464  11.813  17.632  17.738  17.805
 17.908  17.970  22.268  22.282  22.292  22.292  22.298  22.300
 22.323  24.300  27.946  28.184  28.185  40.982  40.997  41.290
 41.328  41.372 141.627
 --------------------------------------------------------------
 
          Ground-State Mulliken Net Atomic Charges

     Atom                 Charge (a.u.)
  ----------------------------------------
      1 C                    -0.475748
      2 Si                    0.241341
      3 H                     0.133227
      4 H                     0.133174
      5 H                     0.133174
      6 H                    -0.054936
      7 H                    -0.055117
      8 H                    -0.055117
  ----------------------------------------
  Sum of atomic charges =     0.000000

 -----------------------------------------------------------------
                    Cartesian Multipole Moments
 -----------------------------------------------------------------
    Charge (ESU x 10^10)
                 0.0000
    Dipole Moment (Debye)
         X      -0.0025      Y       0.0000      Z      -0.8094
       Tot       0.8094
    Quadrupole Moments (Debye-Ang)
        XX     -23.3914     XY       0.0000     YY     -23.3928
        XZ      -0.0049     YZ       0.0000     ZZ     -25.6510
    Octapole Moments (Debye-Ang^2)
       XXX       1.7321    XXY       0.0000    XYY      -1.6887
       YYY       0.0000    XXZ     -32.2461    XYZ       0.0000
       YYZ     -32.2528    XZZ       0.0002    YZZ       0.0000
       ZZZ     -94.5980
    Hexadecapole Moments (Debye-Ang^3)
      XXXX     -59.6343   XXXY       0.0000   XXYY     -19.8779
      XYYY       0.0000   YYYY     -59.6429   XXXZ       1.3450
      XXYZ       0.0000   XYYZ      -1.2563   YYYZ       0.0000
      XXZZ     -83.1863   XYZZ       0.0000   YYZZ     -83.1949
      XZZZ       0.0617   YZZZ       0.0000   ZZZZ    -417.2620
 -----------------------------------------------------------------
 Calculating analytic gradient of the SCF energy
 Gradient of AOints
            1           2           3           4           5           6
    1   0.0042811   0.0093294  -2.7343783   1.3636378   1.3636378   3.0118974
    2   0.0000005   0.0000002  -0.0000002   2.3669282  -2.3669284  -0.0000001
    3   4.5204265  -5.4441177   1.6339135   1.6410614   1.6410610  -1.3373420
            7           8
    1  -1.5092026  -1.5092026
    2   2.6099980  -2.6099981
    3  -1.3275016  -1.3275011
 Gradient of XC Energy
            1           2           3           4           5           6
    1  -0.0002105  -0.0000881   0.1373635  -0.0685531  -0.0685531  -0.0790540
    2  -0.0000000  -0.0000000   0.0000000  -0.1189498   0.1189498   0.0000000
    3   0.0708087   0.0146712  -0.0585398  -0.0588883  -0.0588883   0.0303611
            7           8
    1   0.0395476   0.0395476
    2  -0.0684368   0.0684368
    3   0.0302377   0.0302377
 Gradient of SCF Energy
            1           2           3           4           5           6
    1   0.0000578  -0.0000190   0.0000109   0.0000047   0.0000047  -0.0000414
    2  -0.0000000  -0.0000000   0.0000000  -0.0000136   0.0000136  -0.0000000
    3  -0.0004417   0.0001831   0.0001236   0.0001366   0.0001366  -0.0000830
            7           8
    1  -0.0000088  -0.0000088
    2  -0.0000129   0.0000129
    3  -0.0000276  -0.0000276
 Max gradient component =       4.417E-04
 RMS gradient           =       1.111E-04
 Gradient time:  CPU 43.80 s  wall 44.05 s
 Geometry Optimization Parameters
   NAtoms,    NIC,     NZ,  NCons,   NDum,   NFix, NCnnct, MaxDiis
        8      44       8       0       0       0       0       0

 Cartesian Hessian Update
 Hessian Updated using BFGS Update


** GEOMETRY OPTIMIZATION IN DELOCALIZED INTERNAL COORDINATES **
   Searching for a Minimum

   Optimization Cycle:   3

                       Coordinates (Angstroms)
     ATOM              X           Y           Z
    1  C          -0.000334    0.000000    0.019921
    2  Si         -0.000975    0.000000    1.872045
    3  H           1.024162    0.000000   -0.369667
    4  H          -0.511401   -0.886715   -0.372180
    5  H          -0.511401    0.886715   -0.372179
    6  H          -1.392121    0.000000    2.398404
    7  H           0.696035   -1.205576    2.394764
    8  H           0.696035    1.205576    2.394764
   Point Group: c1    Number of degrees of freedom:  18


   Energy is   -329.247458214

 Hessian Updated using BFGS Update

 10 Hessian modes will be used to form the next step
  Hessian Eigenvalues:
     0.053968    0.054769    0.106225    0.160004    0.160574    0.173309
     0.185133    0.201060    0.341815    0.342071

 Minimum Search - Taking Simple RFO Step
 Searching for Lamda that Minimizes Along All modes
 Value Taken    Lamda =  -0.00000133
 Step Taken.  Stepsize is  0.003595

                             Maximum     Tolerance    Cnvgd?
         Gradient           0.000263      0.000300     YES
         Displacement       0.002521      0.001200      NO
         Energy change     -0.000005      0.000001      NO


 New Cartesian Coordinates Obtained by Inverse Iteration

 Displacement from previous Coordinates is:  0.004898
 Writing REM_CC_EA            8
 ----------------------------------------------------
       Standard Nuclear Orientation (Angstroms)
    I     Atom         X            Y            Z
 ----------------------------------------------------
    1      C      -0.000502     0.000000     0.020224
    2      Si     -0.001150     0.000000     1.872014
    3      H       1.023861     0.000000    -0.370012
    4      H      -0.511101    -0.886401    -0.373408
    5      H      -0.511101     0.886401    -0.373408
    6      H      -1.391764     0.000000     2.399842
    7      H       0.695878    -1.205325     2.395309
    8      H       0.695878     1.205325     2.395309
 ----------------------------------------------------
 Nuclear Repulsion Energy =    63.1368297230 hartrees
 There are       13 alpha and       13 beta electrons
 Applying Cartesian multipole field
    Component          Value
    ---------          -----
     (2,0,0)        1.00000E-11
     (0,2,0)        2.00000E-11
     (0,0,2)       -3.00000E-11
 Nucleus-field energy     =    -0.0000000067 hartrees
 Requested basis set is G3large
 There are 65 shells and 168 basis functions
 A cutoff of  1.0D-11 yielded   2106 shell pairs
 There are  14143 function pairs ( 17593 Cartesian)
Evaluating contribution to one-electron hamiltonian from nuclear
 Smallest overlap matrix eigenvalue = 1.34E-04
 Multipole matrices computed through 2nd order
 Guess MOs from SCF MO coefficient file
Reading MOs from coefficient file
Reading MOs from coefficient file
 A restricted hybrid HF-DFT SCF calculation will be
 performed using Pulay DIIS extrapolation
 Exchange:     1.0000 Hartree-Fock + 1.0000 BNL
 Correlation:  1.0000 LYP
 Using SG-1 standard quadrature grid
 SCF converges when DIIS error is below 1.0E-08
 ---------------------------------------
  Cycle       Energy         DIIS Error
 ---------------------------------------
    1    -329.2473496893      1.92E-05
    2    -329.2474588764      1.71E-06
    3    -329.2474588929      5.14E-07
    4    -329.2474588948      2.41E-07
    5    -329.2474588954      7.63E-08
    6    -329.2474588954      1.99E-08
    7    -329.2474588950      5.88E-09 Convergence criterion met
 ---------------------------------------
 One-Electron    Energy =  -581.1534883013
 Total Coulomb   Energy =   215.2672806838
 Alpha Exchange  Energy =    -2.7079228572
 Beta  Exchange  Energy =    -2.7079228572
 DFT   Exchange  Energy =   -20.1728226488
 DFT Correlation Energy =    -0.9094126308
 Nuclear Repu.   Energy =    63.1368297163
 Nuclear Attr.   Energy =  -909.4165129952
 Kinetic         Energy =   328.2630246939
 SCF time:  CPU 65.58 s  wall 66.45 s
 Final Alpha MO Eigenvalues
            1           2           3           4           5           6
    1 -65.2999041  -9.9687021  -5.2294459  -3.6609245  -3.6609116  -3.6602990
            7           8           9          10          11          12
    1  -0.8490124  -0.6597097  -0.5360819  -0.5360245  -0.4440911  -0.4433805
           13          14          15          16          17          18
    1  -0.4433278   0.0316293   0.0541415   0.0617949   0.0618297   0.0794272
 Analysis of SCF Wavefunction
 
 --------------------------------------------------------------
                    Orbital Energies (a.u.)
 --------------------------------------------------------------
 
 Alpha MOs
 -- Occupied --
-65.300  -9.969  -5.229  -3.661  -3.661  -3.660  -0.849  -0.660
 -0.536  -0.536  -0.444  -0.443  -0.443
 -- Virtual --
  0.032   0.054   0.062   0.062   0.079   0.087   0.087   0.097
  0.098   0.146   0.146   0.149   0.155   0.182   0.186   0.186
  0.198   0.231   0.231   0.231   0.295   0.295   0.348   0.353
  0.353   0.362   0.403   0.403   0.496   0.497   0.497   0.511
  0.539   0.585   0.585   0.600   0.636   0.636   0.638   0.674
  0.674   0.745   0.776   0.787   0.788   0.837   0.837   0.903
  0.918   0.918   0.945   0.949   1.009   1.078   1.078   1.144
  1.144   1.183   1.204   1.204   1.295   1.295   1.330   1.381
  1.402   1.402   1.422   1.423   1.423   1.497   1.497   1.569
  1.569   1.587   1.638   1.638   1.670   1.717   2.229   2.271
  2.277   2.278   2.338   2.339   2.451   2.631   2.631   2.735
  2.961   2.961   3.060   3.076   3.230   3.230   3.239   3.334
  3.334   3.423   3.423   3.482   3.653   3.654   3.768   3.770
  3.794   3.904   3.905   3.999   4.036   4.037   4.191   4.196
  4.196   4.239   4.253   4.253   4.349   4.349   4.367   4.478
  4.491   4.492   4.548   4.614   4.762   4.763   5.158   5.751
  5.751   6.356  11.464  11.464  11.814  17.631  17.738  17.805
 17.908  17.970  22.268  22.282  22.292  22.292  22.299  22.300
 22.323  24.299  27.947  28.184  28.184  40.982  40.996  41.290
 41.328  41.371 141.627
 --------------------------------------------------------------
 
          Ground-State Mulliken Net Atomic Charges

     Atom                 Charge (a.u.)
  ----------------------------------------
      1 C                    -0.475908
      2 Si                    0.241358
      3 H                     0.133275
      4 H                     0.133214
      5 H                     0.133214
      6 H                    -0.054924
      7 H                    -0.055115
      8 H                    -0.055115
  ----------------------------------------
  Sum of atomic charges =     0.000000

 -----------------------------------------------------------------
                    Cartesian Multipole Moments
 -----------------------------------------------------------------
    Charge (ESU x 10^10)
                 0.0000
    Dipole Moment (Debye)
         X      -0.0026      Y       0.0000      Z      -0.8143
       Tot       0.8143
    Quadrupole Moments (Debye-Ang)
        XX     -23.3939     XY       0.0000     YY     -23.3953
        XZ      -0.0049     YZ       0.0000     ZZ     -25.6545
    Octapole Moments (Debye-Ang^2)
       XXX       1.7390    XXY       0.0000    XYY      -1.6854
       YYY       0.0000    XXZ     -32.2510    XYZ       0.0000
       YYZ     -32.2586    XZZ       0.0019    YZZ       0.0000
       ZZZ     -94.6289
    Hexadecapole Moments (Debye-Ang^3)
      XXXX     -59.6302   XXXY       0.0000   XXYY     -19.8767
      XYYY       0.0000   YYYY     -59.6405   XXXZ       1.3580
      XXYZ       0.0000   XYYZ      -1.2520   YYYZ       0.0000
      XXZZ     -83.1995   XYZZ       0.0000   YYZZ     -83.2067
      XZZZ       0.0785   YZZZ       0.0000   ZZZZ    -417.3996
 -----------------------------------------------------------------
 Calculating analytic gradient of the SCF energy
 Gradient of AOints
            1           2           3           4           5           6
    1   0.0070057   0.0100017  -2.7314942   1.3610662   1.3610660   3.0101598
    2   0.0000006   0.0000001  -0.0000003   2.3639122  -2.3639123  -0.0000001
    3   4.5080100  -5.4375301   1.6371744   1.6470322   1.6470319  -1.3418959
            7           8
    1  -1.5089026  -1.5089025
    2   2.6090731  -2.6090732
    3  -1.3299114  -1.3299112
 Gradient of XC Energy
            1           2           3           4           5           6
    1  -0.0003200  -0.0001051   0.1372640  -0.0684534  -0.0684534  -0.0790194
    2  -0.0000000  -0.0000000   0.0000000  -0.1188458   0.1188458   0.0000000
    3   0.0714274   0.0144555  -0.0586670  -0.0591516  -0.0591516   0.0304825
            7           8
    1   0.0395437   0.0395437
    2  -0.0684174   0.0684174
    3   0.0303024   0.0303024
 Gradient of SCF Energy
            1           2           3           4           5           6
    1   0.0000336  -0.0000135   0.0000095   0.0000164   0.0000164  -0.0000241
    2  -0.0000000  -0.0000000   0.0000000   0.0000000  -0.0000000   0.0000000
    3  -0.0000103  -0.0000221   0.0000088   0.0000022   0.0000022  -0.0000200
            7           8
    1  -0.0000192  -0.0000192
    2   0.0000027  -0.0000027
    3   0.0000197   0.0000197
 Max gradient component =       3.361E-05
 RMS gradient           =       1.461E-05
 Gradient time:  CPU 43.48 s  wall 43.83 s
 Geometry Optimization Parameters
   NAtoms,    NIC,     NZ,  NCons,   NDum,   NFix, NCnnct, MaxDiis
        8      44       8       0       0       0       0       0

 Cartesian Hessian Update
 Hessian Updated using BFGS Update


** GEOMETRY OPTIMIZATION IN DELOCALIZED INTERNAL COORDINATES **
   Searching for a Minimum

   Optimization Cycle:   4

                       Coordinates (Angstroms)
     ATOM              X           Y           Z
    1  C          -0.000502    0.000000    0.020224
    2  Si         -0.001150    0.000000    1.872014
    3  H           1.023861    0.000000   -0.370012
    4  H          -0.511101   -0.886401   -0.373408
    5  H          -0.511101    0.886401   -0.373408
    6  H          -1.391764    0.000000    2.399842
    7  H           0.695878   -1.205325    2.395309
    8  H           0.695878    1.205325    2.395309
   Point Group: c1    Number of degrees of freedom:  18


   Energy is   -329.247458895

 Hessian Updated using BFGS Update

 13 Hessian modes will be used to form the next step
  Hessian Eigenvalues:
     0.002582    0.052802    0.054481    0.054768    0.104019    0.160000
     0.160014    0.164204    0.173326    0.185092    0.200942    0.341564
     0.341861

 Minimum Search - Taking Simple RFO Step
 Searching for Lamda that Minimizes Along All modes
 Value Taken    Lamda =   0.00000000
 Step Taken.  Stepsize is  0.000373

                             Maximum     Tolerance    Cnvgd?
         Gradient           0.000034      0.000300     YES
         Displacement       0.000259      0.001200     YES
         Energy change     -0.000001      0.000001     YES


                       Distance Matrix (Angstroms)
             C (  1)   Si(  2)   H (  3)   H (  4)   H (  5)   H (  6)
   Si(  2)  1.851790
   H (  3)  1.096177  2.465224
   H (  4)  1.096068  2.467322  1.772520
   H (  5)  1.096068  2.467322  1.772520  1.772802
   H (  6)  2.756481  1.487417  3.675232  3.041741  3.041741
   H (  7)  2.752958  1.487445  3.034366  3.037154  3.673950  2.410618
   H (  8)  2.752958  1.487445  3.034366  3.673950  3.037153  2.410618
             H (  7)
   H (  8)  2.410649
 


 ******************************
 **  OPTIMIZATION CONVERGED  **
 ******************************
 Analysis of SCF Wavefunction
 
 --------------------------------------------------------------
                    Orbital Energies (a.u.)
 --------------------------------------------------------------
 
 Alpha MOs
 -- Occupied --
-65.300  -9.969  -5.229  -3.661  -3.661  -3.660  -0.849  -0.660
 -0.536  -0.536  -0.444  -0.443  -0.443
 -- Virtual --
  0.032   0.054   0.062   0.062   0.079   0.087   0.087   0.097
  0.098   0.146   0.146   0.149   0.155   0.182   0.186   0.186
  0.198   0.231   0.231   0.231   0.295   0.295   0.348   0.353
  0.353   0.362   0.403   0.403   0.496   0.497   0.497   0.511
  0.539   0.585   0.585   0.600   0.636   0.636   0.638   0.674
  0.674   0.745   0.776   0.787   0.788   0.837   0.837   0.903
  0.918   0.918   0.945   0.949   1.009   1.078   1.078   1.144
  1.144   1.183   1.204   1.204   1.295   1.295   1.330   1.381
  1.402   1.402   1.422   1.423   1.423   1.497   1.497   1.569
  1.569   1.587   1.638   1.638   1.670   1.717   2.229   2.271
  2.277   2.278   2.338   2.339   2.451   2.631   2.631   2.735
  2.961   2.961   3.060   3.076   3.230   3.230   3.239   3.334
  3.334   3.423   3.423   3.482   3.653   3.654   3.768   3.770
  3.794   3.904   3.905   3.999   4.036   4.037   4.191   4.196
  4.196   4.239   4.253   4.253   4.349   4.349   4.367   4.478
  4.491   4.492   4.548   4.614   4.762   4.763   5.158   5.751
  5.751   6.356  11.464  11.464  11.814  17.631  17.738  17.805
 17.908  17.970  22.268  22.282  22.292  22.292  22.299  22.300
 22.323  24.299  27.947  28.184  28.184  40.982  40.996  41.290
 41.328  41.371 141.627
 --------------------------------------------------------------
 
          Ground-State Mulliken Net Atomic Charges

     Atom                 Charge (a.u.)
  ----------------------------------------
      1 C                    -0.475908
      2 Si                    0.241358
      3 H                     0.133275
      4 H                     0.133214
      5 H                     0.133214
      6 H                    -0.054924
      7 H                    -0.055115
      8 H                    -0.055115
  ----------------------------------------
  Sum of atomic charges =     0.000000

 -----------------------------------------------------------------
                    Cartesian Multipole Moments
 -----------------------------------------------------------------
    Charge (ESU x 10^10)
                 0.0000
    Dipole Moment (Debye)
         X      -0.0026      Y       0.0000      Z      -0.8143
       Tot       0.8143
    Quadrupole Moments (Debye-Ang)
        XX     -23.3939     XY       0.0000     YY     -23.3953
        XZ      -0.0049     YZ       0.0000     ZZ     -25.6545
    Octapole Moments (Debye-Ang^2)
       XXX       1.7390    XXY       0.0000    XYY      -1.6854
       YYY       0.0000    XXZ     -32.2510    XYZ       0.0000
       YYZ     -32.2586    XZZ       0.0019    YZZ       0.0000
       ZZZ     -94.6289
    Hexadecapole Moments (Debye-Ang^3)
      XXXX     -59.6302   XXXY       0.0000   XXYY     -19.8767
      XYYY       0.0000   YYYY     -59.6405   XXXZ       1.3580
      XXYZ       0.0000   XYYZ      -1.2520   YYYZ       0.0000
      XXZZ     -83.1995   XYZZ       0.0000   YYZZ     -83.2067
      XZZZ       0.0785   YZZZ       0.0000   ZZZZ    -417.3996
 -----------------------------------------------------------------
 Total job time:  508.98s(wall), 502.53s(cpu) 
 Sat Apr 23 22:06:05 2011

        *************************************************************
        *                                                           *
        *  Thank you very much for using Q-Chem.  Have a nice day.  *
        *                                                           *
        *************************************************************


0 sent ACK to 0 
now end server 0 ... 
 
**********************************************************************
Job 2 of 2 
**********************************************************************
 
Process 0 of 1 is on cl257.stfx.acenet.ca - thread support 1
initial socket setup ...start
initial socket setup ...done 
now start server 0 ... 

cmd = /usr/bin/ssh clhead /usr/local/qchem/bin/get_hostid 2105642510 > /scratch/tmp/4506643.1.long.q/qchem25796/lic.dat
                  Welcome to Q-Chem
     A Quantum Leap Into The Future Of Chemistry

 Y. Shao, L. Fusti-Molnar, Y. Jung, J. Kussmann, C. Ochsenfeld,
 S. T. Brown, A. T. B. Gilbert, L. V. Slipchenko,S. V. Levchenko,
 D. P. O'Neill, R. A. DiStasio Jr., R. C. Lochan, T. Wang,
 G. J. O. Beran, N. A. Besley, J. M. Herbert, C. Y. Lin,
 T. Van Voorhis, S. H. Chien, A. Sodt, R. P. Steele, 
 V. A. Rassolov, P. E. Maslen, P. P. Korambath, R. D. Adamson,
 B. Austin, J. Baker, E. F. C. Byrd, H. Dachsel, R. J. Doerksen,
 A. Dreuw, B. D. Dunietz, A. D. Dutoi, T. R. Furlani,
 S. R. Gwaltney, A. Heyden, S. Hirata, C.-P. Hsu, G. Kedziora,
 R. Z. Khaliullin, P. Klunzinger, A. M. Lee, M. S. Lee, W. Liang,
 I. Lotan, N. Nair, B. Peters, E. I. Proynov, P. A. Pieniazek, 
 Y. M. Rhee, J. Ritchie, E. Rosta, C. D. Sherrill, 
 A. C. Simmonett, J. E. Subotnik, H. L. Woodcock III,
 W. Zhang, A. T. Bell, A. K. Chakraborty, D. M. Chipman,
 F. J. Keil, A. Warshel, W. J. Hehre, H. F. Schaefer III,
 J. Kong, A. I. Krylov, P. M. W. Gill, M. Head-Gordon,
 Q-Chem, Version 3.1, Q-Chem, Inc., Pittsburgh, PA (2007).

 Additional authors for Version 3.1: 
 Z. Gan, Y. Zhao, N. E. Schultz, D. Truhlar, E. Epifanovsky and M. Oana.

 Additional authors for Version 3.2: 
 R. Baer, B. R. Brooks, D. Casanova, J.-D. Chai, C.-L. Cheng, 
 C. Cramer, D. Crittenden, A. Ghysels, G. Hawkins, E. G. Hohenstein, 
 C. Kelley, W. Kurlancheek, D. Liotard, E. Livshits, P. Manohar, 
 A. Marenich, D. Neuhauser, R. Olson, M. A. Rohrdanz, K. S. Thanthiriwatte, 
 A. J. W. Thom, V. Vanovschi, C. F. Williams, Q. Wu and Z.-Q. You. 


 Intel X86 Linux Version

 Q-chem begins on Sat Apr 23 22:06:08 2011  

 Parallel job on  1  processors
Processing $rem in /usr/local/qchem/config/preferences.

theFileMan(): MAXOPENFILES=974 MAX_SUB_FILE_NUM=16
Maximum size of a physical file is 2.0 GB, maximum size of a tmp-file is 32.0 GB


--------------------------------------------------------------
User input:
--------------------------------------------------------------

$molecule 
READ 
$end 

$xc_functional
   X HF 1.0
   X BNL 1.0
   C LYP 1.0
$end

$rem
SYMMETRY_DECOMPOSITION	0
exchange 		general
BASIS                   g3large
omega			420 
JOBTYPE                 freq
IDERIV 1
SCF_GUESS READ
separate_jk		true
mem_static              760
max_scf_cycles          200
scf_final_print         1
sym_ignore              true
$end

--------------------------------------------------------------
 Writing REM_CC_EA            8
 ----------------------------------------------------
       Standard Nuclear Orientation (Angstroms)
    I     Atom         X            Y            Z
 ----------------------------------------------------
    1      C      -0.000502     0.000000     0.020224
    2      Si     -0.001150     0.000000     1.872014
    3      H       1.023861     0.000000    -0.370012
    4      H      -0.511101    -0.886401    -0.373408
    5      H      -0.511101     0.886401    -0.373408
    6      H      -1.391764     0.000000     2.399842
    7      H       0.695878    -1.205325     2.395309
    8      H       0.695878     1.205325     2.395309
 ----------------------------------------------------
 Nuclear Repulsion Energy =    63.1368297230 hartrees
 There are       13 alpha and       13 beta electrons
 Requested basis set is G3large
 There are 65 shells and 168 basis functions

Total QAlloc Memory Limit   2000 MB
Mega-Array Size       759 MB
MEM_STATIC part       760 MB

                       Distance Matrix (Angstroms)
             C (  1)   Si(  2)   H (  3)   H (  4)   H (  5)   H (  6)
   Si(  2)  1.851790
   H (  3)  1.096177  2.465224
   H (  4)  1.096068  2.467322  1.772520
   H (  5)  1.096068  2.467322  1.772520  1.772802
   H (  6)  2.756481  1.487417  3.675232  3.041741  3.041741
   H (  7)  2.752958  1.487445  3.034366  3.037154  3.673950  2.410618
   H (  8)  2.752958  1.487445  3.034366  3.673950  3.037153  2.410618
             H (  7)
   H (  8)  2.410649
 
 A cutoff of  1.0D-11 yielded   2106 shell pairs
 There are  14143 function pairs ( 17593 Cartesian)
Evaluating contribution to one-electron hamiltonian from nuclear
 Smallest overlap matrix eigenvalue = 1.34E-04
 Multipole matrices computed through 2nd order
 Guess MOs from SCF MO coefficient file
Reading MOs from coefficient file
Reading MOs from coefficient file
 A restricted hybrid HF-DFT SCF calculation will be
 performed using Pulay DIIS extrapolation
 Exchange:     1.0000 Hartree-Fock + 1.0000 BNL
 Correlation:  1.0000 LYP
 Using SG-1 standard quadrature grid
 SCF converges when DIIS error is below 1.0E-08
 ---------------------------------------
  Cycle       Energy         DIIS Error
 ---------------------------------------
    1    -329.2474588938      1.51E-09
    2    -329.2474588939      6.54E-10 Convergence criterion met
 ---------------------------------------
 One-Electron    Energy =  -581.1534905027
 Total Coulomb   Energy =   215.2672830796
 Alpha Exchange  Energy =    -2.7079228667
 Beta  Exchange  Energy =    -2.7079228667
 DFT   Exchange  Energy =   -20.1728228239
 DFT Correlation Energy =    -0.9094126364
 Nuclear Repu.   Energy =    63.1368297230
 Nuclear Attr.   Energy =  -909.4165174131
 Kinetic         Energy =   328.2630269104
 SCF time:  CPU 21.08 s  wall 21.51 s
 Final Alpha MO Eigenvalues
            1           2           3           4           5           6
    1 -65.2999040  -9.9687021  -5.2294459  -3.6609244  -3.6609115  -3.6602989
            7           8           9          10          11          12
    1  -0.8490124  -0.6597097  -0.5360819  -0.5360245  -0.4440911  -0.4433805
           13          14          15          16          17          18
    1  -0.4433278   0.0316293   0.0541415   0.0617949   0.0618297   0.0794272
 Analysis of SCF Wavefunction
 
 --------------------------------------------------------------
                    Orbital Energies (a.u.)
 --------------------------------------------------------------
 
 Alpha MOs
 -- Occupied --
-65.300  -9.969  -5.229  -3.661  -3.661  -3.660  -0.849  -0.660
 -0.536  -0.536  -0.444  -0.443  -0.443
 -- Virtual --
  0.032   0.054   0.062   0.062   0.079   0.087   0.087   0.097
  0.098   0.146   0.146   0.149   0.155   0.182   0.186   0.186
  0.198   0.231   0.231   0.231   0.295   0.295   0.348   0.353
  0.353   0.362   0.403   0.403   0.496   0.497   0.497   0.511
  0.539   0.585   0.585   0.600   0.636   0.636   0.638   0.674
  0.674   0.745   0.776   0.787   0.788   0.837   0.837   0.903
  0.918   0.918   0.945   0.949   1.009   1.078   1.078   1.144
  1.144   1.183   1.204   1.204   1.295   1.295   1.330   1.381
  1.402   1.402   1.422   1.423   1.423   1.497   1.497   1.569
  1.569   1.587   1.638   1.638   1.670   1.717   2.229   2.271
  2.277   2.278   2.338   2.339   2.451   2.631   2.631   2.735
  2.961   2.961   3.060   3.076   3.230   3.230   3.239   3.334
  3.334   3.423   3.423   3.482   3.653   3.654   3.768   3.770
  3.794   3.904   3.905   3.999   4.036   4.037   4.191   4.196
  4.196   4.239   4.253   4.253   4.349   4.349   4.367   4.478
  4.491   4.492   4.548   4.614   4.762   4.763   5.158   5.751
  5.751   6.356  11.464  11.464  11.814  17.631  17.738  17.805
 17.908  17.970  22.268  22.282  22.292  22.292  22.299  22.300
 22.323  24.299  27.947  28.184  28.184  40.982  40.996  41.290
 41.328  41.371 141.627
 --------------------------------------------------------------
 
          Ground-State Mulliken Net Atomic Charges

     Atom                 Charge (a.u.)
  ----------------------------------------
      1 C                    -0.475907
      2 Si                    0.241358
      3 H                     0.133275
      4 H                     0.133214
      5 H                     0.133214
      6 H                    -0.054924
      7 H                    -0.055114
      8 H                    -0.055114
  ----------------------------------------
  Sum of atomic charges =     0.000000

 -----------------------------------------------------------------
                    Cartesian Multipole Moments
 -----------------------------------------------------------------
    Charge (ESU x 10^10)
                 0.0000
    Dipole Moment (Debye)
         X      -0.0026      Y       0.0000      Z      -0.8143
       Tot       0.8143
    Quadrupole Moments (Debye-Ang)
        XX     -23.3939     XY       0.0000     YY     -23.3953
        XZ      -0.0049     YZ       0.0000     ZZ     -25.6545
    Octapole Moments (Debye-Ang^2)
       XXX       1.7390    XXY       0.0000    XYY      -1.6854
       YYY       0.0000    XXZ     -32.2510    XYZ       0.0000
       YYZ     -32.2586    XZZ       0.0019    YZZ       0.0000
       ZZZ     -94.6289
    Hexadecapole Moments (Debye-Ang^3)
      XXXX     -59.6302   XXXY       0.0000   XXYY     -19.8767
      XYYY       0.0000   YYYY     -59.6405   XXXZ       1.3580
      XXYZ       0.0000   XYYZ      -1.2520   YYYZ       0.0000
      XXZZ     -83.1995   XYZZ       0.0000   YYZZ     -83.2067
      XZZZ       0.0785   YZZZ       0.0000   ZZZZ    -417.3996
 -----------------------------------------------------------------
 Calculating analytic gradient of the SCF energy
 Gradient of AOints
            1           2           3           4           5           6
    1   0.0070048   0.0100019  -2.7314941   1.3610663   1.3610660   3.0101598
    2   0.0000006   0.0000001  -0.0000003   2.3639122  -2.3639124  -0.0000001
    3   4.5080078  -5.4375296   1.6371751   1.6470325   1.6470323  -1.3418952
            7           8
    1  -1.5089023  -1.5089023
    2   2.6090729  -2.6090730
    3  -1.3299116  -1.3299114
 Gradient of XC Energy
            1           2           3           4           5           6
    1  -0.0003199  -0.0001051   0.1372640  -0.0684534  -0.0684534  -0.0790194
    2  -0.0000000  -0.0000000   0.0000000  -0.1188458   0.1188458   0.0000000
    3   0.0714274   0.0144555  -0.0586670  -0.0591516  -0.0591516   0.0304825
            7           8
    1   0.0395437   0.0395437
    2  -0.0684174   0.0684174
    3   0.0303024   0.0303024
 Gradient of SCF Energy
            1           2           3           4           5           6
    1   0.0000336  -0.0000135   0.0000095   0.0000164   0.0000164  -0.0000241
    2  -0.0000000  -0.0000000   0.0000000   0.0000000  -0.0000000   0.0000000
    3  -0.0000103  -0.0000221   0.0000088   0.0000022   0.0000022  -0.0000200
            7           8
    1  -0.0000192  -0.0000192
    2   0.0000027  -0.0000027
    3   0.0000197   0.0000197
 Max gradient component =       3.362E-05
 RMS gradient           =       1.462E-05
 Gradient time:  CPU 47.54 s  wall 47.99 s
 ######################################################
 ######################################################
 # Starting finite difference calculation for IDERIV  #
 Finite diff step size: 1.89e-03 a.u.
 Writing REM_CC_EA            8
 ----------------------------------------------------
       Standard Nuclear Orientation (Angstroms)
    I     Atom         X            Y            Z
 ----------------------------------------------------
    1      C       0.000498     0.000000     0.020224
    2      Si     -0.001150     0.000000     1.872014
    3      H       1.023861     0.000000    -0.370012
    4      H      -0.511101    -0.886401    -0.373408
    5      H      -0.511101     0.886401    -0.373408
    6      H      -1.391764     0.000000     2.399842
    7      H       0.695878    -1.205325     2.395309
    8      H       0.695878     1.205325     2.395309
 ----------------------------------------------------
 Nuclear Repulsion Energy =    63.1368305942 hartrees
 There are       13 alpha and       13 beta electrons

                       Distance Matrix (Angstroms)
             C (  1)   Si(  2)   H (  3)   H (  4)   H (  5)   H (  6)
   Si(  2)  1.851791
   H (  3)  1.095243  2.465224
   H (  4)  1.096534  2.467322  1.772520
   H (  5)  1.096534  2.467322  1.772520  1.772802
   H (  6)  2.756986  1.487417  3.675232  3.041741  3.041741
   H (  7)  2.752706  1.487445  3.034366  3.037154  3.673950  2.410618
   H (  8)  2.752705  1.487445  3.034366  3.673950  3.037153  2.410618
             H (  7)
   H (  8)  2.410649
 
 Requested basis set is G3large
 There are 65 shells and 168 basis functions
 A cutoff of  1.0D-11 yielded   2106 shell pairs
 There are  14143 function pairs ( 17593 Cartesian)
Evaluating contribution to one-electron hamiltonian from nuclear
 Smallest overlap matrix eigenvalue = 1.34E-04
 Multipole matrices computed through 2nd order
 Guess MOs from SCF MO coefficient file
Reading MOs from coefficient file
Reading MOs from coefficient file
 A restricted hybrid HF-DFT SCF calculation will be
 performed using Pulay DIIS extrapolation
 Exchange:     1.0000 Hartree-Fock + 1.0000 BNL
 Correlation:  1.0000 LYP
 Using SG-1 standard quadrature grid
 SCF converges when DIIS error is below 1.0E-08
 ---------------------------------------
  Cycle       Energy         DIIS Error
 ---------------------------------------
    1    -329.2474579950      2.55E-05
    2    -329.2474578497      2.94E-06
    3    -329.2474578909      1.05E-06
    4    -329.2474578947      2.01E-07
    5    -329.2474578945      5.14E-08
    6    -329.2474578939      9.73E-09 Convergence criterion met
 ---------------------------------------
 One-Electron    Energy =  -581.1534899225
 Total Coulomb   Energy =   215.2672832637
 Alpha Exchange  Energy =    -2.7079228880
 Beta  Exchange  Energy =    -2.7079228880
 DFT   Exchange  Energy =   -20.1728234081
 DFT Correlation Energy =    -0.9094126452
 Nuclear Repu.   Energy =    63.1368305942
 Nuclear Attr.   Energy =  -909.4165210755
 Kinetic         Energy =   328.2630311530
 SCF time:  CPU 58.11 s  wall 59.22 s
 Final Alpha MO Eigenvalues
            1           2           3           4           5           6
    1 -65.2999040  -9.9687018  -5.2294459  -3.6609248  -3.6609111  -3.6602990
            7           8           9          10          11          12
    1  -0.8490125  -0.6597096  -0.5361993  -0.5359075  -0.4441154  -0.4433996
           13          14          15          16          17          18
    1  -0.4432841   0.0316293   0.0541415   0.0618018   0.0618227   0.0794272
 Analysis of SCF Wavefunction
 
 --------------------------------------------------------------
                    Orbital Energies (a.u.)
 --------------------------------------------------------------
 
 Alpha MOs
 -- Occupied --
-65.300  -9.969  -5.229  -3.661  -3.661  -3.660  -0.849  -0.660
 -0.536  -0.536  -0.444  -0.443  -0.443
 -- Virtual --
  0.032   0.054   0.062   0.062   0.079   0.087   0.087   0.097
  0.098   0.146   0.146   0.149   0.155   0.182   0.186   0.186
  0.198   0.231   0.231   0.231   0.295   0.295   0.348   0.353
  0.353   0.362   0.403   0.403   0.496   0.497   0.497   0.511
  0.539   0.585   0.585   0.600   0.636   0.636   0.638   0.674
  0.674   0.745   0.776   0.788   0.788   0.837   0.837   0.903
  0.918   0.918   0.945   0.949   1.009   1.078   1.078   1.144
  1.144   1.183   1.204   1.204   1.295   1.295   1.330   1.381
  1.402   1.402   1.422   1.423   1.423   1.497   1.497   1.569
  1.569   1.587   1.638   1.638   1.670   1.717   2.229   2.271
  2.277   2.278   2.338   2.339   2.451   2.631   2.631   2.735
  2.961   2.961   3.060   3.076   3.230   3.230   3.239   3.334
  3.335   3.423   3.424   3.482   3.653   3.654   3.768   3.770
  3.794   3.904   3.905   3.998   4.036   4.037   4.191   4.196
  4.196   4.239   4.253   4.253   4.349   4.349   4.367   4.478
  4.491   4.492   4.548   4.614   4.762   4.762   5.158   5.750
  5.752   6.356  11.464  11.464  11.814  17.631  17.738  17.805
 17.908  17.970  22.268  22.282  22.292  22.292  22.299  22.300
 22.323  24.299  27.947  28.184  28.185  40.982  40.997  41.290
 41.328  41.371 141.627
 --------------------------------------------------------------
 
          Ground-State Mulliken Net Atomic Charges

     Atom                 Charge (a.u.)
  ----------------------------------------
      1 C                    -0.475908
      2 Si                    0.241358
      3 H                     0.133436
      4 H                     0.133133
      5 H                     0.133133
      6 H                    -0.054873
      7 H                    -0.055140
      8 H                    -0.055140
  ----------------------------------------
  Sum of atomic charges =     0.000000

 -----------------------------------------------------------------
                    Cartesian Multipole Moments
 -----------------------------------------------------------------
    Charge (ESU x 10^10)
                 0.0000
    Dipole Moment (Debye)
         X      -0.0041      Y       0.0000      Z      -0.8143
       Tot       0.8143
    Quadrupole Moments (Debye-Ang)
        XX     -23.3918     XY       0.0000     YY     -23.3974
        XZ      -0.0077     YZ       0.0000     ZZ     -25.6545
    Octapole Moments (Debye-Ang^2)
       XXX       1.7239    XXY       0.0000    XYY      -1.6904
       YYY       0.0000    XXZ     -32.2497    XYZ       0.0000
       YYZ     -32.2599    XZZ      -0.0099    YZZ       0.0000
       ZZZ     -94.6288
    Hexadecapole Moments (Debye-Ang^3)
      XXXX     -59.6209   XXXY       0.0000   XXYY     -19.8758
      XYYY       0.0000   YYYY     -59.6516   XXXZ       1.3513
      XXYZ       0.0000   XYYZ      -1.2543   YYYZ       0.0000
      XXZZ     -83.1928   XYZZ       0.0000   YYZZ     -83.2135
      XZZZ       0.0522   YZZZ       0.0000   ZZZZ    -417.3996
 -----------------------------------------------------------------
 Calculating analytic gradient of the SCF energy
 Gradient of AOints
            1           2           3           4           5           6
    1  -0.0045017   0.0166812  -2.7320911   1.3638889   1.3638887   3.0100994
    2   0.0000005   0.0000001  -0.0000003   2.3619450  -2.3619452  -0.0000001
    3   4.5080139  -5.4375275   1.6386731   1.6462767   1.6462764  -1.3425957
            7           8
    1  -1.5089827  -1.5089827
    2   2.6090591  -2.6090592
    3  -1.3295586  -1.3295584
 Gradient of XC Energy
            1           2           3           4           5           6
    1  -0.0000828  -0.0002146   0.1373396  -0.0685603  -0.0685602  -0.0790173
    2  -0.0000000  -0.0000000   0.0000000  -0.1187407   0.1187407   0.0000000
    3   0.0714262   0.0144555  -0.0587555  -0.0591067  -0.0591067   0.0305014
            7           8
    1   0.0395478   0.0395478
    2  -0.0684162   0.0684162
    3   0.0302929   0.0302929
 Gradient of SCF Energy
            1           2           3           4           5           6
    1   0.0010234  -0.0000945  -0.0005261  -0.0001766  -0.0001766  -0.0000202
    2  -0.0000000  -0.0000000   0.0000000  -0.0001958   0.0001958   0.0000000
    3  -0.0000107  -0.0000221   0.0002093  -0.0000979  -0.0000979   0.0000118
            7           8
    1  -0.0000147  -0.0000147
    2   0.0000031  -0.0000031
    3   0.0000037   0.0000037
 Max gradient component =       1.023E-03
 RMS gradient           =       2.530E-04
 Gradient time:  CPU 42.73 s  wall 43.17 s
 Writing REM_CC_EA            8
 ----------------------------------------------------
       Standard Nuclear Orientation (Angstroms)
    I     Atom         X            Y            Z
 ----------------------------------------------------
    1      C      -0.001502     0.000000     0.020224
    2      Si     -0.001150     0.000000     1.872014
    3      H       1.023861     0.000000    -0.370012
    4      H      -0.511101    -0.886401    -0.373408
    5      H      -0.511101     0.886401    -0.373408
    6      H      -1.391764     0.000000     2.399842
    7      H       0.695878    -1.205325     2.395309
    8      H       0.695878     1.205325     2.395309
 ----------------------------------------------------
 Nuclear Repulsion Energy =    63.1368237917 hartrees
 There are       13 alpha and       13 beta electrons

                       Distance Matrix (Angstroms)
             C (  1)   Si(  2)   H (  3)   H (  4)   H (  5)   H (  6)
   Si(  2)  1.851790
   H (  3)  1.097112  2.465224
   H (  4)  1.095602  2.467322  1.772520
   H (  5)  1.095602  2.467322  1.772520  1.772802
   H (  6)  2.755977  1.487417  3.675232  3.041741  3.041741
   H (  7)  2.753211  1.487445  3.034366  3.037154  3.673950  2.410618
   H (  8)  2.753211  1.487445  3.034366  3.673950  3.037153  2.410618
             H (  7)
   H (  8)  2.410649
 
 Requested basis set is G3large
 There are 65 shells and 168 basis functions
 A cutoff of  1.0D-11 yielded   2106 shell pairs
 There are  14143 function pairs ( 17593 Cartesian)
Evaluating contribution to one-electron hamiltonian from nuclear
 Smallest overlap matrix eigenvalue = 1.34E-04
 Multipole matrices computed through 2nd order
 Guess MOs from SCF MO coefficient file
Reading MOs from coefficient file
Reading MOs from coefficient file
 A restricted hybrid HF-DFT SCF calculation will be
 performed using Pulay DIIS extrapolation
 Exchange:     1.0000 Hartree-Fock + 1.0000 BNL
 Correlation:  1.0000 LYP
 Using SG-1 standard quadrature grid
 SCF converges when DIIS error is below 1.0E-08
 ---------------------------------------
  Cycle       Energy         DIIS Error
 ---------------------------------------
    1    -329.2474590682      5.09E-05
    2    -329.2474578382      5.88E-06
    3    -329.2474580077      2.10E-06
    4    -329.2474580225      4.01E-07
    5    -329.2474580238      1.03E-07
    6    -329.2474580248      1.96E-08
    7    -329.2474580242      5.19E-09 Convergence criterion met
 ---------------------------------------
 One-Electron    Energy =  -581.1534751860
 Total Coulomb   Energy =   215.2672737363
 Alpha Exchange  Energy =    -2.7079227600
 Beta  Exchange  Energy =    -2.7079227600
 DFT   Exchange  Energy =   -20.1728222393
 DFT Correlation Energy =    -0.9094126069
 Nuclear Repu.   Energy =    63.1368237917
 Nuclear Attr.   Energy =  -909.4165000220
 Kinetic         Energy =   328.2630248361
 SCF time:  CPU 66.13 s  wall 67.32 s
 Final Alpha MO Eigenvalues
            1           2           3           4           5           6
    1 -65.2999041  -9.9687028  -5.2294459  -3.6609241  -3.6609120  -3.6602989
            7           8           9          10          11          12
    1  -0.8490124  -0.6597099  -0.5362565  -0.5358497  -0.4440845  -0.4433714
           13          14          15          16          17          18
    1  -0.4433436   0.0316292   0.0541415   0.0617879   0.0618366   0.0794273
 Analysis of SCF Wavefunction
 
 --------------------------------------------------------------
                    Orbital Energies (a.u.)
 --------------------------------------------------------------
 
 Alpha MOs
 -- Occupied --
-65.300  -9.969  -5.229  -3.661  -3.661  -3.660  -0.849  -0.660
 -0.536  -0.536  -0.444  -0.443  -0.443
 -- Virtual --
  0.032   0.054   0.062   0.062   0.079   0.087   0.087   0.097
  0.098   0.146   0.146   0.149   0.155   0.182   0.186   0.186
  0.198   0.231   0.231   0.231   0.295   0.295   0.348   0.353
  0.353   0.362   0.403   0.403   0.496   0.497   0.497   0.511
  0.539   0.585   0.585   0.600   0.636   0.636   0.638   0.674
  0.674   0.745   0.776   0.787   0.788   0.837   0.837   0.903
  0.918   0.918   0.945   0.949   1.009   1.078   1.078   1.144
  1.144   1.183   1.204   1.204   1.295   1.295   1.330   1.381
  1.402   1.402   1.422   1.423   1.423   1.497   1.497   1.569
  1.569   1.587   1.638   1.638   1.670   1.717   2.229   2.271
  2.277   2.278   2.338   2.339   2.451   2.630   2.631   2.735
  2.961   2.961   3.060   3.076   3.230   3.230   3.239   3.333
  3.335   3.423   3.423   3.482   3.653   3.654   3.768   3.770
  3.794   3.903   3.905   3.998   4.036   4.037   4.191   4.196
  4.196   4.239   4.253   4.254   4.349   4.349   4.367   4.478
  4.490   4.492   4.548   4.614   4.762   4.763   5.158   5.750
  5.752   6.356  11.464  11.464  11.814  17.631  17.738  17.805
 17.908  17.971  22.268  22.282  22.292  22.292  22.299  22.300
 22.323  24.299  27.947  28.183  28.185  40.982  40.996  41.290
 41.327  41.372 141.627
 --------------------------------------------------------------
 
          Ground-State Mulliken Net Atomic Charges

     Atom                 Charge (a.u.)
  ----------------------------------------
      1 C                    -0.475909
      2 Si                    0.241358
      3 H                     0.133115
      4 H                     0.133294
      5 H                     0.133294
      6 H                    -0.054975
      7 H                    -0.055089
      8 H                    -0.055089
  ----------------------------------------
  Sum of atomic charges =     0.000000

 -----------------------------------------------------------------
                    Cartesian Multipole Moments
 -----------------------------------------------------------------
    Charge (ESU x 10^10)
                 0.0000
    Dipole Moment (Debye)
         X      -0.0011      Y       0.0000      Z      -0.8143
       Tot       0.8143
    Quadrupole Moments (Debye-Ang)
        XX     -23.3960     XY       0.0000     YY     -23.3933
        XZ      -0.0020     YZ       0.0000     ZZ     -25.6545
    Octapole Moments (Debye-Ang^2)
       XXX       1.7540    XXY       0.0000    XYY      -1.6803
       YYY       0.0000    XXZ     -32.2523    XYZ       0.0000
       YYZ     -32.2573    XZZ       0.0138    YZZ       0.0000
       ZZZ     -94.6289
    Hexadecapole Moments (Debye-Ang^3)
      XXXX     -59.6396   XXXY       0.0000   XXYY     -19.8776
      XYYY       0.0000   YYYY     -59.6294   XXXZ       1.3648
      XXYZ       0.0000   XYYZ      -1.2498   YYYZ       0.0000
      XXZZ     -83.2063   XYZZ       0.0000   YYZZ     -83.2000
      XZZZ       0.1048   YZZZ       0.0000   ZZZZ    -417.3996
 -----------------------------------------------------------------
 Calculating analytic gradient of the SCF energy
 Gradient of AOints
            1           2           3           4           5           6
    1   0.0185077   0.0033280  -2.7308926   1.3582402   1.3582399   3.0102202
    2   0.0000005   0.0000001  -0.0000003   2.3658766  -2.3658767  -0.0000001
    3   4.5080029  -5.4375273   1.6356786   1.6477846   1.6477843  -1.3411932
            7           8
    1  -1.5088217  -1.5088217
    2   2.6090866  -2.6090867
    3  -1.3302651  -1.3302648
 Gradient of XC Energy
            1           2           3           4           5           6
    1  -0.0005572   0.0000043   0.1371881  -0.0683463  -0.0683463  -0.0790216
    2  -0.0000000  -0.0000000   0.0000000  -0.1189507   0.1189507   0.0000000
    3   0.0714286   0.0144555  -0.0585786  -0.0591964  -0.0591964   0.0304635
            7           8
    1   0.0395395   0.0395395
    2  -0.0684185   0.0684185
    3   0.0303119   0.0303119
 Gradient of SCF Energy
            1           2           3           4           5           6
    1  -0.0009530   0.0000675   0.0005423   0.0002092   0.0002092  -0.0000280
    2  -0.0000000  -0.0000000   0.0000000   0.0001963  -0.0001963   0.0000000
    3  -0.0000121  -0.0000220  -0.0001904   0.0001025   0.0001025  -0.0000519
            7           8
    1  -0.0000236  -0.0000236
    2   0.0000024  -0.0000024
    3   0.0000356   0.0000356
 Max gradient component =       9.530E-04
 RMS gradient           =       2.446E-04
 Gradient time:  CPU 41.45 s  wall 41.87 s
 Writing REM_CC_EA            8
 ----------------------------------------------------
       Standard Nuclear Orientation (Angstroms)
    I     Atom         X            Y            Z
 ----------------------------------------------------
    1      C      -0.000502     0.001000     0.020224
    2      Si     -0.001150     0.000000     1.872014
    3      H       1.023861     0.000000    -0.370012
    4      H      -0.511101    -0.886401    -0.373408
    5      H      -0.511101     0.886401    -0.373408
    6      H      -1.391764     0.000000     2.399842
    7      H       0.695878    -1.205325     2.395309
    8      H       0.695878     1.205325     2.395309
 ----------------------------------------------------
 Nuclear Repulsion Energy =    63.1368271973 hartrees
 There are       13 alpha and       13 beta electrons

                       Distance Matrix (Angstroms)
             C (  1)   Si(  2)   H (  3)   H (  4)   H (  5)   H (  6)
   Si(  2)  1.851790
   H (  3)  1.096178  2.465224
   H (  4)  1.096876  2.467322  1.772520
   H (  5)  1.095259  2.467322  1.772520  1.772802
   H (  6)  2.756481  1.487417  3.675232  3.041741  3.041741
   H (  7)  2.753396  1.487445  3.034366  3.037154  3.673950  2.410618
   H (  8)  2.752521  1.487445  3.034366  3.673950  3.037153  2.410618
             H (  7)
   H (  8)  2.410649
 
 Requested basis set is G3large
 There are 65 shells and 168 basis functions
 A cutoff of  1.0D-11 yielded   2106 shell pairs
 There are  14143 function pairs ( 17593 Cartesian)
Evaluating contribution to one-electron hamiltonian from nuclear
 Smallest overlap matrix eigenvalue = 1.34E-04
 Multipole matrices computed through 2nd order
 Guess MOs from SCF MO coefficient file
Reading MOs from coefficient file
Reading MOs from coefficient file
 A restricted hybrid HF-DFT SCF calculation will be
 performed using Pulay DIIS extrapolation
 Exchange:     1.0000 Hartree-Fock + 1.0000 BNL
 Correlation:  1.0000 LYP
 Using SG-1 standard quadrature grid
 SCF converges when DIIS error is below 1.0E-08
 ---------------------------------------
  Cycle       Energy         DIIS Error
 ---------------------------------------
    1    -329.2474596763      3.60E-05
    2    -329.2474578658      4.16E-06
    3    -329.2474579509      1.48E-06
    4    -329.2474579582      2.84E-07
    5    -329.2474579594      7.27E-08
    6    -329.2474579589      1.37E-08
    7    -329.2474579590      3.22E-09 Convergence criterion met
 ---------------------------------------
 One-Electron    Energy =  -581.1534827891
 Total Coulomb   Energy =   215.2672787561
 Alpha Exchange  Energy =    -2.7079228256
 Beta  Exchange  Energy =    -2.7079228256
 DFT   Exchange  Energy =   -20.1728228452
 DFT Correlation Energy =    -0.9094126270
 Nuclear Repu.   Energy =    63.1368271973
 Nuclear Attr.   Energy =  -909.4165109437
 Kinetic         Energy =   328.2630281547
 SCF time:  CPU 65.64 s  wall 66.78 s
 Final Alpha MO Eigenvalues
            1           2           3           4           5           6
    1 -65.2999041  -9.9687022  -5.2294459  -3.6609245  -3.6609116  -3.6602990
            7           8           9          10          11          12
    1  -0.8490124  -0.6597097  -0.5362303  -0.5358761  -0.4440979  -0.4434096
           13          14          15          16          17          18
    1  -0.4432918   0.0316293   0.0541415   0.0617935   0.0618310   0.0794272
 Analysis of SCF Wavefunction
 
 --------------------------------------------------------------
                    Orbital Energies (a.u.)
 --------------------------------------------------------------
 
 Alpha MOs
 -- Occupied --
-65.300  -9.969  -5.229  -3.661  -3.661  -3.660  -0.849  -0.660
 -0.536  -0.536  -0.444  -0.443  -0.443
 -- Virtual --
  0.032   0.054   0.062   0.062   0.079   0.087   0.087   0.097
  0.098   0.146   0.146   0.149   0.155   0.182   0.186   0.186
  0.198   0.231   0.231   0.231   0.295   0.295   0.348   0.353
  0.353   0.362   0.403   0.403   0.496   0.497   0.497   0.511
  0.539   0.585   0.585   0.600   0.636   0.636   0.638   0.674
  0.674   0.745   0.776   0.787   0.788   0.837   0.837   0.903
  0.918   0.918   0.945   0.949   1.009   1.078   1.078   1.144
  1.144   1.183   1.204   1.204   1.295   1.295   1.330   1.381
  1.402   1.402   1.422   1.423   1.423   1.497   1.497   1.569
  1.569   1.587   1.638   1.638   1.670   1.717   2.229   2.271
  2.277   2.278   2.338   2.339   2.451   2.630   2.631   2.735
  2.961   2.961   3.060   3.076   3.230   3.230   3.239   3.334
  3.335   3.423   3.424   3.482   3.653   3.654   3.768   3.770
  3.794   3.904   3.905   3.998   4.036   4.037   4.191   4.196
  4.196   4.239   4.253   4.254   4.349   4.349   4.367   4.478
  4.491   4.492   4.548   4.614   4.762   4.763   5.158   5.750
  5.752   6.356  11.464  11.464  11.814  17.631  17.738  17.805
 17.908  17.970  22.268  22.282  22.292  22.292  22.299  22.300
 22.323  24.299  27.947  28.183  28.185  40.982  40.996  41.290
 41.328  41.371 141.627
 --------------------------------------------------------------
 
          Ground-State Mulliken Net Atomic Charges

     Atom                 Charge (a.u.)
  ----------------------------------------
      1 C                    -0.475909
      2 Si                    0.241358
      3 H                     0.133275
      4 H                     0.133074
      5 H                     0.133353
      6 H                    -0.054924
      7 H                    -0.055070
      8 H                    -0.055158
  ----------------------------------------
[...]
            7           8           9          10          11          12
    1  -0.0200939  -0.0000068   0.0750014   0.0680132  -0.0504455  -0.0377449
    2  -0.0000044   0.0967549  -0.0000049  -0.0503533   0.0094267  -0.0653085
    3   0.0472662  -0.0000114   0.0449503  -0.0239156  -0.0413683   0.0446793
           13          14          15          16          17          18
    1   0.0680103   0.0504308  -0.0377341  -0.2878323  -0.0000028   0.0132065
    2   0.0503461   0.0094411   0.0652813  -0.0000023  -0.2080912  -0.0000018
    3  -0.0239144   0.0413916   0.0446466   0.0367859   0.0000087  -0.2627292
           19          20          21          22          23          24
    1  -0.2283929   0.0345934  -0.0062302  -0.2283907  -0.0345656  -0.0062253
    2   0.0347393  -0.2681867   0.0110491  -0.0347475  -0.2681270  -0.0110371
    3  -0.0186896   0.0323038  -0.2626609  -0.0186896  -0.0323251  -0.2626577
 New transposed dipole drv.
            1           2           3
    1  -0.3079199   0.0000061   0.0008416
    2   0.0000073  -0.3074816  -0.0000051
    3   0.0001580   0.0000118  -0.5990679
    4   0.9365396  -0.0000058   0.0002165
    5  -0.0000424   0.9361113  -0.0000065
    6  -0.0004380  -0.0000605   1.2526913
    7  -0.0200939  -0.0000044   0.0472662
    8  -0.0000068   0.0967549  -0.0000114
    9   0.0750014  -0.0000049   0.0449503
   10   0.0680132  -0.0503533  -0.0239156
   11  -0.0504455   0.0094267  -0.0413683
   12  -0.0377449  -0.0653085   0.0446793
   13   0.0680103   0.0503461  -0.0239144
   14   0.0504308   0.0094411   0.0413916
   15  -0.0377341   0.0652813   0.0446466
   16  -0.2878323  -0.0000023   0.0367859
   17  -0.0000028  -0.2080912   0.0000087
   18   0.0132065  -0.0000018  -0.2627292
   19  -0.2283929   0.0347393  -0.0186896
   20   0.0345934  -0.2681867   0.0323038
   21  -0.0062302   0.0110491  -0.2626609
   22  -0.2283907  -0.0347475  -0.0186896
   23  -0.0345656  -0.2681270  -0.0323251
   24  -0.0062253  -0.0110371  -0.2626577
FINAL TENSOR RESULT:
Order 2, Length 24
Order 1, Length 24
   0.5229291  -0.0000004   0.0003575  -0.0428647  -0.0000009  -0.0000331  -0.2826889  -0.0000005   0.1057461  -0.1020633  -0.1037477  -0.0530246  -0.1020607   0.1037475  -0.0530253   0.0020601  -0.0000006   0.0168521   0.0023409   0.0001880  -0.0084362   0.0023409  -0.0001893  -0.0084357
Order 1, Length 24
  -0.0000004   0.5236740   0.0000033  -0.0000000  -0.0429322   0.0000004   0.0000008  -0.0424751  -0.0000006  -0.1036963  -0.2224906  -0.0919929   0.1036978  -0.2224894   0.0919941  -0.0000016   0.0024513  -0.0000007   0.0002030   0.0021273   0.0146227  -0.0002033   0.0021261  -0.0146226
Order 1, Length 24
   0.0003575   0.0000033   0.4126195  -0.0000520  -0.0000011  -0.1737328   0.0920626  -0.0000002  -0.0758243  -0.0462104  -0.0802412  -0.0759358  -0.0462100   0.0802406  -0.0759380   0.0005976  -0.0000006  -0.0036794  -0.0002725   0.0005054  -0.0037562  -0.0002721  -0.0005044  -0.0037528
Order 1, Length 24
  -0.0428647  -0.0000000  -0.0000520   0.3176319   0.0000013   0.0000157   0.0003492   0.0000005   0.0218390  -0.0010802   0.0008700  -0.0109202  -0.0010813  -0.0008694  -0.0109205  -0.1536308   0.0000003   0.0449342  -0.0596606   0.0559840  -0.0224477  -0.0596611  -0.0559840  -0.0224483
Order 1, Length 24
  -0.0000009  -0.0429322  -0.0000011   0.0000013   0.3189260   0.0000019   0.0000002  -0.0015939   0.0000012   0.0008957  -0.0000757  -0.0189182  -0.0008962  -0.0000766   0.0189179   0.0000002  -0.0265665   0.0000010   0.0560324  -0.1238352   0.0387943  -0.0560317  -0.1238376  -0.0387957
Order 1, Length 24
  -0.0000331   0.0000004  -0.1737328   0.0000157   0.0000019   0.3212992  -0.0014650  -0.0000009  -0.0057689   0.0007592   0.0013067  -0.0057783   0.0007594  -0.0013064  -0.0057772   0.0476093  -0.0000005  -0.0426536  -0.0238211   0.0411318  -0.0437929  -0.0238219  -0.0411314  -0.0437937
Order 1, Length 24
  -0.2826889   0.0000008   0.0920626   0.0003492   0.0000002  -0.0014650   0.3047545  -0.0000003  -0.1008048  -0.0116695   0.0013681   0.0051294  -0.0116701  -0.0013678   0.0051300   0.0007076   0.0000003  -0.0007499   0.0001101  -0.0000636   0.0003490   0.0001105   0.0000648   0.0003489
Order 1, Length 24
  -0.0000005  -0.0424751  -0.0000002   0.0000005  -0.0015939  -0.0000009  -0.0000003   0.0420444   0.0000002  -0.0230408   0.0007987   0.0108037   0.0230412   0.0007981  -0.0108035  -0.0000001   0.0007292   0.0000004   0.0000623  -0.0001504  -0.0001417  -0.0000623  -0.0001509   0.0001417
Order 1, Length 24
   0.1057461  -0.0000006  -0.0758243   0.0218390   0.0000012  -0.0057689  -0.1008048   0.0000002   0.0764509  -0.0120034   0.0009654   0.0035561  -0.0120037  -0.0009652   0.0035561  -0.0004518   0.0000000  -0.0046905  -0.0011603   0.0000299   0.0013602  -0.0011612  -0.0000302   0.0013596
Order 1, Length 24
  -0.1020633  -0.1036963  -0.0462104  -0.0010802   0.0008957   0.0007592  -0.0116695  -0.0230408  -0.0120034   0.1072082   0.1134696   0.0505915   0.0070365   0.0121665   0.0068404  -0.0000775   0.0000472  -0.0002914  -0.0000850   0.0001693  -0.0000651   0.0007314  -0.0000104   0.0003788
Order 1, Length 24
  -0.1037477  -0.2224906  -0.0802412   0.0008700  -0.0000757   0.0013067   0.0013681   0.0007987   0.0009654   0.1134696   0.2388686   0.0878273  -0.0121673  -0.0179099  -0.0098997   0.0001719   0.0000398  -0.0002371   0.0000450   0.0000498  -0.0003760  -0.0000090   0.0007201   0.0006538
Order 1, Length 24
  -0.0530246  -0.0919929  -0.0759358  -0.0109202  -0.0189182  -0.0057783   0.0051294   0.0108037   0.0035561   0.0505915   0.0878273   0.0766042   0.0068411   0.0098991   0.0035740   0.0006123   0.0009810   0.0013399   0.0005514   0.0010153   0.0013374   0.0002178   0.0003795  -0.0046960
Order 1, Length 24
  -0.1020607   0.1036978  -0.0462100  -0.0010813  -0.0008962   0.0007594  -0.0116701   0.0230412  -0.0120037   0.0070365  -0.0121673   0.0068411   0.1072082  -0.1134693   0.0505917  -0.0000778  -0.0000472  -0.0002928   0.0007312   0.0000097   0.0003784  -0.0000850  -0.0001699  -0.0000638
Order 1, Length 24
   0.1037475  -0.2224894   0.0802406  -0.0008694  -0.0000766  -0.0013064  -0.0013678   0.0007981  -0.0009652   0.0121665  -0.0179099   0.0098991  -0.1134693   0.2388684  -0.0878282  -0.0001719   0.0000397   0.0002374   0.0000084   0.0007206  -0.0006538  -0.0000451   0.0000513   0.0003760
Order 1, Length 24
  -0.0530253   0.0919941  -0.0759380  -0.0109205   0.0189179  -0.0057772   0.0051300  -0.0108035   0.0035561   0.0068404  -0.0098997   0.0035740   0.0505917  -0.0878282   0.0766037   0.0006134  -0.0009808   0.0013401   0.0002180  -0.0003807  -0.0046970   0.0005523  -0.0010169   0.0013373
Order 1, Length 24
   0.0020601  -0.0000016   0.0005976  -0.1536308   0.0000002   0.0476093   0.0007076  -0.0000001  -0.0004518  -0.0000775   0.0001719   0.0006123  -0.0000778  -0.0001719   0.0006134   0.1605530   0.0000000  -0.0527436  -0.0047677   0.0007317   0.0018819  -0.0047677  -0.0007307   0.0018804
Order 1, Length 24
  -0.0000006   0.0024513  -0.0000006   0.0000003  -0.0265665  -0.0000005   0.0000003   0.0007292   0.0000000   0.0000472   0.0000398   0.0009810  -0.0000472   0.0000397  -0.0009808   0.0000000   0.0197349   0.0000004   0.0105493   0.0017834  -0.0033902  -0.0105489   0.0017861   0.0033893
Order 1, Length 24
   0.0168521  -0.0000007  -0.0036794   0.0449342   0.0000010  -0.0426536  -0.0007499   0.0000004  -0.0046905  -0.0002914  -0.0002371   0.0013399  -0.0002928   0.0002374   0.0013401  -0.0527436   0.0000004   0.0413276  -0.0038540  -0.0000399   0.0035076  -0.0038542   0.0000402   0.0035069
Order 1, Length 24
   0.0023409   0.0002030  -0.0002725  -0.0596606   0.0560324  -0.0238211   0.0001101   0.0000623  -0.0011603  -0.0000850   0.0000450   0.0005514   0.0007312   0.0000084   0.0002180  -0.0047677   0.0105493  -0.0038540   0.0562974  -0.0619573   0.0263624   0.0050335  -0.0049399   0.0019766
Order 1, Length 24
   0.0001880   0.0021273   0.0005054   0.0559840  -0.1238352   0.0411318  -0.0000636  -0.0001504   0.0000299   0.0001693   0.0000498   0.0010153   0.0000097   0.0007206  -0.0003807   0.0007317   0.0017834  -0.0000399  -0.0619573   0.1273243  -0.0455572   0.0049379  -0.0080201   0.0032944
Order 1, Length 24
  -0.0084362   0.0146227  -0.0037562  -0.0224477   0.0387943  -0.0437929   0.0003490  -0.0001417   0.0013602  -0.0000651  -0.0003760   0.0013374   0.0003784  -0.0006538  -0.0046970   0.0018819  -0.0033902   0.0035076   0.0263624  -0.0455572   0.0425221   0.0019767  -0.0032946   0.0035168
Order 1, Length 24
   0.0023409  -0.0002033  -0.0002721  -0.0596611  -0.0560317  -0.0238219   0.0001105  -0.0000623  -0.0011612   0.0007314  -0.0000090   0.0002178  -0.0000850  -0.0000451   0.0005523  -0.0047677  -0.0105489  -0.0038542   0.0050335   0.0049379   0.0019767   0.0562972   0.0619591   0.0263616
Order 1, Length 24
  -0.0001893   0.0021261  -0.0005044  -0.0559840  -0.1238376  -0.0411314   0.0000648  -0.0001509  -0.0000302  -0.0000104   0.0007201   0.0003795  -0.0001699   0.0000513  -0.0010169  -0.0007307   0.0017861   0.0000402  -0.0049399  -0.0080201  -0.0032946   0.0619591   0.1273244   0.0455567
Order 1, Length 24
  -0.0084357  -0.0146226  -0.0037528  -0.0224483  -0.0387957  -0.0437937   0.0003489   0.0001417   0.0013596   0.0003788   0.0006538  -0.0046960  -0.0000638   0.0003760   0.0013373   0.0018804   0.0033893   0.0035069   0.0019766   0.0032944   0.0035168   0.0263616   0.0455567   0.0425235


 # Finishing finite difference calculation for IDERIV #
 ######################################################
 ######################################################
 Requested basis set is G3large
 There are 65 shells and 168 basis functions
 **********************************************************************
 **                                                                  **
 **                       VIBRATIONAL ANALYSIS                       **
 **                       --------------------                       **
 **                                                                  **
 **        VIBRATIONAL FREQUENCIES (CM**-1) AND NORMAL MODES         **
 **     FORCE CONSTANTS (mDYN/ANGSTROM) AND REDUCED MASSES (AMU)     **
 **                  INFRARED INTENSITIES (KM/MOL)                   **
 **                                                                  **
 **********************************************************************
 

 Mode:                 1                      2                      3
 Frequency:       204.12                 519.54                 530.75
 Force Cnst:      0.0247                 0.1658                 0.1730
 Red. Mass:       1.0078                 1.0423                 1.0423
 IR Active:          YES                    YES                    YES
 IR Intens:        0.003                  7.851                  7.579
 Raman Active:       YES                    YES                    YES
               X      Y      Z        X      Y      Z        X      Y      Z
 C          0.000  0.000  0.000   -0.015  0.000  0.000    0.000  0.018  0.000
 Si         0.000  0.000  0.000   -0.034  0.000 -0.001    0.000  0.034  0.000
 H          0.000  0.465  0.000    0.157 -0.001  0.428    0.000 -0.201 -0.001
 H          0.403 -0.232  0.000    0.190 -0.019 -0.214    0.019 -0.171  0.382
 H         -0.403 -0.232  0.000    0.190  0.018 -0.217   -0.020 -0.171 -0.380
 H          0.000  0.347  0.000    0.195 -0.001  0.591   -0.001 -0.221 -0.002
 H         -0.294 -0.170  0.001    0.203  0.013 -0.280   -0.018 -0.194 -0.491
 H          0.294 -0.170 -0.001    0.203 -0.015 -0.277    0.016 -0.194  0.493
 TransDip   0.000 -0.002  0.000   -0.089  0.000 -0.010    0.000  0.088  0.000

 Mode:                 4                      5                      6
 Frequency:       732.18                 883.83                 885.64
 Force Cnst:      1.1116                 0.6116                 0.6166
 Red. Mass:       3.5195                 1.3288                 1.3342
 IR Active:          YES                    YES                    YES
 IR Intens:       11.940                 68.473                 75.335
 Raman Active:       YES                    YES                    YES
               X      Y      Z        X      Y      Z        X      Y      Z
 C         -0.001  0.000  0.378   -0.142  0.000 -0.001    0.000 -0.141  0.000
 Si         0.000  0.000 -0.186    0.060  0.000  0.006    0.000  0.063  0.000
 H          0.025  0.000  0.470    0.101  0.000  0.598    0.000  0.224  0.000
 H         -0.009 -0.021  0.460    0.198 -0.052 -0.307   -0.051  0.130 -0.513
 H         -0.009  0.021  0.460    0.198  0.053 -0.307    0.051  0.130  0.513
 H         -0.023  0.000 -0.240   -0.121  0.000 -0.447    0.000 -0.283  0.000
 H          0.013 -0.020 -0.241   -0.180 -0.067  0.157   -0.084 -0.143 -0.337
 H          0.013  0.020 -0.241   -0.179  0.066  0.157    0.084 -0.143  0.336
 TransDip   0.000  0.000 -0.111    0.263  0.000  0.034    0.000  0.278  0.000

 Mode:                 7                      8                      9
 Frequency:       947.02                 953.50                 957.56
 Force Cnst:      0.5853                 0.5505                 0.5615
 Red. Mass:       1.1077                 1.0277                 1.0393
 IR Active:          YES                    YES                    YES
 IR Intens:      176.472                 28.412                 53.343
 Raman Active:       YES                    YES                    YES
               X      Y      Z        X      Y      Z        X      Y      Z
 C         -0.004  0.000  0.005    0.000 -0.023  0.000   -0.016  0.000  0.001
 Si         0.015  0.000 -0.059    0.000 -0.023  0.000   -0.024  0.000 -0.022
 H          0.008  0.000  0.041    0.000  0.011  0.000    0.013  0.000  0.081
 H          0.003 -0.012  0.029   -0.002  0.014 -0.080    0.006 -0.001 -0.023
 H          0.003  0.012  0.029    0.002  0.014  0.080    0.006  0.001 -0.023
 H          0.240  0.000  0.569    0.000  0.718  0.000   -0.053  0.000 -0.121
 H         -0.311  0.029  0.456    0.374  0.075 -0.300    0.446  0.418  0.336
 H         -0.311 -0.029  0.456   -0.373  0.075  0.300    0.447 -0.418  0.336
 TransDip   0.090  0.000 -0.416    0.000 -0.171  0.000   -0.171  0.000 -0.159

 Mode:                10                     11                     12
 Frequency:      1286.71                1436.01                1436.88
 Force Cnst:      1.2359                 1.2727                 1.2746
 Red. Mass:       1.2670                 1.0475                 1.0478
 IR Active:          YES                    YES                    YES
 IR Intens:       36.828                  5.946                  5.980
 Raman Active:       YES                    YES                    YES
               X      Y      Z        X      Y      Z        X      Y      Z
 C          0.001  0.000  0.153   -0.059  0.000  0.001    0.000 -0.060  0.000
 Si         0.000  0.000 -0.011   -0.006  0.000  0.000    0.000 -0.005  0.000
 H         -0.242  0.000 -0.517   -0.173 -0.001 -0.331    0.000  0.726 -0.001
 H          0.119  0.213 -0.515    0.502 -0.388  0.163   -0.388  0.052  0.283
 H          0.119 -0.213 -0.515    0.501  0.387  0.163    0.390  0.053 -0.282
 H          0.016  0.000  0.014    0.002  0.000  0.013    0.000  0.020  0.000
 H         -0.008  0.014  0.014    0.016  0.008 -0.007    0.008  0.006  0.012
 H         -0.008 -0.014  0.014    0.016 -0.008 -0.007   -0.008  0.006 -0.012
 TransDip  -0.001  0.000 -0.194    0.078  0.000 -0.001    0.000  0.078  0.000

 Mode:                13                     14                     15
 Frequency:      2211.55                2225.83                2226.94
 Force Cnst:      2.9938                 3.0111                 3.0712
 Red. Mass:       1.0389                 1.0315                 1.0511
 IR Active:          YES                    YES                    YES
 IR Intens:       99.118                 83.076                125.370
 Raman Active:       YES                    YES                    YES
               X      Y      Z        X      Y      Z        X      Y      Z
 C          0.000  0.000  0.000    0.000  0.000  0.000    0.000  0.000  0.000
 Si        -0.031  0.000  0.013    0.025  0.000  0.017    0.000 -0.040  0.000
 H         -0.002  0.000  0.007    0.004  0.000  0.001    0.000  0.000  0.000
 H         -0.002 -0.003  0.001    0.000  0.000  0.006   -0.002 -0.004 -0.004
 H         -0.002  0.003  0.001    0.000  0.000  0.006    0.002 -0.004  0.004
 H          0.933  0.000 -0.352   -0.037  0.000  0.021    0.000 -0.014  0.000
 H         -0.028  0.030 -0.010   -0.327  0.579 -0.245   -0.336  0.567 -0.249
 H         -0.028 -0.030 -0.010   -0.325 -0.575 -0.243    0.338  0.570  0.251
 TransDip  -0.282  0.000  0.149    0.222 -0.001  0.190   -0.001 -0.359 -0.001

 Mode:                16                     17                     18
 Frequency:      3051.82                3141.38                3141.48
 Force Cnst:      5.6881                 6.4093                 6.4085
 Red. Mass:       1.0366                 1.1023                 1.1021
 IR Active:          YES                    YES                    YES
 IR Intens:        0.342                  0.930                  0.937
 Raman Active:       YES                    YES                    YES
               X      Y      Z        X      Y      Z        X      Y      Z
 C          0.000  0.000  0.051    0.000 -0.093  0.000   -0.093  0.000  0.000
 Si         0.000  0.000 -0.001    0.000 -0.001  0.000   -0.001  0.000  0.000
 H          0.541  0.000 -0.194    0.000 -0.015  0.000    0.758  0.000 -0.296
 H         -0.271 -0.471 -0.196    0.333  0.564  0.257    0.177  0.333  0.148
 H         -0.271  0.471 -0.196   -0.333  0.564 -0.257    0.177 -0.333  0.148
 H          0.000  0.000  0.001    0.000  0.001  0.000    0.004  0.000 -0.003
 H          0.000  0.000  0.001   -0.002  0.004 -0.002    0.002 -0.002  0.001
 H          0.000  0.000  0.001    0.002  0.004  0.002    0.002  0.002  0.001
 TransDip   0.000  0.000  0.019    0.000 -0.031  0.000   -0.031  0.000  0.000

 STANDARD THERMODYNAMIC QUANTITIES AT   298.18 K  AND     1.00 ATM

   This Molecule has  0 Imaginary Frequencies
   Zero point vibrational energy:       38.274 kcal/mol

   Atom    1 Element C  Has Mass   12.00000
   Atom    2 Element Si Has Mass   27.97693
   Atom    3 Element H  Has Mass    1.00783
   Atom    4 Element H  Has Mass    1.00783
   Atom    5 Element H  Has Mass    1.00783
   Atom    6 Element H  Has Mass    1.00783
   Atom    7 Element H  Has Mass    1.00783
   Atom    8 Element H  Has Mass    1.00783
   Molecular Mass:    46.023910 amu
   Principal axes and moments of inertia in atomic units:
                             1           2           3
    Eigenvalues --       32.22306   162.07560   162.07843
          X              -0.00047     0.00005     1.00000
          Y               0.00000     1.00000    -0.00005
          Z               1.00000     0.00000     0.00047
   Rotational Symmetry Number is   1
   The Molecule is an Asymmetric Top
   Translational Enthalpy:        0.889 kcal/mol
   Rotational Enthalpy:           0.889 kcal/mol
   Vibrational Enthalpy:         39.114 kcal/mol
   gas constant (RT):             0.593 kcal/mol
   Translational Entropy:        37.405  cal/mol.K
   Rotational Entropy:           21.365  cal/mol.K
   Vibrational Entropy:           4.260  cal/mol.K

   Total Enthalpy:               41.484 kcal/mol
   Total Entropy:                63.030  cal/mol.K
 Total job time:  5301.23s(wall), 5240.17s(cpu) 
 Sat Apr 23 23:34:29 2011

        *************************************************************
        *                                                           *
        *  Thank you very much for using Q-Chem.  Have a nice day.  *
        *                                                           *
        *************************************************************


0 sent ACK to 0 
now end server 0 ... 
