Process 0 of 1 is on cl186.stfx.acenet.ca - thread support 1
initial socket setup ...start
initial socket setup ...done 
now start server 0 ... 

cmd = /usr/bin/ssh clhead /usr/local/qchem/bin/get_hostid 987621505 > /globalscratch/itamblyn/bnl/g297_b3lyp_neut_g03Large_worked/g2g71117/omega390/qchem26656/lic.dat
                  Welcome to Q-Chem
     A Quantum Leap Into The Future Of Chemistry

 Y. Shao, L. Fusti-Molnar, Y. Jung, J. Kussmann, C. Ochsenfeld,
 S. T. Brown, A. T. B. Gilbert, L. V. Slipchenko,S. V. Levchenko,
 D. P. O'Neill, R. A. DiStasio Jr., R. C. Lochan, T. Wang,
 G. J. O. Beran, N. A. Besley, J. M. Herbert, C. Y. Lin,
 T. Van Voorhis, S. H. Chien, A. Sodt, R. P. Steele, 
 V. A. Rassolov, P. E. Maslen, P. P. Korambath, R. D. Adamson,
 B. Austin, J. Baker, E. F. C. Byrd, H. Dachsel, R. J. Doerksen,
 A. Dreuw, B. D. Dunietz, A. D. Dutoi, T. R. Furlani,
 S. R. Gwaltney, A. Heyden, S. Hirata, C.-P. Hsu, G. Kedziora,
 R. Z. Khaliullin, P. Klunzinger, A. M. Lee, M. S. Lee, W. Liang,
 I. Lotan, N. Nair, B. Peters, E. I. Proynov, P. A. Pieniazek, 
 Y. M. Rhee, J. Ritchie, E. Rosta, C. D. Sherrill, 
 A. C. Simmonett, J. E. Subotnik, H. L. Woodcock III,
 W. Zhang, A. T. Bell, A. K. Chakraborty, D. M. Chipman,
 F. J. Keil, A. Warshel, W. J. Hehre, H. F. Schaefer III,
 J. Kong, A. I. Krylov, P. M. W. Gill, M. Head-Gordon,
 Q-Chem, Version 3.1, Q-Chem, Inc., Pittsburgh, PA (2007).

 Additional authors for Version 3.1: 
 Z. Gan, Y. Zhao, N. E. Schultz, D. Truhlar, E. Epifanovsky and M. Oana.

 Additional authors for Version 3.2: 
 R. Baer, B. R. Brooks, D. Casanova, J.-D. Chai, C.-L. Cheng, 
 C. Cramer, D. Crittenden, A. Ghysels, G. Hawkins, E. G. Hohenstein, 
 C. Kelley, W. Kurlancheek, D. Liotard, E. Livshits, P. Manohar, 
 A. Marenich, D. Neuhauser, R. Olson, M. A. Rohrdanz, K. S. Thanthiriwatte, 
 A. J. W. Thom, V. Vanovschi, C. F. Williams, Q. Wu and Z.-Q. You. 


 Intel X86 Linux Version

 Q-chem begins on Fri Apr 15 16:24:01 2011  

 Parallel job on  1  processors
Processing $rem in /usr/local/qchem/config/preferences.

theFileMan(): MAXOPENFILES=974 MAX_SUB_FILE_NUM=16
Maximum size of a physical file is 2.0 GB, maximum size of a tmp-file is 32.0 GB


--------------------------------------------------------------
User input:
--------------------------------------------------------------

$molecule
-1,2
C
S,1,RAB
X,2,1.,1,A
C,2,RAB,3,A,1,180.,0
X,1,1.,2,90.,3,180.,0
X,4,1.,2,90.,3,180.,0
H,1,R16,2,A16,5,0.,0
H,1,R2378,2,A2378,5,B2378,0
H,1,R2378,2,A2378,5,-B2378,0
H,4,R16,2,A16,6,0.,0
H,4,R2378,2,A2378,6,B2378,0
H,4,R2378,2,A2378,6,-B2378,0

RAB=1.82580526
R16=1.09329676
R2378=1.09471502
A=49.80953519
A16=107.09654581
A2378=111.30515525
B2378=118.71196407

$end

$comment
negative
$end

$xc_functional
   X HF 1.0
   X BNL 1.0
   C LYP 1.0
$end

$rem
SYMMETRY_DECOMPOSITION	0
exchange 		general
BASIS                   g3large
omega			390
separate_jk		true
mem_static              760
max_scf_cycles          200
scf_final_print         1
sym_ignore              true
$end

--------------------------------------------------------------
 Writing REM_CC_EA            9
 ----------------------------------------------------
       Standard Nuclear Orientation (Angstroms)
    I     Atom         X            Y            Z
 ----------------------------------------------------
    1      C       0.000000     0.000000     0.000000
    2      S       0.000000     0.000000     1.825805
    3      C       1.800135     0.000000     2.130892
    4      H      -1.044985     0.000000    -0.321410
    5      H       0.489967     0.894500    -0.397748
    6      H       0.489967    -0.894500    -0.397748
    7      H       1.942413     0.000000     3.214891
    8      H       2.274163    -0.894500     1.714276
    9      H       2.274163     0.894500     1.714276
 ----------------------------------------------------
 Nuclear Repulsion Energy =   109.8977440333 hartrees
 There are       18 alpha and       17 beta electrons
 Requested basis set is G3large
 There are 75 shells and 210 basis functions

Total QAlloc Memory Limit   2000 MB
Mega-Array Size       743 MB
MEM_STATIC part       760 MB

                       Distance Matrix (Angstroms)
             C (  1)   S (  2)   C (  3)   H (  4)   H (  5)   H (  6)
   S (  2)  1.825805
   C (  3)  2.789478  1.825805
   H (  4)  1.093297  2.387997  3.756127
   H (  5)  1.094715  2.446301  2.985078  1.778211
   H (  6)  1.094715  2.446301  2.985078  1.778211  1.788999
   H (  7)  3.756127  2.387997  1.093297  4.629252  3.995109  3.995109
   H (  8)  2.985078  2.446301  1.094715  3.995109  3.293102  2.764779
   H (  9)  2.985078  2.446301  1.094715  3.995109  2.764779  3.293102
             H (  7)   H (  8)
   H (  8)  1.778211
   H (  9)  1.778211  1.788999
 
 A cutoff of  1.0D-08 yielded   2630 shell pairs
 There are  20806 function pairs ( 26214 Cartesian)
Evaluating contribution to one-electron hamiltonian from nuclear
 Smallest overlap matrix eigenvalue = 1.80E-04
 Multipole matrices computed through 2nd order

  Scale SEOQF with 1.000000e-01/1.000000e-01/1.000000e-01

 Standard Electronic Orientation quadrupole field applied
 Nucleus-field energy     =    -0.0000000089 hartrees
 Guess from superposition of atomic densities
 Warning:  Energy on first SCF cycle will be non-variational
 An unrestricted hybrid HF-DFT SCF calculation will be
 performed using Pulay DIIS extrapolation
 Exchange:     1.0000 Hartree-Fock + 1.0000 BNL
 Correlation:  1.0000 LYP
 Using SG-1 standard quadrature grid
 SCF converges when DIIS error is below 1.0E-05
 Warning!  Inaccurate integrated density:
   Number of electrons =    35
   Numerical integral  =    33.999603453975
   Relative error      =    -2.8582758458 %
 ---------------------------------------
  Cycle       Energy         DIIS Error
 ---------------------------------------
    1    -475.7721560637      2.77E-02
    2    -475.1473043944      3.04E-03
    3    -475.2017014740      2.85E-03
    4    -475.2481787332      4.47E-04
    5    -475.2531695426      2.60E-04
    6    -475.2561030242      1.09E-04
    7    -475.2574346506      4.30E-05
    8    -475.2577000157      2.15E-05
    9    -475.2577530884      6.46E-06 Convergence criterion met
 ---------------------------------------
 One-Electron    Energy =  -878.4649645213
 Total Coulomb   Energy =   329.2724407331
 Alpha Exchange  Energy =    -3.4010259160
 Beta  Exchange  Energy =    -3.3392882450
 DFT   Exchange  Energy =   -27.9992477159
 DFT Correlation Energy =    -1.2234114477
 Nuclear Repu.   Energy =   109.8977440244
 Nuclear Attr.   Energy = -1352.5607511180
 Kinetic         Energy =   474.0957865967
 <S^2> = 0.7504
 SCF time:  CPU 163.35 s  wall 179.43 s
 Final Alpha MO Eigenvalues
            1           2           3           4           5           6
    1 -87.7532962  -9.8575355  -9.8570190  -7.6975525  -5.7486756  -5.7444017
            7           8           9          10          11          12
    1  -5.7370109  -0.8031740  -0.7040678  -0.5959268  -0.4297424  -0.4285035
           13          14          15          16          17          18
    1  -0.4091276  -0.3924843  -0.3397332  -0.2921754  -0.1995669   0.0449679
           19          20          21          22          23
    1   0.1153289   0.1582082   0.1599299   0.1724770   0.1801379
 Final Beta MO Eigenvalues
            1           2           3           4           5           6
    1 -87.7531469  -9.8568951  -9.8563622  -7.6973853  -5.7482938  -5.7442843
            7           8           9          10          11          12
    1  -5.7368947  -0.8022585  -0.7025294  -0.5944993  -0.4292799  -0.4274277
           13          14          15          16          17          18
    1  -0.4076987  -0.3918719  -0.3384159  -0.2908532  -0.1990089   0.1274929
           19          20          21          22
    1   0.1354426   0.1511383   0.1551954   0.1698351
 Analysis of SCF Wavefunction
 
 --------------------------------------------------------------
                    Orbital Energies (a.u.)
 --------------------------------------------------------------
 
 Alpha MOs
 -- Occupied --
-87.753  -9.858  -9.857  -7.698  -5.749  -5.744  -5.737  -0.803
 -0.704  -0.596  -0.430  -0.429  -0.409  -0.392  -0.340  -0.292
 -0.200   0.045
 -- Virtual --
  0.115   0.158   0.160   0.172   0.180   0.192   0.221   0.231
  0.234   0.261   0.264   0.271   0.282   0.283   0.286   0.313
  0.320   0.333   0.337   0.350   0.358   0.375   0.404   0.464
  0.469   0.476   0.515   0.528   0.544   0.580   0.594   0.625
  0.638   0.660   0.673   0.696   0.702   0.747   0.748   0.763
  0.777   0.783   0.858   0.868   0.884   0.909   0.915   0.922
  0.934   1.028   1.057   1.073   1.078   1.125   1.131   1.143
  1.179   1.186   1.207   1.276   1.289   1.327   1.328   1.339
  1.352   1.380   1.412   1.431   1.456   1.475   1.486   1.526
  1.560   1.578   1.583   1.594   1.629   1.641   1.646   1.656
  1.680   1.689   1.721   1.754   1.760   1.763   1.844   1.881
  2.127   2.279   2.351   2.607   2.650   2.805   2.812   2.859
  3.006   3.150   3.156   3.170   3.178   3.219   3.243   3.251
  3.318   3.393   3.412   3.419   3.423   3.464   3.478   3.520
  3.520   3.552   3.585   3.702   3.745   3.791   3.792   3.831
  3.833   3.842   3.850   3.854   3.874   3.875   4.016   4.044
  4.091   4.107   4.112   4.172   4.282   4.298   4.352   4.358
  4.408   4.452   4.550   4.571   4.600   4.605   4.615   4.663
  4.689   4.693   4.998   5.006   5.074   5.216   5.282   5.401
  5.725   5.846   5.852   5.880   5.887   8.667  17.276  17.490
 17.601  23.722  23.782  23.788  23.827  23.895  24.417  24.418
 28.066  28.069  28.262  28.264  28.265  28.335  31.108  31.113
 31.116  31.119  31.119  31.133  31.137  41.056  41.062  41.086
 41.103  41.371  41.375  41.389  41.411  41.449  41.450 189.758
 
 Beta MOs
 -- Occupied --
-87.753  -9.857  -9.856  -7.697  -5.748  -5.744  -5.737  -0.802
 -0.703  -0.594  -0.429  -0.427  -0.408  -0.392  -0.338  -0.291
 -0.199
 -- Virtual --
  0.127   0.135   0.151   0.155   0.170   0.175   0.188   0.223
  0.224   0.226   0.255   0.256   0.263   0.275   0.277   0.277
  0.306   0.311   0.328   0.335   0.346   0.354   0.371   0.397
  0.459   0.462   0.476   0.514   0.526   0.540   0.576   0.591
  0.624   0.635   0.658   0.670   0.691   0.698   0.742   0.744
  0.760   0.773   0.778   0.854   0.864   0.884   0.909   0.915
  0.923   0.933   1.028   1.056   1.073   1.077   1.125   1.131
  1.143   1.179   1.186   1.206   1.274   1.288   1.326   1.327
  1.338   1.351   1.380   1.411   1.430   1.456   1.475   1.485
  1.525   1.560   1.577   1.581   1.593   1.629   1.641   1.645
  1.656   1.681   1.688   1.721   1.753   1.759   1.762   1.843
  1.880   2.127   2.279   2.351   2.607   2.650   2.805   2.811
  2.859   3.005   3.151   3.156   3.171   3.179   3.220   3.244
  3.252   3.318   3.394   3.413   3.419   3.423   3.465   3.478
  3.520   3.521   3.552   3.585   3.703   3.745   3.791   3.793
  3.831   3.834   3.843   3.850   3.854   3.875   3.876   4.017
  4.045   4.091   4.108   4.113   4.172   4.283   4.298   4.352
  4.358   4.408   4.452   4.550   4.571   4.600   4.605   4.615
  4.663   4.689   4.693   4.998   5.007   5.074   5.216   5.282
  5.401   5.726   5.846   5.852   5.880   5.888   8.667  17.276
 17.491  17.601  23.723  23.783  23.788  23.828  23.895  24.418
 24.419  28.066  28.070  28.262  28.264  28.266  28.335  31.109
 31.113  31.116  31.119  31.119  31.133  31.138  41.056  41.062
 41.087  41.103  41.371  41.376  41.389  41.411  41.449  41.450
189.758
 --------------------------------------------------------------
 
          Ground-State Mulliken Net Atomic Charges

     Atom                 Charge (a.u.)    Spin (a.u.)
  --------------------------------------------------------
      1 C                     1.203805      -1.467833
      2 S                    -0.362827       0.141256
      3 C                     1.264280      -1.528129
      4 H                    -0.895176       1.027565
      5 H                    -0.317011       0.438236
      6 H                    -0.303291       0.424193
      7 H                    -0.930111       1.063234
      8 H                    -0.336374       0.457401
      9 H                    -0.323294       0.444076
  --------------------------------------------------------
  Sum of atomic charges =    -1.000000
  Sum of spin   charges =     1.000000

 -----------------------------------------------------------------
                    Cartesian Multipole Moments
 -----------------------------------------------------------------
    Charge (ESU x 10^10)
                -4.8032
    Dipole Moment (Debye)
         X      -2.6871      Y      -0.0001      Z      -6.7944
       Tot       7.3065
    Quadrupole Moments (Debye-Ang)
        XX     -67.7994     XY       0.1261     YY     -48.4747
        XZ     -22.1197     YZ       0.1534     ZZ     -81.9409
    Octapole Moments (Debye-Ang^2)
       XXX    -132.5919    XXY       0.4036    XYY     -32.1723
       YYY      -0.0046    XXZ    -113.0998    XYZ       0.2984
       YYZ     -62.5467    XZZ     -99.2748    YZZ       0.1409
       ZZZ    -292.3222
    Hexadecapole Moments (Debye-Ang^3)
      XXXX    -986.1137   XXXY       2.2033   XXYY    -194.6155
      XYYY       1.3185   YYYY    -249.7172   XXXZ    -487.9048
      XXYZ       1.1370   XYYZ    -124.1622   YYYZ       1.5880
      XXZZ    -535.5937   XYZZ       0.7609   YYZZ    -281.1730
      XZZZ    -581.9523   YZZZ       1.6537   ZZZZ   -1745.8774
 -----------------------------------------------------------------
 Total job time:  181.04s(wall), 163.63s(cpu) 
 Fri Apr 15 16:27:02 2011

        *************************************************************
        *                                                           *
        *  Thank you very much for using Q-Chem.  Have a nice day.  *
        *                                                           *
        *************************************************************


0 sent ACK to 0 
now end server 0 ... 
 
**********************************************************************
Job 2 of 3 
**********************************************************************
 
Process 0 of 1 is on cl186.stfx.acenet.ca - thread support 1
initial socket setup ...start
initial socket setup ...done 
now start server 0 ... 

cmd = /usr/bin/ssh clhead /usr/local/qchem/bin/get_hostid 1326540624 > /globalscratch/itamblyn/bnl/g297_b3lyp_neut_g03Large_worked/g2g71117/omega390/qchem26656/lic.dat
                  Welcome to Q-Chem
     A Quantum Leap Into The Future Of Chemistry

 Y. Shao, L. Fusti-Molnar, Y. Jung, J. Kussmann, C. Ochsenfeld,
 S. T. Brown, A. T. B. Gilbert, L. V. Slipchenko,S. V. Levchenko,
 D. P. O'Neill, R. A. DiStasio Jr., R. C. Lochan, T. Wang,
 G. J. O. Beran, N. A. Besley, J. M. Herbert, C. Y. Lin,
 T. Van Voorhis, S. H. Chien, A. Sodt, R. P. Steele, 
 V. A. Rassolov, P. E. Maslen, P. P. Korambath, R. D. Adamson,
 B. Austin, J. Baker, E. F. C. Byrd, H. Dachsel, R. J. Doerksen,
 A. Dreuw, B. D. Dunietz, A. D. Dutoi, T. R. Furlani,
 S. R. Gwaltney, A. Heyden, S. Hirata, C.-P. Hsu, G. Kedziora,
 R. Z. Khaliullin, P. Klunzinger, A. M. Lee, M. S. Lee, W. Liang,
 I. Lotan, N. Nair, B. Peters, E. I. Proynov, P. A. Pieniazek, 
 Y. M. Rhee, J. Ritchie, E. Rosta, C. D. Sherrill, 
 A. C. Simmonett, J. E. Subotnik, H. L. Woodcock III,
 W. Zhang, A. T. Bell, A. K. Chakraborty, D. M. Chipman,
 F. J. Keil, A. Warshel, W. J. Hehre, H. F. Schaefer III,
 J. Kong, A. I. Krylov, P. M. W. Gill, M. Head-Gordon,
 Q-Chem, Version 3.1, Q-Chem, Inc., Pittsburgh, PA (2007).

 Additional authors for Version 3.1: 
 Z. Gan, Y. Zhao, N. E. Schultz, D. Truhlar, E. Epifanovsky and M. Oana.

 Additional authors for Version 3.2: 
 R. Baer, B. R. Brooks, D. Casanova, J.-D. Chai, C.-L. Cheng, 
 C. Cramer, D. Crittenden, A. Ghysels, G. Hawkins, E. G. Hohenstein, 
 C. Kelley, W. Kurlancheek, D. Liotard, E. Livshits, P. Manohar, 
 A. Marenich, D. Neuhauser, R. Olson, M. A. Rohrdanz, K. S. Thanthiriwatte, 
 A. J. W. Thom, V. Vanovschi, C. F. Williams, Q. Wu and Z.-Q. You. 


 Intel X86 Linux Version

 Q-chem begins on Fri Apr 15 16:27:06 2011  

 Parallel job on  1  processors
Processing $rem in /usr/local/qchem/config/preferences.

theFileMan(): MAXOPENFILES=974 MAX_SUB_FILE_NUM=16
Maximum size of a physical file is 2.0 GB, maximum size of a tmp-file is 32.0 GB


--------------------------------------------------------------
User input:
--------------------------------------------------------------

$molecule
0,1
C
S,1,RAB
X,2,1.,1,A
C,2,RAB,3,A,1,180.,0
X,1,1.,2,90.,3,180.,0
X,4,1.,2,90.,3,180.,0
H,1,R16,2,A16,5,0.,0
H,1,R2378,2,A2378,5,B2378,0
H,1,R2378,2,A2378,5,-B2378,0
H,4,R16,2,A16,6,0.,0
H,4,R2378,2,A2378,6,B2378,0
H,4,R2378,2,A2378,6,-B2378,0

RAB=1.82580526
R16=1.09329676
R2378=1.09471502
A=49.80953519
A16=107.09654581
A2378=111.30515525
B2378=118.71196407

$end

$comment
neutral
$end

$xc_functional
   X HF 1.0
   X BNL 1.0
   C LYP 1.0
$end

$rem
SYMMETRY_DECOMPOSITION	0
exchange 		general
BASIS                   g3large
omega			390
separate_jk		true
mem_static              760
max_scf_cycles          200
scf_final_print         1
sym_ignore              true
$end

--------------------------------------------------------------
 Writing REM_CC_EA            9
 ----------------------------------------------------
       Standard Nuclear Orientation (Angstroms)
    I     Atom         X            Y            Z
 ----------------------------------------------------
    1      C       0.000000     0.000000     0.000000
    2      S       0.000000     0.000000     1.825805
    3      C       1.800135     0.000000     2.130892
    4      H      -1.044985     0.000000    -0.321410
    5      H       0.489967     0.894500    -0.397748
    6      H       0.489967    -0.894500    -0.397748
    7      H       1.942413     0.000000     3.214891
    8      H       2.274163    -0.894500     1.714276
    9      H       2.274163     0.894500     1.714276
 ----------------------------------------------------
 Nuclear Repulsion Energy =   109.8977440333 hartrees
 There are       17 alpha and       17 beta electrons
 Requested basis set is G3large
 There are 75 shells and 210 basis functions

Total QAlloc Memory Limit   2000 MB
Mega-Array Size       743 MB
MEM_STATIC part       760 MB

                       Distance Matrix (Angstroms)
             C (  1)   S (  2)   C (  3)   H (  4)   H (  5)   H (  6)
   S (  2)  1.825805
   C (  3)  2.789478  1.825805
   H (  4)  1.093297  2.387997  3.756127
   H (  5)  1.094715  2.446301  2.985078  1.778211
   H (  6)  1.094715  2.446301  2.985078  1.778211  1.788999
   H (  7)  3.756127  2.387997  1.093297  4.629252  3.995109  3.995109
   H (  8)  2.985078  2.446301  1.094715  3.995109  3.293102  2.764779
   H (  9)  2.985078  2.446301  1.094715  3.995109  2.764779  3.293102
             H (  7)   H (  8)
   H (  8)  1.778211
   H (  9)  1.778211  1.788999
 
 A cutoff of  1.0D-08 yielded   2630 shell pairs
 There are  20806 function pairs ( 26214 Cartesian)
Evaluating contribution to one-electron hamiltonian from nuclear
 Smallest overlap matrix eigenvalue = 1.80E-04
 Multipole matrices computed through 2nd order

  Scale SEOQF with 1.000000e-01/1.000000e-01/1.000000e-01

 Standard Electronic Orientation quadrupole field applied
 Nucleus-field energy     =    -0.0000000089 hartrees
 Guess from superposition of atomic densities
 Warning:  Energy on first SCF cycle will be non-variational
 A restricted hybrid HF-DFT SCF calculation will be
 performed using Pulay DIIS extrapolation
 Exchange:     1.0000 Hartree-Fock + 1.0000 BNL
 Correlation:  1.0000 LYP
 Using SG-1 standard quadrature grid
 SCF converges when DIIS error is below 1.0E-05
 ---------------------------------------
  Cycle       Energy         DIIS Error
 ---------------------------------------
    1    -475.7721560637      2.77E-02
    2    -475.2744032970      2.05E-03
    3    -475.2978425274      8.51E-04
    4    -475.3015138109      2.92E-04
    5    -475.3021217087      9.62E-05
    6    -475.3022156854      3.31E-05
    7    -475.3022349777      1.13E-05
    8    -475.3022369960      4.15E-06 Convergence criterion met
 ---------------------------------------
 One-Electron    Energy =  -874.1107806002
 Total Coulomb   Energy =   324.8008133024
 Alpha Exchange  Energy =    -3.3416152995
 Beta  Exchange  Energy =    -3.3416152995
 DFT   Exchange  Energy =   -27.9896647281
 DFT Correlation Energy =    -1.2171183954
 Nuclear Repu.   Energy =   109.8977440244
 Nuclear Attr.   Energy = -1348.1163101502
 Kinetic         Energy =   474.0055295500
 SCF time:  CPU 110.31 s  wall 134.45 s
 Final Alpha MO Eigenvalues
            1           2           3           4           5           6
    1 -87.8817133  -9.9884835  -9.9884023  -7.8261219  -5.8775268  -5.8728757
            7           8           9          10          11          12
    1  -5.8652910  -0.9318752  -0.8335011  -0.7246049  -0.5589470  -0.5581553
           13          14          15          16          17          18
    1  -0.5382955  -0.5213101  -0.4700729  -0.4193457  -0.3263455   0.0318294
           19          20          21          22
    1   0.0423393   0.0590833   0.0621183   0.0811806
 Analysis of SCF Wavefunction
 
 --------------------------------------------------------------
                    Orbital Energies (a.u.)
 --------------------------------------------------------------
 
 Alpha MOs
 -- Occupied --
-87.882  -9.988  -9.988  -7.826  -5.878  -5.873  -5.865  -0.932
 -0.834  -0.725  -0.559  -0.558  -0.538  -0.521  -0.470  -0.419
 -0.326
 -- Virtual --
  0.032   0.042   0.059   0.062   0.081   0.086   0.088   0.115
  0.119   0.126   0.148   0.152   0.156   0.169   0.174   0.175
  0.202   0.207   0.215   0.218   0.231   0.236   0.255   0.280
  0.344   0.350   0.352   0.393   0.405   0.422   0.456   0.474
  0.505   0.514   0.533   0.548   0.571   0.578   0.619   0.621
  0.639   0.653   0.656   0.733   0.742   0.757   0.783   0.790
  0.796   0.805   0.899   0.930   0.945   0.951   0.996   1.003
  1.016   1.052   1.060   1.081   1.147   1.162   1.199   1.201
  1.211   1.224   1.251   1.283   1.304   1.330   1.345   1.359
  1.397   1.433   1.450   1.455   1.465   1.501   1.514   1.519
  1.528   1.552   1.562   1.594   1.628   1.631   1.634   1.715
  1.753   2.001   2.151   2.223   2.478   2.520   2.676   2.683
  2.728   2.877   3.021   3.026   3.041   3.049   3.089   3.114
  3.123   3.189   3.263   3.284   3.290   3.293   3.335   3.349
  3.390   3.391   3.422   3.455   3.573   3.615   3.661   3.662
  3.702   3.704   3.714   3.722   3.724   3.746   3.746   3.887
  3.915   3.962   3.978   3.982   4.042   4.153   4.169   4.222
  4.229   4.277   4.323   4.420   4.440   4.468   4.475   4.486
  4.533   4.560   4.563   4.870   4.878   4.945   5.086   5.152
  5.271   5.596   5.717   5.723   5.749   5.756   8.539  17.148
 17.362  17.472  23.594  23.654  23.659  23.698  23.766  24.286
 24.287  27.935  27.938  28.131  28.133  28.134  28.203  30.980
 30.984  30.988  30.990  30.991  31.004  31.009  40.925  40.931
 40.955  40.972  41.240  41.244  41.258  41.280  41.318  41.319
189.629
 --------------------------------------------------------------
 
          Ground-State Mulliken Net Atomic Charges

     Atom                 Charge (a.u.)
  ----------------------------------------
      1 C                    -0.288762
      2 S                    -0.207376
      3 C                    -0.289085
      4 H                     0.128903
      5 H                     0.131897
      6 H                     0.131937
      7 H                     0.128743
      8 H                     0.131903
      9 H                     0.131840
  ----------------------------------------
  Sum of atomic charges =     0.000000

 -----------------------------------------------------------------
                    Cartesian Multipole Moments
 -----------------------------------------------------------------
    Charge (ESU x 10^10)
                 0.0000
    Dipole Moment (Debye)
         X       1.2991      Y      -0.0001      Z      -1.0978
       Tot       1.7009
    Quadrupole Moments (Debye-Ang)
        XX     -25.7383     XY       0.0000     YY     -29.3183
        XZ       3.5367     YZ       0.0001     ZZ     -29.3522
    Octapole Moments (Debye-Ang^2)
       XXX     -41.7031    XXY      -0.0025    XYY     -12.0469
       YYY      -0.0003    XXZ     -35.5095    XYZ      -0.0001
       YYZ     -43.3530    XZZ      -5.1425    YZZ       0.0025
       ZZZ    -114.4570
    Hexadecapole Moments (Debye-Ang^3)
      XXXX    -208.4893   XXXY      -0.0045   XXYY     -41.1637
      XYYY      -0.0005   YYYY     -53.4000   XXXZ     -86.7373
      XXYZ      -0.0044   XYYZ     -29.0012   YYYZ      -0.0001
      XXZZ    -111.9645   XYZZ      -0.0004   YYZZ    -104.1101
      XZZZ     -64.9067   YZZZ       0.0097   ZZZZ    -490.7628
 -----------------------------------------------------------------
 Total job time:  138.15s(wall), 110.57s(cpu) 
 Fri Apr 15 16:29:24 2011

        *************************************************************
        *                                                           *
        *  Thank you very much for using Q-Chem.  Have a nice day.  *
        *                                                           *
        *************************************************************


0 sent ACK to 0 
now end server 0 ... 
 
**********************************************************************
Job 3 of 3 
**********************************************************************
 
Process 0 of 1 is on cl186.stfx.acenet.ca - thread support 1
initial socket setup ...start
initial socket setup ...done 
now start server 0 ... 

cmd = /usr/bin/ssh clhead /usr/local/qchem/bin/get_hostid 1392818668 > /globalscratch/itamblyn/bnl/g297_b3lyp_neut_g03Large_worked/g2g71117/omega390/qchem26656/lic.dat
                  Welcome to Q-Chem
     A Quantum Leap Into The Future Of Chemistry

 Y. Shao, L. Fusti-Molnar, Y. Jung, J. Kussmann, C. Ochsenfeld,
 S. T. Brown, A. T. B. Gilbert, L. V. Slipchenko,S. V. Levchenko,
 D. P. O'Neill, R. A. DiStasio Jr., R. C. Lochan, T. Wang,
 G. J. O. Beran, N. A. Besley, J. M. Herbert, C. Y. Lin,
 T. Van Voorhis, S. H. Chien, A. Sodt, R. P. Steele, 
 V. A. Rassolov, P. E. Maslen, P. P. Korambath, R. D. Adamson,
 B. Austin, J. Baker, E. F. C. Byrd, H. Dachsel, R. J. Doerksen,
 A. Dreuw, B. D. Dunietz, A. D. Dutoi, T. R. Furlani,
 S. R. Gwaltney, A. Heyden, S. Hirata, C.-P. Hsu, G. Kedziora,
 R. Z. Khaliullin, P. Klunzinger, A. M. Lee, M. S. Lee, W. Liang,
 I. Lotan, N. Nair, B. Peters, E. I. Proynov, P. A. Pieniazek, 
 Y. M. Rhee, J. Ritchie, E. Rosta, C. D. Sherrill, 
 A. C. Simmonett, J. E. Subotnik, H. L. Woodcock III,
 W. Zhang, A. T. Bell, A. K. Chakraborty, D. M. Chipman,
 F. J. Keil, A. Warshel, W. J. Hehre, H. F. Schaefer III,
 J. Kong, A. I. Krylov, P. M. W. Gill, M. Head-Gordon,
 Q-Chem, Version 3.1, Q-Chem, Inc., Pittsburgh, PA (2007).

 Additional authors for Version 3.1: 
 Z. Gan, Y. Zhao, N. E. Schultz, D. Truhlar, E. Epifanovsky and M. Oana.

 Additional authors for Version 3.2: 
 R. Baer, B. R. Brooks, D. Casanova, J.-D. Chai, C.-L. Cheng, 
 C. Cramer, D. Crittenden, A. Ghysels, G. Hawkins, E. G. Hohenstein, 
 C. Kelley, W. Kurlancheek, D. Liotard, E. Livshits, P. Manohar, 
 A. Marenich, D. Neuhauser, R. Olson, M. A. Rohrdanz, K. S. Thanthiriwatte, 
 A. J. W. Thom, V. Vanovschi, C. F. Williams, Q. Wu and Z.-Q. You. 


 Intel X86 Linux Version

 Q-chem begins on Fri Apr 15 16:29:27 2011  

 Parallel job on  1  processors
Processing $rem in /usr/local/qchem/config/preferences.

theFileMan(): MAXOPENFILES=974 MAX_SUB_FILE_NUM=16
Maximum size of a physical file is 2.0 GB, maximum size of a tmp-file is 32.0 GB


--------------------------------------------------------------
User input:
--------------------------------------------------------------

$molecule
1,2
C
S,1,RAB
X,2,1.,1,A
C,2,RAB,3,A,1,180.,0
X,1,1.,2,90.,3,180.,0
X,4,1.,2,90.,3,180.,0
H,1,R16,2,A16,5,0.,0
H,1,R2378,2,A2378,5,B2378,0
H,1,R2378,2,A2378,5,-B2378,0
H,4,R16,2,A16,6,0.,0
H,4,R2378,2,A2378,6,B2378,0
H,4,R2378,2,A2378,6,-B2378,0

RAB=1.82580526
R16=1.09329676
R2378=1.09471502
A=49.80953519
A16=107.09654581
A2378=111.30515525
B2378=118.71196407

$end

$comment
positive
$end

$xc_functional
   X HF 1.0
   X BNL 1.0
   C LYP 1.0
$end

$rem
SYMMETRY_DECOMPOSITION	0
exchange 		general
BASIS                   g3large
omega			390
separate_jk		true
mem_static              760
max_scf_cycles          200
scf_final_print         1
sym_ignore              true
$end

--------------------------------------------------------------
 Writing REM_CC_EA            9
 ----------------------------------------------------
       Standard Nuclear Orientation (Angstroms)
    I     Atom         X            Y            Z
 ----------------------------------------------------
    1      C       0.000000     0.000000     0.000000
    2      S       0.000000     0.000000     1.825805
    3      C       1.800135     0.000000     2.130892
    4      H      -1.044985     0.000000    -0.321410
    5      H       0.489967     0.894500    -0.397748
    6      H       0.489967    -0.894500    -0.397748
    7      H       1.942413     0.000000     3.214891
    8      H       2.274163    -0.894500     1.714276
    9      H       2.274163     0.894500     1.714276
 ----------------------------------------------------
 Nuclear Repulsion Energy =   109.8977440333 hartrees
 There are       17 alpha and       16 beta electrons
 Requested basis set is G3large
 There are 75 shells and 210 basis functions

Total QAlloc Memory Limit   2000 MB
Mega-Array Size       743 MB
MEM_STATIC part       760 MB

                       Distance Matrix (Angstroms)
             C (  1)   S (  2)   C (  3)   H (  4)   H (  5)   H (  6)
   S (  2)  1.825805
   C (  3)  2.789478  1.825805
   H (  4)  1.093297  2.387997  3.756127
   H (  5)  1.094715  2.446301  2.985078  1.778211
   H (  6)  1.094715  2.446301  2.985078  1.778211  1.788999
   H (  7)  3.756127  2.387997  1.093297  4.629252  3.995109  3.995109
   H (  8)  2.985078  2.446301  1.094715  3.995109  3.293102  2.764779
   H (  9)  2.985078  2.446301  1.094715  3.995109  2.764779  3.293102
             H (  7)   H (  8)
   H (  8)  1.778211
   H (  9)  1.778211  1.788999
 
 A cutoff of  1.0D-08 yielded   2630 shell pairs
 There are  20806 function pairs ( 26214 Cartesian)
Evaluating contribution to one-electron hamiltonian from nuclear
 Smallest overlap matrix eigenvalue = 1.80E-04
 Multipole matrices computed through 2nd order

  Scale SEOQF with 1.000000e-01/1.000000e-01/1.000000e-01

 Standard Electronic Orientation quadrupole field applied
 Nucleus-field energy     =    -0.0000000089 hartrees
 Guess from superposition of atomic densities
 Warning:  Energy on first SCF cycle will be non-variational
 An unrestricted hybrid HF-DFT SCF calculation will be
 performed using Pulay DIIS extrapolation
 Exchange:     1.0000 Hartree-Fock + 1.0000 BNL
 Correlation:  1.0000 LYP
 Using SG-1 standard quadrature grid
 SCF converges when DIIS error is below 1.0E-05
 Warning!  Inaccurate integrated density:
   Number of electrons =    33
   Numerical integral  =    33.999603453975
   Relative error      =     3.0291013757 %
 ---------------------------------------
  Cycle       Energy         DIIS Error
 ---------------------------------------
    1    -475.7721560637      2.77E-02
    2    -474.9218326163      2.78E-03
    3    -474.9647211201      1.74E-03
    4    -474.9792337607      3.37E-04
    5    -474.9810010253      1.40E-04
    6    -474.9816116409      7.16E-05
    7    -474.9820301074      4.07E-05
    8    -474.9822430788      2.08E-05
    9    -474.9823146792      8.34E-06 Convergence criterion met
 ---------------------------------------
 One-Electron    Energy =  -864.9699688057
 Total Coulomb   Energy =   315.6728596481
 Alpha Exchange  Energy =    -3.3579134383
 Beta  Exchange  Energy =    -3.1637261177
 DFT   Exchange  Energy =   -27.8782455053
 DFT Correlation Energy =    -1.1830644847
 Nuclear Repu.   Energy =   109.8977440244
 Nuclear Attr.   Energy = -1338.6288284351
 Kinetic         Energy =   473.6588596294
 <S^2> = 0.7544
 SCF time:  CPU 156.82 s  wall 180.43 s
 Final Alpha MO Eigenvalues
            1           2           3           4           5           6
    1 -88.2233751 -10.2176231 -10.2173803  -8.1620461  -6.2149942  -6.2088214
            7           8           9          10          11          12
    1  -6.2040261  -1.2118744  -1.0657607  -0.9807097  -0.8050409  -0.7884143
           13          14          15          16          17          18
    1  -0.7802134  -0.7485217  -0.7055873  -0.6883691  -0.6420139  -0.1324296
           19          20          21          22
    1  -0.1138085  -0.1037594  -0.0771021  -0.0669600
 Final Beta MO Eigenvalues
            1           2           3           4           5           6
    1 -88.2175250 -10.2177134 -10.2174761  -8.1558937  -6.2044668  -6.2007553
            7           8           9          10          11          12
    1  -6.1998510  -1.1886121  -1.0628215  -0.9587186  -0.7857812  -0.7762232
           13          14          15          16          17          18
    1  -0.7731355  -0.7366437  -0.7036760  -0.6767989  -0.3150891  -0.1275571
           19          20          21
    1  -0.1131854  -0.0947695  -0.0774816
 Analysis of SCF Wavefunction
 
 --------------------------------------------------------------
                    Orbital Energies (a.u.)
 --------------------------------------------------------------
 
 Alpha MOs
 -- Occupied --
-88.223 -10.218 -10.217  -8.162  -6.215  -6.209  -6.204  -1.212
 -1.066  -0.981  -0.805  -0.788  -0.780  -0.749  -0.706  -0.688
 -0.642
 -- Virtual --
 -0.132  -0.114  -0.104  -0.077  -0.067  -0.064  -0.054  -0.044
 -0.034  -0.031  -0.020  -0.014   0.000   0.002   0.030   0.032
  0.037   0.050   0.057   0.059   0.061   0.073   0.079   0.091
  0.114   0.142   0.176   0.183   0.191   0.218   0.249   0.262
  0.269   0.322   0.335   0.358   0.382   0.394   0.407   0.430
  0.441   0.462   0.463   0.527   0.536   0.554   0.556   0.563
  0.571   0.591   0.665   0.706   0.709   0.709   0.751   0.777
  0.777   0.795   0.795   0.834   0.924   0.931   0.967   0.986
  0.988   1.008   1.033   1.054   1.071   1.080   1.119   1.129
  1.168   1.183   1.224   1.237   1.243   1.282   1.289   1.298
  1.314   1.319   1.349   1.368   1.403   1.418   1.420   1.505
  1.537   1.694   1.880   1.956   2.255   2.300   2.455   2.457
  2.511   2.650   2.769   2.803   2.807   2.814   2.858   2.876
  2.878   2.942   3.038   3.047   3.057   3.061   3.101   3.109
  3.159   3.167   3.189   3.219   3.319   3.369   3.380   3.390
  3.411   3.436   3.438   3.446   3.469   3.470   3.502   3.632
  3.688   3.729   3.745   3.745   3.803   3.882   3.943   3.993
  4.002   4.048   4.097   4.186   4.216   4.245   4.250   4.259
  4.309   4.327   4.341   4.556   4.567   4.643   4.800   4.928
  5.023   5.308   5.492   5.497   5.530   5.535   8.213  16.799
 17.033  17.143  23.250  23.312  23.318  23.370  23.440  24.057
 24.057  27.703  27.707  27.903  27.904  27.905  27.976  30.638
 30.648  30.649  30.653  30.656  30.676  30.682  40.695  40.701
 40.727  40.743  41.010  41.015  41.028  41.050  41.088  41.090
189.289
 
 Beta MOs
 -- Occupied --
-88.218 -10.218 -10.217  -8.156  -6.204  -6.201  -6.200  -1.189
 -1.063  -0.959  -0.786  -0.776  -0.773  -0.737  -0.704  -0.677
 -- Virtual --
 -0.315  -0.128  -0.113  -0.095  -0.077  -0.065  -0.063  -0.050
 -0.044  -0.035  -0.028  -0.013  -0.012   0.002   0.004   0.030
  0.032   0.038   0.052   0.058   0.060   0.061   0.073   0.084
  0.114   0.118   0.145   0.184   0.194   0.199   0.224   0.251
  0.265   0.286   0.326   0.338   0.361   0.383   0.395   0.413
  0.430   0.444   0.464   0.464   0.531   0.541   0.556   0.564
  0.565   0.576   0.593   0.669   0.710   0.717   0.723   0.762
  0.784   0.795   0.798   0.815   0.840   0.927   0.934   0.973
  0.991   0.995   1.011   1.036   1.060   1.086   1.086   1.129
  1.131   1.174   1.194   1.230   1.240   1.247   1.286   1.292
  1.301   1.317   1.323   1.353   1.372   1.408   1.421   1.421
  1.507   1.540   1.723   1.887   1.963   2.260   2.303   2.461
  2.461   2.511   2.654   2.774   2.806   2.810   2.817   2.860
  2.880   2.884   2.946   3.039   3.052   3.061   3.066   3.106
  3.117   3.163   3.168   3.191   3.225   3.331   3.386   3.404
  3.416   3.424   3.451   3.454   3.455   3.476   3.481   3.503
  3.639   3.689   3.733   3.748   3.749   3.807   3.890   3.947
  3.999   4.008   4.054   4.102   4.192   4.220   4.251   4.252
  4.264   4.313   4.332   4.345   4.572   4.583   4.653   4.813
  4.932   5.029   5.314   5.497   5.503   5.532   5.537   8.225
 16.820  17.038  17.148  23.264  23.324  23.329  23.375  23.444
 24.057  24.057  27.703  27.707  27.902  27.905  27.906  27.975
 30.645  30.653  30.654  30.658  30.660  30.678  30.684  40.695
 40.701  40.727  40.744  41.010  41.015  41.028  41.050  41.089
 41.090 189.296
 --------------------------------------------------------------
 
          Ground-State Mulliken Net Atomic Charges

     Atom                 Charge (a.u.)    Spin (a.u.)
  --------------------------------------------------------
      1 C                    -0.247075      -0.021638
      2 S                     0.384003       0.918837
      3 C                    -0.246974      -0.021945
      4 H                     0.180125       0.000335
      5 H                     0.187562       0.031245
      6 H                     0.187422       0.030613
      7 H                     0.180079       0.000347
      8 H                     0.187374       0.031001
      9 H                     0.187485       0.031205
  --------------------------------------------------------
  Sum of atomic charges =     1.000000
  Sum of spin   charges =     1.000000

 -----------------------------------------------------------------
                    Cartesian Multipole Moments
 -----------------------------------------------------------------
    Charge (ESU x 10^10)
                 4.8032
    Dipole Moment (Debye)
         X       3.2535      Y      -0.0010      Z       6.0219
       Tot       6.8446
    Quadrupole Moments (Debye-Ang)
        XX     -16.6641     XY       0.0040     YY     -22.9532
        XZ       7.5290     YZ      -0.0063     ZZ     -10.1503
    Octapole Moments (Debye-Ang^2)
       XXX     -24.1163    XXY       0.0047    XYY      -9.5673
       YYY      -0.0013    XXZ     -19.1974    XYZ       0.0060
       YYZ     -33.8264    XZZ       5.6108    YZZ      -0.0149
       ZZZ     -68.1194
    Hexadecapole Moments (Debye-Ang^3)
      XXXX    -147.0118   XXXY       0.0166   XXYY     -30.3626
      XYYY       0.0059   YYYY     -36.3971   XXXZ     -49.7976
      XXYZ       0.0058   XYYZ     -25.4036   YYYZ      -0.0078
      XXZZ     -69.0732   XYZZ       0.0134   YYZZ     -80.0567
      XZZZ     -33.0009   YZZZ      -0.0431   ZZZZ    -352.9988
 -----------------------------------------------------------------
 Total job time:  184.22s(wall), 157.10s(cpu) 
 Fri Apr 15 16:32:32 2011

        *************************************************************
        *                                                           *
        *  Thank you very much for using Q-Chem.  Have a nice day.  *
        *                                                           *
        *************************************************************


0 sent ACK to 0 
now end server 0 ... 
