Process 0 of 1 is on cl067.stfx.acenet.ca - thread support 1
initial socket setup ...start
initial socket setup ...done 
now start server 0 ... 

cmd = /usr/bin/ssh clhead /usr/local/qchem/bin/get_hostid 1415483576 > /scratch/tmp/6063820.1.short.q/qchem23246/lic.dat
                  Welcome to Q-Chem
     A Quantum Leap Into The Future Of Chemistry

 Y. Shao, L. Fusti-Molnar, Y. Jung, J. Kussmann, C. Ochsenfeld,
 S. T. Brown, A. T. B. Gilbert, L. V. Slipchenko,S. V. Levchenko,
 D. P. O'Neill, R. A. DiStasio Jr., R. C. Lochan, T. Wang,
 G. J. O. Beran, N. A. Besley, J. M. Herbert, C. Y. Lin,
 T. Van Voorhis, S. H. Chien, A. Sodt, R. P. Steele, 
 V. A. Rassolov, P. E. Maslen, P. P. Korambath, R. D. Adamson,
 B. Austin, J. Baker, E. F. C. Byrd, H. Dachsel, R. J. Doerksen,
 A. Dreuw, B. D. Dunietz, A. D. Dutoi, T. R. Furlani,
 S. R. Gwaltney, A. Heyden, S. Hirata, C.-P. Hsu, G. Kedziora,
 R. Z. Khaliullin, P. Klunzinger, A. M. Lee, M. S. Lee, W. Liang,
 I. Lotan, N. Nair, B. Peters, E. I. Proynov, P. A. Pieniazek, 
 Y. M. Rhee, J. Ritchie, E. Rosta, C. D. Sherrill, 
 A. C. Simmonett, J. E. Subotnik, H. L. Woodcock III,
 W. Zhang, A. T. Bell, A. K. Chakraborty, D. M. Chipman,
 F. J. Keil, A. Warshel, W. J. Hehre, H. F. Schaefer III,
 J. Kong, A. I. Krylov, P. M. W. Gill, M. Head-Gordon,
 Q-Chem, Version 3.1, Q-Chem, Inc., Pittsburgh, PA (2007).

 Additional authors for Version 3.1: 
 Z. Gan, Y. Zhao, N. E. Schultz, D. Truhlar, E. Epifanovsky and M. Oana.

 Additional authors for Version 3.2: 
 R. Baer, B. R. Brooks, D. Casanova, J.-D. Chai, C.-L. Cheng, 
 C. Cramer, D. Crittenden, A. Ghysels, G. Hawkins, E. G. Hohenstein, 
 C. Kelley, W. Kurlancheek, D. Liotard, E. Livshits, P. Manohar, 
 A. Marenich, D. Neuhauser, R. Olson, M. A. Rohrdanz, K. S. Thanthiriwatte, 
 A. J. W. Thom, V. Vanovschi, C. F. Williams, Q. Wu and Z.-Q. You. 


 Intel X86 Linux Version

 Q-chem begins on Sun Jul  7 09:38:49 2013  

 Parallel job on  1  processors
Processing $rem in /usr/local/qchem/config/preferences.

theFileMan(): MAXOPENFILES=974 MAX_SUB_FILE_NUM=16
Maximum size of a physical file is 2.0 GB, maximum size of a tmp-file is 32.0 GB


--------------------------------------------------------------
User input:
--------------------------------------------------------------

$molecule
-1,2
Si         0.00000        0.00000        0.00865
H          1.08915        0.00000        1.06584
H         -1.08915        0.00000        1.06584
$end

$comment
negative
$end

$xc_functional
C PBE   1.00
X wPBE  1.00
$end

$rem
SYMMETRY_DECOMPOSITION	0
exchange 		general
LRC_DFT                 true
BASIS                   g3large
omega			440
mem_static              760
max_scf_cycles          200
scf_final_print         1
sym_ignore              true
$end

--------------------------------------------------------------
 Writing REM_CC_EA            3
 ----------------------------------------------------
       Standard Nuclear Orientation (Angstroms)
    I     Atom         X            Y            Z
 ----------------------------------------------------
    1      Si      0.000000     0.000000     0.008650
    2      H       1.089150     0.000000     1.065840
    3      H      -1.089150     0.000000     1.065840
 ----------------------------------------------------
 Nuclear Repulsion Energy =    10.0046772308 hartrees
 There are        9 alpha and        8 beta electrons
 Requested basis set is G3large
 There are 31 shells and 86 basis functions

Total QAlloc Memory Limit   2000 MB
Mega-Array Size       743 MB
MEM_STATIC part       760 MB

                       Distance Matrix (Angstroms)
             Si(  1)   H (  2)
   H (  2)  1.517860
   H (  3)  1.517860  2.178300
 
 A cutoff of  1.0D-08 yielded    496 shell pairs
 There are   3877 function pairs (  5178 Cartesian)
Evaluating contribution to one-electron hamiltonian from nuclear
 Smallest overlap matrix eigenvalue = 2.05E-03
 Multipole matrices computed through 2nd order

  Scale SEOQF with 1.000000e-01/1.000000e-01/1.000000e-01

 Standard Electronic Orientation quadrupole field applied
 Nucleus-field energy     =    -0.0000000002 hartrees
 Guess from superposition of atomic densities
 Warning:  Energy on first SCF cycle will be non-variational
 Long-range K will be added via erf
 Coulomb attenuation parameter = 0.44 bohr**(-1)
 An unrestricted Kohn-Sham SCF calculation will be
 performed using Pulay DIIS extrapolation
 Exchange:  wPBE + LR-HF      Correlation:  PBE
 Using SG-1 standard quadrature grid
 SCF converges when DIIS error is below 1.0E-05
 Requested basis set is G3large
 There are 31 shells and 86 basis functions
 A cutoff of  1.0D-08 yielded    496 shell pairs
 There are   3877 function pairs (  5178 Cartesian)
 Warning!  Inaccurate integrated density:
   Number of electrons =    17
   Numerical integral  =    16.000000727468
   Relative error      =    -5.8823486620 %
 ---------------------------------------
  Cycle       Energy         DIIS Error
 ---------------------------------------
    1    -290.3034279039      2.20E-02
    2    -290.5167330261      2.92E-03
    3    -290.5443125962      1.40E-03
    4    -290.5477325893      4.36E-04
    5    -290.5491056394      1.81E-04
    6    -290.5496299018      6.28E-05
    7    -290.5497257342      1.93E-05
    8    -290.5497371900      8.02E-06 Convergence criterion met
 ---------------------------------------
 One-Electron    Energy =  -426.1365788495
 Total Coulomb   Energy =   147.2420643734
 Alpha Exchange  Energy =    -1.9004421394
 Beta  Exchange  Energy =    -1.7417265864
 DFT   Exchange  Energy =   -17.4393857520
 DFT Correlation Energy =    -0.5783454668
 Nuclear Repu.   Energy =    10.0046772306
 Nuclear Attr.   Energy =  -716.1938358602
 Kinetic         Energy =   290.0572570107
 <S^2> = 0.7638
 SCF time:  CPU 13.72 s  wall 14.15 s
 Final Alpha MO Eigenvalues
            1           2           3           4           5           6
    1 -65.3909433  -5.0493144  -3.4528561  -3.4485748  -3.4455894  -0.4279993
            7           8           9          10          11          12
    1  -0.2177738  -0.1192828  -0.0596175   0.1938198   0.2092097   0.2192192
           13          14
    1   0.2251888   0.2280647
 Final Beta MO Eigenvalues
            1           2           3           4           5           6
    1 -65.3888871  -5.0471071  -3.4474830  -3.4458580  -3.4447329  -0.3981390
            7           8           9          10          11          12
    1  -0.2146373  -0.1046037   0.1880626   0.1954683   0.2100793   0.2210309
           13
    1   0.2285996
 Analysis of SCF Wavefunction
 
 --------------------------------------------------------------
                    Orbital Energies (a.u.)
 --------------------------------------------------------------
 
 Alpha MOs
 -- Occupied --
-65.391  -5.049  -3.453  -3.449  -3.446  -0.428  -0.218  -0.119
 -0.060
 -- Virtual --
  0.194   0.209   0.219   0.225   0.228   0.261   0.350   0.387
  0.426   0.429   0.434   0.505   0.542   0.550   0.557   0.579
  0.722   0.748   0.780   0.785   0.787   0.795   0.802   0.828
  1.015   1.028   1.054   1.074   1.086   1.151   1.167   1.290
  1.375   1.388   1.509   1.590   1.625   1.655   1.719   1.808
  2.466   2.469   2.473   2.477   2.482   2.576   2.613   3.145
  3.208   3.852   3.854   3.897   3.999   4.104   4.352   4.363
  4.375   4.377   4.553   4.912   6.048  11.588  11.656  11.670
 17.753  17.818  17.868  17.869  18.126  22.462  22.464  22.467
 22.473  22.476  22.499  22.500 140.890
 
 Beta MOs
 -- Occupied --
-65.389  -5.047  -3.447  -3.446  -3.445  -0.398  -0.215  -0.105
 -- Virtual --
  0.188   0.195   0.210   0.221   0.229   0.275   0.276   0.353
  0.404   0.437   0.463   0.464   0.535   0.546   0.553   0.580
  0.592   0.728   0.753   0.793   0.803   0.808   0.810   0.817
  0.841   1.022   1.034   1.055   1.096   1.107   1.170   1.177
  1.290   1.388   1.400   1.512   1.618   1.629   1.660   1.724
  1.811   2.487   2.492   2.495   2.502   2.505   2.589   2.624
  3.145   3.208   3.860   3.861   3.897   4.011   4.103   4.352
  4.360   4.373   4.376   4.553   4.914   6.051  11.601  11.657
 11.671  17.754  17.825  17.873  17.874  18.127  22.465  22.466
 22.468  22.475  22.478  22.500  22.501 140.893
 --------------------------------------------------------------
 
          Ground-State Mulliken Net Atomic Charges

     Atom                 Charge (a.u.)    Spin (a.u.)
  --------------------------------------------------------
      1 Si                   -0.690267       1.082707
      2 H                    -0.154861      -0.041321
      3 H                    -0.154872      -0.041386
  --------------------------------------------------------
  Sum of atomic charges =    -1.000000
  Sum of spin   charges =     1.000000

 -----------------------------------------------------------------
                    Cartesian Multipole Moments
 -----------------------------------------------------------------
    Charge (ESU x 10^10)
                -4.8032
    Dipole Moment (Debye)
         X       0.0000      Y      -0.0073      Z      -0.0633
       Tot       0.0637
    Quadrupole Moments (Debye-Ang)
        XX     -22.2948     XY       0.0040     YY     -23.9449
        XZ      -0.0001     YZ       0.0207     ZZ     -25.2274
    Octapole Moments (Debye-Ang^2)
       XXX       0.0002    XXY      -0.0103    XYY       0.0000
       YYY      -0.0298    XXZ      -4.7455    XYZ      -0.0042
       YYZ      -0.7695    XZZ       0.0005    YZZ      -0.0075
       ZZZ      -6.7791
    Hexadecapole Moments (Debye-Ang^3)
      XXXX     -69.2712   XXXY       0.0186   XXYY     -23.7576
      XYYY       0.0217   YYYY     -76.1630   XXXZ      -0.0001
      XXYZ       0.0286   XYYZ       0.0000   YYYZ       0.0727
      XXZZ     -27.9379   XYZZ       0.0047   YYZZ     -26.5991
      XZZZ       0.0001   YZZZ       0.0786   ZZZZ     -87.2432
 -----------------------------------------------------------------
 Total job time:  14.26s(wall), 13.82s(cpu) 
 Sun Jul  7 09:39:03 2013

        *************************************************************
        *                                                           *
        *  Thank you very much for using Q-Chem.  Have a nice day.  *
        *                                                           *
        *************************************************************


0 sent ACK to 0 
now end server 0 ... 
 
**********************************************************************
Job 2 of 3 
**********************************************************************
 
Process 0 of 1 is on cl067.stfx.acenet.ca - thread support 1
initial socket setup ...start
initial socket setup ...done 
now start server 0 ... 

cmd = /usr/bin/ssh clhead /usr/local/qchem/bin/get_hostid 844320985 > /scratch/tmp/6063820.1.short.q/qchem23246/lic.dat
                  Welcome to Q-Chem
     A Quantum Leap Into The Future Of Chemistry

 Y. Shao, L. Fusti-Molnar, Y. Jung, J. Kussmann, C. Ochsenfeld,
 S. T. Brown, A. T. B. Gilbert, L. V. Slipchenko,S. V. Levchenko,
 D. P. O'Neill, R. A. DiStasio Jr., R. C. Lochan, T. Wang,
 G. J. O. Beran, N. A. Besley, J. M. Herbert, C. Y. Lin,
 T. Van Voorhis, S. H. Chien, A. Sodt, R. P. Steele, 
 V. A. Rassolov, P. E. Maslen, P. P. Korambath, R. D. Adamson,
 B. Austin, J. Baker, E. F. C. Byrd, H. Dachsel, R. J. Doerksen,
 A. Dreuw, B. D. Dunietz, A. D. Dutoi, T. R. Furlani,
 S. R. Gwaltney, A. Heyden, S. Hirata, C.-P. Hsu, G. Kedziora,
 R. Z. Khaliullin, P. Klunzinger, A. M. Lee, M. S. Lee, W. Liang,
 I. Lotan, N. Nair, B. Peters, E. I. Proynov, P. A. Pieniazek, 
 Y. M. Rhee, J. Ritchie, E. Rosta, C. D. Sherrill, 
 A. C. Simmonett, J. E. Subotnik, H. L. Woodcock III,
 W. Zhang, A. T. Bell, A. K. Chakraborty, D. M. Chipman,
 F. J. Keil, A. Warshel, W. J. Hehre, H. F. Schaefer III,
 J. Kong, A. I. Krylov, P. M. W. Gill, M. Head-Gordon,
 Q-Chem, Version 3.1, Q-Chem, Inc., Pittsburgh, PA (2007).

 Additional authors for Version 3.1: 
 Z. Gan, Y. Zhao, N. E. Schultz, D. Truhlar, E. Epifanovsky and M. Oana.

 Additional authors for Version 3.2: 
 R. Baer, B. R. Brooks, D. Casanova, J.-D. Chai, C.-L. Cheng, 
 C. Cramer, D. Crittenden, A. Ghysels, G. Hawkins, E. G. Hohenstein, 
 C. Kelley, W. Kurlancheek, D. Liotard, E. Livshits, P. Manohar, 
 A. Marenich, D. Neuhauser, R. Olson, M. A. Rohrdanz, K. S. Thanthiriwatte, 
 A. J. W. Thom, V. Vanovschi, C. F. Williams, Q. Wu and Z.-Q. You. 


 Intel X86 Linux Version

 Q-chem begins on Sun Jul  7 09:39:06 2013  

 Parallel job on  1  processors
Processing $rem in /usr/local/qchem/config/preferences.

theFileMan(): MAXOPENFILES=974 MAX_SUB_FILE_NUM=16
Maximum size of a physical file is 2.0 GB, maximum size of a tmp-file is 32.0 GB


--------------------------------------------------------------
User input:
--------------------------------------------------------------

$molecule
0,1
Si         0.00000        0.00000        0.00865
H          1.08915        0.00000        1.06584
H         -1.08915        0.00000        1.06584
$end

$comment
neutral
$end

$xc_functional
C PBE   1.00
X wPBE  1.00
$end


$rem
SYMMETRY_DECOMPOSITION	0
LRC_DFT                 true
exchange 		general
BASIS                   g3large
omega			440
mem_static              760
max_scf_cycles          200
scf_final_print         1
sym_ignore              true
$end

--------------------------------------------------------------
 Writing REM_CC_EA            3
 ----------------------------------------------------
       Standard Nuclear Orientation (Angstroms)
    I     Atom         X            Y            Z
 ----------------------------------------------------
    1      Si      0.000000     0.000000     0.008650
    2      H       1.089150     0.000000     1.065840
    3      H      -1.089150     0.000000     1.065840
 ----------------------------------------------------
 Nuclear Repulsion Energy =    10.0046772308 hartrees
 There are        8 alpha and        8 beta electrons
 Requested basis set is G3large
 There are 31 shells and 86 basis functions

Total QAlloc Memory Limit   2000 MB
Mega-Array Size       743 MB
MEM_STATIC part       760 MB

                       Distance Matrix (Angstroms)
             Si(  1)   H (  2)
   H (  2)  1.517860
   H (  3)  1.517860  2.178300
 
 A cutoff of  1.0D-08 yielded    496 shell pairs
 There are   3877 function pairs (  5178 Cartesian)
Evaluating contribution to one-electron hamiltonian from nuclear
 Smallest overlap matrix eigenvalue = 2.05E-03
 Multipole matrices computed through 2nd order

  Scale SEOQF with 1.000000e-01/1.000000e-01/1.000000e-01

 Standard Electronic Orientation quadrupole field applied
 Nucleus-field energy     =    -0.0000000002 hartrees
 Guess from superposition of atomic densities
 Warning:  Energy on first SCF cycle will be non-variational
 Long-range K will be added via erf
 Coulomb attenuation parameter = 0.44 bohr**(-1)
 A restricted Kohn-Sham SCF calculation will be
 performed using Pulay DIIS extrapolation
 Exchange:  wPBE + LR-HF      Correlation:  PBE
 Using SG-1 standard quadrature grid
 SCF converges when DIIS error is below 1.0E-05
 Requested basis set is G3large
 There are 31 shells and 86 basis functions
 A cutoff of  1.0D-08 yielded    496 shell pairs
 There are   3877 function pairs (  5178 Cartesian)
 ---------------------------------------
  Cycle       Energy         DIIS Error
 ---------------------------------------
    1    -290.3034279039      2.20E-02
    2    -290.4870910401      2.19E-03
    3    -290.4997586453      8.17E-04
    4    -290.5025650224      4.22E-04
    5    -290.5035237071      1.79E-04
    6    -290.5037706598      5.44E-05
    7    -290.5037928655      1.21E-05
    8    -290.5037941190      5.46E-06 Convergence criterion met
 ---------------------------------------
 One-Electron    Energy =  -421.9431950361
 Total Coulomb   Energy =   142.8970832948
 Alpha Exchange  Energy =    -1.7538438406
 Beta  Exchange  Energy =    -1.7538438406
 DFT   Exchange  Energy =   -17.3997755337
 DFT Correlation Energy =    -0.5548963934
 Nuclear Repu.   Energy =    10.0046772306
 Nuclear Attr.   Energy =  -711.9267647730
 Kinetic         Energy =   289.9835697369
 SCF time:  CPU 11.73 s  wall 12.02 s
 Final Alpha MO Eigenvalues
            1           2           3           4           5           6
    1 -65.6659926  -5.3224712  -3.7302251  -3.7195912  -3.7161061  -0.6569431
            7           8           9          10          11          12
    1  -0.4518002  -0.3516824  -0.0308455   0.0556390   0.0710792   0.0844258
           13
    1   0.0903162
 Analysis of SCF Wavefunction
 
 --------------------------------------------------------------
                    Orbital Energies (a.u.)
 --------------------------------------------------------------
 
 Alpha MOs
 -- Occupied --
-65.666  -5.322  -3.730  -3.720  -3.716  -0.657  -0.452  -0.352
 -- Virtual --
 -0.031   0.056   0.071   0.084   0.090   0.091   0.115   0.162
  0.202   0.228   0.234   0.237   0.325   0.351   0.359   0.369
  0.397   0.514   0.546   0.572   0.578   0.580   0.588   0.595
  0.621   0.804   0.820   0.822   0.835   0.846   0.917   0.943
  1.076   1.150   1.165   1.286   1.350   1.391   1.417   1.497
  1.582   2.210   2.215   2.218   2.223   2.229   2.327   2.365
  2.916   2.977   3.580   3.583   3.637   3.727   3.857   4.120
  4.133   4.145   4.146   4.321   4.671   5.784  11.317  11.387
 11.401  17.484  17.543  17.593  17.595  17.857  22.185  22.191
 22.193  22.200  22.203  22.228  22.230 140.617
 --------------------------------------------------------------
 
          Ground-State Mulliken Net Atomic Charges

     Atom                 Charge (a.u.)
  ----------------------------------------
      1 Si                    0.096920
      2 H                    -0.048462
      3 H                    -0.048459
  ----------------------------------------
  Sum of atomic charges =     0.000000

 -----------------------------------------------------------------
                    Cartesian Multipole Moments
 -----------------------------------------------------------------
    Charge (ESU x 10^10)
                 0.0000
    Dipole Moment (Debye)
         X       0.0000      Y      -0.0020      Z       0.3132
       Tot       0.3132
    Quadrupole Moments (Debye-Ang)
        XX     -15.9344     XY      -0.0004     YY     -12.2737
        XZ       0.0000     YZ       0.0048     ZZ     -17.9513
    Octapole Moments (Debye-Ang^2)
       XXX      -0.0001    XXY       0.0000    XYY       0.0000
       YYY      -0.0058    XXZ      -3.1143    XYZ      -0.0002
       YYZ      -1.1452    XZZ       0.0000    YZZ       0.0011
       ZZZ      -6.1582
    Hexadecapole Moments (Debye-Ang^3)
      XXXX     -41.9713   XXXY      -0.0007   XXYY      -9.8447
      XYYY      -0.0006   YYYY     -16.7214   XXXZ      -0.0001
      XXYZ       0.0038   XYYZ       0.0000   YYYZ       0.0085
      XXZZ     -15.3887   XYZZ      -0.0003   YYZZ     -11.1471
      XZZZ       0.0000   YZZZ       0.0092   ZZZZ     -50.0448
 -----------------------------------------------------------------
 Total job time:  12.12s(wall), 11.82s(cpu) 
 Sun Jul  7 09:39:19 2013

        *************************************************************
        *                                                           *
        *  Thank you very much for using Q-Chem.  Have a nice day.  *
        *                                                           *
        *************************************************************


0 sent ACK to 0 
now end server 0 ... 
 
**********************************************************************
Job 3 of 3 
**********************************************************************
 
Process 0 of 1 is on cl067.stfx.acenet.ca - thread support 1
initial socket setup ...start
initial socket setup ...done 
now start server 0 ... 

cmd = /usr/bin/ssh clhead /usr/local/qchem/bin/get_hostid 264613495 > /scratch/tmp/6063820.1.short.q/qchem23246/lic.dat
                  Welcome to Q-Chem
     A Quantum Leap Into The Future Of Chemistry

 Y. Shao, L. Fusti-Molnar, Y. Jung, J. Kussmann, C. Ochsenfeld,
 S. T. Brown, A. T. B. Gilbert, L. V. Slipchenko,S. V. Levchenko,
 D. P. O'Neill, R. A. DiStasio Jr., R. C. Lochan, T. Wang,
 G. J. O. Beran, N. A. Besley, J. M. Herbert, C. Y. Lin,
 T. Van Voorhis, S. H. Chien, A. Sodt, R. P. Steele, 
 V. A. Rassolov, P. E. Maslen, P. P. Korambath, R. D. Adamson,
 B. Austin, J. Baker, E. F. C. Byrd, H. Dachsel, R. J. Doerksen,
 A. Dreuw, B. D. Dunietz, A. D. Dutoi, T. R. Furlani,
 S. R. Gwaltney, A. Heyden, S. Hirata, C.-P. Hsu, G. Kedziora,
 R. Z. Khaliullin, P. Klunzinger, A. M. Lee, M. S. Lee, W. Liang,
 I. Lotan, N. Nair, B. Peters, E. I. Proynov, P. A. Pieniazek, 
 Y. M. Rhee, J. Ritchie, E. Rosta, C. D. Sherrill, 
 A. C. Simmonett, J. E. Subotnik, H. L. Woodcock III,
 W. Zhang, A. T. Bell, A. K. Chakraborty, D. M. Chipman,
 F. J. Keil, A. Warshel, W. J. Hehre, H. F. Schaefer III,
 J. Kong, A. I. Krylov, P. M. W. Gill, M. Head-Gordon,
 Q-Chem, Version 3.1, Q-Chem, Inc., Pittsburgh, PA (2007).

 Additional authors for Version 3.1: 
 Z. Gan, Y. Zhao, N. E. Schultz, D. Truhlar, E. Epifanovsky and M. Oana.

 Additional authors for Version 3.2: 
 R. Baer, B. R. Brooks, D. Casanova, J.-D. Chai, C.-L. Cheng, 
 C. Cramer, D. Crittenden, A. Ghysels, G. Hawkins, E. G. Hohenstein, 
 C. Kelley, W. Kurlancheek, D. Liotard, E. Livshits, P. Manohar, 
 A. Marenich, D. Neuhauser, R. Olson, M. A. Rohrdanz, K. S. Thanthiriwatte, 
 A. J. W. Thom, V. Vanovschi, C. F. Williams, Q. Wu and Z.-Q. You. 


 Intel X86 Linux Version

 Q-chem begins on Sun Jul  7 09:39:22 2013  

 Parallel job on  1  processors
Processing $rem in /usr/local/qchem/config/preferences.

theFileMan(): MAXOPENFILES=974 MAX_SUB_FILE_NUM=16
Maximum size of a physical file is 2.0 GB, maximum size of a tmp-file is 32.0 GB


--------------------------------------------------------------
User input:
--------------------------------------------------------------

$molecule
1,2
Si         0.00000        0.00000        0.00865
H          1.08915        0.00000        1.06584
H         -1.08915        0.00000        1.06584
$end

$comment
positive
$end

$xc_functional
C PBE   1.00
X wPBE  1.00
$end

$rem
SYMMETRY_DECOMPOSITION	0
LRC_DFT                 true
exchange 		general
BASIS                   g3large
omega			440
mem_static              760
max_scf_cycles          200
scf_final_print         1
sym_ignore              true
$end

--------------------------------------------------------------
 Writing REM_CC_EA            3
 ----------------------------------------------------
       Standard Nuclear Orientation (Angstroms)
    I     Atom         X            Y            Z
 ----------------------------------------------------
    1      Si      0.000000     0.000000     0.008650
    2      H       1.089150     0.000000     1.065840
    3      H      -1.089150     0.000000     1.065840
 ----------------------------------------------------
 Nuclear Repulsion Energy =    10.0046772308 hartrees
 There are        8 alpha and        7 beta electrons
 Requested basis set is G3large
 There are 31 shells and 86 basis functions

Total QAlloc Memory Limit   2000 MB
Mega-Array Size       743 MB
MEM_STATIC part       760 MB

                       Distance Matrix (Angstroms)
             Si(  1)   H (  2)
   H (  2)  1.517860
   H (  3)  1.517860  2.178300
 
 A cutoff of  1.0D-08 yielded    496 shell pairs
 There are   3877 function pairs (  5178 Cartesian)
Evaluating contribution to one-electron hamiltonian from nuclear
 Smallest overlap matrix eigenvalue = 2.05E-03
 Multipole matrices computed through 2nd order

  Scale SEOQF with 1.000000e-01/1.000000e-01/1.000000e-01

 Standard Electronic Orientation quadrupole field applied
 Nucleus-field energy     =    -0.0000000002 hartrees
 Guess from superposition of atomic densities
 Warning:  Energy on first SCF cycle will be non-variational
 Long-range K will be added via erf
 Coulomb attenuation parameter = 0.44 bohr**(-1)
 An unrestricted Kohn-Sham SCF calculation will be
 performed using Pulay DIIS extrapolation
 Exchange:  wPBE + LR-HF      Correlation:  PBE
 Using SG-1 standard quadrature grid
 SCF converges when DIIS error is below 1.0E-05
 Requested basis set is G3large
 There are 31 shells and 86 basis functions
 A cutoff of  1.0D-08 yielded    496 shell pairs
 There are   3877 function pairs (  5178 Cartesian)
 Warning!  Inaccurate integrated density:
   Number of electrons =    15
   Numerical integral  =    16.000000727468
   Relative error      =     6.6666715165 %
 ---------------------------------------
  Cycle       Energy         DIIS Error
 ---------------------------------------
    1    -290.3034279039      2.20E-02
    2    -290.1081900189      4.12E-03
    3    -290.1530043294      1.71E-03
    4    -290.1571956238      5.91E-04
    5    -290.1586643070      2.52E-04
    6    -290.1591945328      9.00E-05
    7    -290.1592689491      1.82E-05
    8    -290.1592727783      6.89E-06 Convergence criterion met
 ---------------------------------------
 One-Electron    Energy =  -416.7194004670
 Total Coulomb   Energy =   137.7564581196
 Alpha Exchange  Energy =    -1.7709414815
 Beta  Exchange  Energy =    -1.5808578694
 DFT   Exchange  Energy =   -17.3285837466
 DFT Correlation Energy =    -0.5206245641
 Nuclear Repu.   Energy =    10.0046772306
 Nuclear Attr.   Energy =  -706.3409040036
 Kinetic         Energy =   289.6215035366
 <S^2> = 0.7552
 SCF time:  CPU 13.22 s  wall 13.63 s
 Final Alpha MO Eigenvalues
            1           2           3           4           5           6
    1 -66.0184974  -5.6703215  -4.0777401  -4.0698273  -4.0641757  -0.9630122
            7           8           9          10          11          12
    1  -0.7382762  -0.6929738  -0.3008412  -0.1581103  -0.1149162  -0.0753181
           13
    1  -0.0670853
 Final Beta MO Eigenvalues
            1           2           3           4           5           6
    1 -66.0152375  -5.6663626  -4.0749436  -4.0619766  -4.0606214  -0.9198838
            7           8           9          10          11          12
    1  -0.7189155  -0.3363834  -0.2775616  -0.1174894  -0.1093550  -0.0687149
 Analysis of SCF Wavefunction
 
 --------------------------------------------------------------
                    Orbital Energies (a.u.)
 --------------------------------------------------------------
 
 Alpha MOs
 -- Occupied --
-66.018  -5.670  -4.078  -4.070  -4.064  -0.963  -0.738  -0.693
 -- Virtual --
 -0.301  -0.158  -0.115  -0.075  -0.067  -0.064  -0.061  -0.028
 -0.016  -0.010  -0.006   0.006   0.114   0.139   0.145   0.157
  0.186   0.266   0.310   0.326   0.337   0.338   0.343   0.353
  0.386   0.523   0.541   0.550   0.553   0.570   0.635   0.677
  0.820   0.891   0.906   1.016   1.061   1.082   1.121   1.232
  1.304   1.884   1.890   1.890   1.901   1.902   2.010   2.045
  2.626   2.687   3.241   3.250   3.299   3.398   3.540   3.830
  3.841   3.854   3.855   4.028   4.362   5.445  10.974  11.036
 11.060  17.134  17.196  17.243  17.249  17.508  21.838  21.843
 21.847  21.853  21.856  21.881  21.881 140.265
 
 Beta MOs
 -- Occupied --
-66.015  -5.666  -4.075  -4.062  -4.061  -0.920  -0.719
 -- Virtual --
 -0.336  -0.278  -0.117  -0.109  -0.069  -0.063  -0.059  -0.056
 -0.004  -0.002  -0.001   0.014   0.019   0.122   0.147   0.160
  0.163   0.199   0.282   0.322   0.339   0.346   0.347   0.355
  0.363   0.395   0.546   0.559   0.571   0.572   0.589   0.651
  0.689   0.834   0.902   0.918   1.031   1.073   1.114   1.135
  1.247   1.322   1.913   1.916   1.922   1.926   1.933   2.038
  2.073   2.649   2.709   3.254   3.254   3.309   3.407   3.555
  3.852   3.863   3.876   3.878   4.049   4.382   5.457  10.978
 11.051  11.063  17.142  17.200  17.251  17.251  17.515  21.840
 21.847  21.848  21.855  21.859  21.884  21.885 140.269
 --------------------------------------------------------------
 
          Ground-State Mulliken Net Atomic Charges

     Atom                 Charge (a.u.)    Spin (a.u.)
  --------------------------------------------------------
      1 Si                    0.758040       0.764238
      2 H                     0.121070       0.118811
      3 H                     0.120890       0.116951
  --------------------------------------------------------
  Sum of atomic charges =     1.000000
  Sum of spin   charges =     1.000000

 -----------------------------------------------------------------
                    Cartesian Multipole Moments
 -----------------------------------------------------------------
    Charge (ESU x 10^10)
                 4.8032
    Dipole Moment (Debye)
         X       0.0008      Y      -0.0032      Z       0.1834
       Tot       0.1834
    Quadrupole Moments (Debye-Ang)
        XX     -10.8026     XY      -0.0001     YY      -8.8344
        XZ       0.0042     YZ       0.0066     ZZ      -9.9207
    Octapole Moments (Debye-Ang^2)
       XXX       0.0020    XXY       0.0003    XYY      -0.0001
       YYY      -0.0050    XXZ      -0.7971    XYZ       0.0000
       YYZ      -2.0618    XZZ       0.0034    YZZ      -0.0010
       ZZZ      -3.7422
    Hexadecapole Moments (Debye-Ang^3)
      XXXX     -26.3797   XXXY       0.0000   XXYY      -6.4222
      XYYY       0.0000   YYYY      -8.8520   XXXZ       0.0070
      XXYZ       0.0035   XYYZ       0.0017   YYYZ       0.0083
      XXZZ      -6.0322   XYZZ      -0.0001   YYZZ      -5.9793
      XZZZ       0.0074   YZZZ       0.0090   ZZZZ     -23.2036
 -----------------------------------------------------------------
 Total job time:  13.73s(wall), 13.31s(cpu) 
 Sun Jul  7 09:39:36 2013

        *************************************************************
        *                                                           *
        *  Thank you very much for using Q-Chem.  Have a nice day.  *
        *                                                           *
        *************************************************************


0 sent ACK to 0 
now end server 0 ... 
