Process 0 of 1 is on cl064.stfx.acenet.ca - thread support 1
initial socket setup ...start
initial socket setup ...done 
now start server 0 ... 

cmd = /usr/bin/ssh clhead /usr/local/qchem/bin/get_hostid 1894668514 > /scratch/tmp/6065152.1.short.q/qchem3092/lic.dat
                  Welcome to Q-Chem
     A Quantum Leap Into The Future Of Chemistry

 Y. Shao, L. Fusti-Molnar, Y. Jung, J. Kussmann, C. Ochsenfeld,
 S. T. Brown, A. T. B. Gilbert, L. V. Slipchenko,S. V. Levchenko,
 D. P. O'Neill, R. A. DiStasio Jr., R. C. Lochan, T. Wang,
 G. J. O. Beran, N. A. Besley, J. M. Herbert, C. Y. Lin,
 T. Van Voorhis, S. H. Chien, A. Sodt, R. P. Steele, 
 V. A. Rassolov, P. E. Maslen, P. P. Korambath, R. D. Adamson,
 B. Austin, J. Baker, E. F. C. Byrd, H. Dachsel, R. J. Doerksen,
 A. Dreuw, B. D. Dunietz, A. D. Dutoi, T. R. Furlani,
 S. R. Gwaltney, A. Heyden, S. Hirata, C.-P. Hsu, G. Kedziora,
 R. Z. Khaliullin, P. Klunzinger, A. M. Lee, M. S. Lee, W. Liang,
 I. Lotan, N. Nair, B. Peters, E. I. Proynov, P. A. Pieniazek, 
 Y. M. Rhee, J. Ritchie, E. Rosta, C. D. Sherrill, 
 A. C. Simmonett, J. E. Subotnik, H. L. Woodcock III,
 W. Zhang, A. T. Bell, A. K. Chakraborty, D. M. Chipman,
 F. J. Keil, A. Warshel, W. J. Hehre, H. F. Schaefer III,
 J. Kong, A. I. Krylov, P. M. W. Gill, M. Head-Gordon,
 Q-Chem, Version 3.1, Q-Chem, Inc., Pittsburgh, PA (2007).

 Additional authors for Version 3.1: 
 Z. Gan, Y. Zhao, N. E. Schultz, D. Truhlar, E. Epifanovsky and M. Oana.

 Additional authors for Version 3.2: 
 R. Baer, B. R. Brooks, D. Casanova, J.-D. Chai, C.-L. Cheng, 
 C. Cramer, D. Crittenden, A. Ghysels, G. Hawkins, E. G. Hohenstein, 
 C. Kelley, W. Kurlancheek, D. Liotard, E. Livshits, P. Manohar, 
 A. Marenich, D. Neuhauser, R. Olson, M. A. Rohrdanz, K. S. Thanthiriwatte, 
 A. J. W. Thom, V. Vanovschi, C. F. Williams, Q. Wu and Z.-Q. You. 


 Intel X86 Linux Version

 Q-chem begins on Mon Jul  8 16:55:49 2013  

 Parallel job on  1  processors
Processing $rem in /usr/local/qchem/config/preferences.

theFileMan(): MAXOPENFILES=974 MAX_SUB_FILE_NUM=16
Maximum size of a physical file is 2.0 GB, maximum size of a tmp-file is 32.0 GB


--------------------------------------------------------------
User input:
--------------------------------------------------------------

$molecule
-1,2
N         -0.00002        0.00000       -0.02016
F          1.20897        0.00000       -0.60646
F         -0.60449       -1.04702       -0.60646
F         -0.60449        1.04702       -0.60646
$end

$comment
negative
$end

$xc_functional
C PBE   1.00
X wPBE  1.00
$end

$rem
SYMMETRY_DECOMPOSITION	0
exchange 		general
LRC_DFT                 true
BASIS                   g3large
omega			550
mem_static              760
max_scf_cycles          200
scf_final_print         1
sym_ignore              true
$end

--------------------------------------------------------------
 Writing REM_CC_EA            4
 ----------------------------------------------------
       Standard Nuclear Orientation (Angstroms)
    I     Atom         X            Y            Z
 ----------------------------------------------------
    1      N      -0.000020     0.000000    -0.020160
    2      F       1.208970     0.000000    -0.606460
    3      F      -0.604490    -1.047020    -0.606460
    4      F      -0.604490     1.047020    -0.606460
 ----------------------------------------------------
 Nuclear Repulsion Energy =   135.8432244769 hartrees
 There are       18 alpha and       17 beta electrons
 Requested basis set is G3large
 There are 40 shells and 168 basis functions

Total QAlloc Memory Limit   2000 MB
Mega-Array Size       743 MB
MEM_STATIC part       760 MB

                       Distance Matrix (Angstroms)
             N (  1)   F (  2)   F (  3)
   F (  2)  1.343653
   F (  3)  1.343645  2.094012
   F (  4)  1.343645  2.094012  2.094040
 
 A cutoff of  1.0D-08 yielded    709 shell pairs
 There are  12942 function pairs ( 16926 Cartesian)
Evaluating contribution to one-electron hamiltonian from nuclear
 Smallest overlap matrix eigenvalue = 1.78E-03
 Multipole matrices computed through 2nd order

  Scale SEOQF with 1.000000e-01/1.000000e-01/1.000000e-01

 Standard Electronic Orientation quadrupole field applied
 Nucleus-field energy     =     0.0000000010 hartrees
 Guess from superposition of atomic densities
 Warning:  Energy on first SCF cycle will be non-variational
 Long-range K will be added via erf
 Coulomb attenuation parameter = 0.55 bohr**(-1)
 An unrestricted Kohn-Sham SCF calculation will be
 performed using Pulay DIIS extrapolation
 Exchange:  wPBE + LR-HF      Correlation:  PBE
 Using SG-1 standard quadrature grid
 SCF converges when DIIS error is below 1.0E-05
 Requested basis set is G3large
 There are 40 shells and 168 basis functions
 A cutoff of  1.0D-08 yielded    709 shell pairs
 There are  12942 function pairs ( 16926 Cartesian)
 Warning!  Inaccurate integrated density:
   Number of electrons =    35
   Numerical integral  =    34.000286405006
   Relative error      =    -2.8563245571 %
 ---------------------------------------
  Cycle       Energy         DIIS Error
 ---------------------------------------
    1    -354.6180812003      3.04E-02
    2    -353.7851769986      7.25E-03
    3    -353.8116821410      6.87E-03
    4    -353.9041652931      6.43E-04
    5    -353.9056977012      1.83E-04
    6    -353.9061066708      1.73E-04
    7    -353.9062824743      7.65E-05
    8    -353.9064371414      6.18E-05
    9    -353.9065775962      5.25E-05
   10    -353.9066804303      2.89E-05
   11    -353.9067338896      1.24E-05
   12    -353.9067408768      7.51E-06 Convergence criterion met
 ---------------------------------------
 One-Electron    Energy =  -769.5821570574
 Total Coulomb   Energy =   318.0604443401
 Alpha Exchange  Energy =    -4.7874210167
 Beta  Exchange  Energy =    -4.6307583313
 DFT   Exchange  Energy =   -27.6057246371
 DFT Correlation Energy =    -1.2043486524
 Nuclear Repu.   Energy =   135.8432244780
 Nuclear Attr.   Energy = -1123.4503675310
 Kinetic         Energy =   353.8682104737
 <S^2> = 0.7543
 SCF time:  CPU 71.68 s  wall 72.15 s
 Final Alpha MO Eigenvalues
            1           2           3           4           5           6
    1 -24.3839527 -24.3722885 -24.3613743 -14.2962704  -1.3621636  -1.2148510
            7           8           9          10          11          12
    1  -1.2067183  -0.7747354  -0.5844075  -0.5776745  -0.5384643  -0.4418992
           13          14          15          16          17          18
    1  -0.4396716  -0.3884768  -0.3818200  -0.3685741  -0.2627640   0.1044698
           19          20          21          22          23
    1   0.2712501   0.3014394   0.3190300   0.3649224   0.4107832
 Final Beta MO Eigenvalues
            1           2           3           4           5           6
    1 -24.3829772 -24.3699517 -24.3579854 -14.2884460  -1.3547920  -1.2110121
            7           8           9          10          11          12
    1  -1.1969112  -0.7645651  -0.5742401  -0.5603768  -0.5334323  -0.4337757
           13          14          15          16          17          18
    1  -0.4328385  -0.3864334  -0.3781244  -0.3628925  -0.2465595   0.2835394
           19          20          21          22
    1   0.3060596   0.3079011   0.3268444   0.4236685
 Analysis of SCF Wavefunction
 
 --------------------------------------------------------------
                    Orbital Energies (a.u.)
 --------------------------------------------------------------
 
 Alpha MOs
 -- Occupied --
-24.384 -24.372 -24.361 -14.296  -1.362  -1.215  -1.207  -0.775
 -0.584  -0.578  -0.538  -0.442  -0.440  -0.388  -0.382  -0.369
 -0.263   0.104
 -- Virtual --
  0.271   0.301   0.319   0.365   0.411   0.424   0.452   0.469
  0.499   0.506   0.521   0.576   0.592   0.596   0.597   0.669
  0.714   0.716   1.061   1.064   1.101   1.353   1.364   1.365
  1.541   1.548   1.603   1.620   1.623   1.689   1.719   1.743
  1.764   1.767   2.010   2.011   2.189   2.195   2.244   2.305
  2.348   2.356   2.424   2.467   2.471   2.569   2.571   2.580
  2.966   2.968   3.061   3.083   3.084   3.225   3.991   4.188
  4.190   4.208   4.384   4.388   4.407   4.776   4.865   4.868
  5.258   5.315   5.319   5.363   5.364   6.483   6.486   6.498
  6.559   6.593   6.596   6.910   6.911   6.951   6.952   6.958
  6.961   6.964   6.965   6.968   6.973   6.979   6.986   7.183
  7.185   7.215   7.338   7.473   7.477   7.635   7.638   7.645
  7.761   8.261   8.268   9.374   9.382   9.404   9.416   9.426
  9.434   9.703   9.727   9.733   9.891   9.952   9.957  10.121
 10.353  10.361  35.638  37.710  38.239  38.242  40.606  40.635
 40.716  40.830  40.857  50.349  50.352  50.371  50.382  50.400
 50.404  50.464  50.478  50.491  50.553  50.572  50.578  50.688
 50.706  50.723  55.840  55.844  55.851  55.912  55.919  55.923
 56.234  56.426  56.438  66.856  66.869  66.930
 
 Beta MOs
 -- Occupied --
-24.383 -24.370 -24.358 -14.288  -1.355  -1.211  -1.197  -0.765
 -0.574  -0.560  -0.533  -0.434  -0.433  -0.386  -0.378  -0.363
 -0.247
 -- Virtual --
  0.284   0.306   0.308   0.327   0.424   0.433   0.448   0.473
  0.483   0.512   0.515   0.525   0.579   0.599   0.599   0.603
  0.670   0.715   0.720   1.070   1.084   1.106   1.357   1.373
  1.376   1.543   1.555   1.606   1.623   1.626   1.694   1.729
  1.745   1.766   1.771   2.018   2.022   2.190   2.198   2.245
  2.308   2.349   2.358   2.428   2.474   2.477   2.570   2.576
  2.582   2.972   2.979   3.064   3.088   3.095   3.230   3.996
  4.197   4.201   4.216   4.390   4.402   4.422   4.787   4.872
  4.888   5.270   5.330   5.345   5.386   5.393   6.485   6.489
  6.501   6.563   6.595   6.602   6.914   6.915   6.953   6.954
  6.959   6.964   6.966   6.968   6.971   6.976   6.983   6.990
  7.187   7.190   7.218   7.342   7.478   7.482   7.639   7.643
  7.652   7.769   8.266   8.276   9.378   9.386   9.410   9.420
  9.432   9.440   9.708   9.730   9.741   9.896   9.957   9.963
 10.126  10.356  10.369  35.646  37.713  38.248  38.262  40.611
 40.652  40.730  40.840  40.870  50.352  50.355  50.374  50.384
 50.402  50.406  50.467  50.480  50.494  50.557  50.574  50.583
 50.691  50.707  50.729  55.842  55.847  55.854  55.914  55.921
 55.927  56.237  56.428  56.442  66.857  66.872  66.933
 --------------------------------------------------------------
 
          Ground-State Mulliken Net Atomic Charges

     Atom                 Charge (a.u.)    Spin (a.u.)
  --------------------------------------------------------
      1 N                    -1.351198       1.516858
      2 F                     0.105432      -0.160517
      3 F                     0.020673      -0.098713
      4 F                     0.225093      -0.257627
  --------------------------------------------------------
  Sum of atomic charges =    -1.000000
  Sum of spin   charges =     1.000000

 -----------------------------------------------------------------
                    Cartesian Multipole Moments
 -----------------------------------------------------------------
    Charge (ESU x 10^10)
                -4.8032
    Dipole Moment (Debye)
         X       0.2944      Y      -0.6077      Z       0.0844
       Tot       0.6805
    Quadrupole Moments (Debye-Ang)
        XX     -31.8631     XY       4.2005     YY     -30.7803
        XZ       0.0444     YZ       1.4315     ZZ     -28.0602
    Octapole Moments (Debye-Ang^2)
       XXX      -0.1336    XXY      -1.6125    XYY       2.4164
       YYY      -4.6837    XXZ       9.4687    XYZ       0.6154
       YYZ       9.9777    XZZ       0.4935    YZZ      -1.8198
       ZZZ      26.6531
    Hexadecapole Moments (Debye-Ang^3)
      XXXX    -144.3356   XXXY      17.5120   XXYY     -46.4912
      XYYY      19.2703   YYYY    -135.0724   XXXZ       2.4103
      XXYZ       2.3419   XYYZ      -2.4140   YYYZ       6.9664
      XXZZ     -38.9276   XYZZ       7.3991   YYZZ     -37.1769
      XZZZ      -0.2776   YZZZ       4.7995   ZZZZ     -77.3472
 -----------------------------------------------------------------
 Total job time:  72.35s(wall), 71.87s(cpu) 
 Mon Jul  8 16:57:01 2013

        *************************************************************
        *                                                           *
        *  Thank you very much for using Q-Chem.  Have a nice day.  *
        *                                                           *
        *************************************************************


0 sent ACK to 0 
now end server 0 ... 
 
**********************************************************************
Job 2 of 3 
**********************************************************************
 
Process 0 of 1 is on cl064.stfx.acenet.ca - thread support 1
initial socket setup ...start
initial socket setup ...done 
now start server 0 ... 

cmd = /usr/bin/ssh clhead /usr/local/qchem/bin/get_hostid 567191740 > /scratch/tmp/6065152.1.short.q/qchem3092/lic.dat
                  Welcome to Q-Chem
     A Quantum Leap Into The Future Of Chemistry

 Y. Shao, L. Fusti-Molnar, Y. Jung, J. Kussmann, C. Ochsenfeld,
 S. T. Brown, A. T. B. Gilbert, L. V. Slipchenko,S. V. Levchenko,
 D. P. O'Neill, R. A. DiStasio Jr., R. C. Lochan, T. Wang,
 G. J. O. Beran, N. A. Besley, J. M. Herbert, C. Y. Lin,
 T. Van Voorhis, S. H. Chien, A. Sodt, R. P. Steele, 
 V. A. Rassolov, P. E. Maslen, P. P. Korambath, R. D. Adamson,
 B. Austin, J. Baker, E. F. C. Byrd, H. Dachsel, R. J. Doerksen,
 A. Dreuw, B. D. Dunietz, A. D. Dutoi, T. R. Furlani,
 S. R. Gwaltney, A. Heyden, S. Hirata, C.-P. Hsu, G. Kedziora,
 R. Z. Khaliullin, P. Klunzinger, A. M. Lee, M. S. Lee, W. Liang,
 I. Lotan, N. Nair, B. Peters, E. I. Proynov, P. A. Pieniazek, 
 Y. M. Rhee, J. Ritchie, E. Rosta, C. D. Sherrill, 
 A. C. Simmonett, J. E. Subotnik, H. L. Woodcock III,
 W. Zhang, A. T. Bell, A. K. Chakraborty, D. M. Chipman,
 F. J. Keil, A. Warshel, W. J. Hehre, H. F. Schaefer III,
 J. Kong, A. I. Krylov, P. M. W. Gill, M. Head-Gordon,
 Q-Chem, Version 3.1, Q-Chem, Inc., Pittsburgh, PA (2007).

 Additional authors for Version 3.1: 
 Z. Gan, Y. Zhao, N. E. Schultz, D. Truhlar, E. Epifanovsky and M. Oana.

 Additional authors for Version 3.2: 
 R. Baer, B. R. Brooks, D. Casanova, J.-D. Chai, C.-L. Cheng, 
 C. Cramer, D. Crittenden, A. Ghysels, G. Hawkins, E. G. Hohenstein, 
 C. Kelley, W. Kurlancheek, D. Liotard, E. Livshits, P. Manohar, 
 A. Marenich, D. Neuhauser, R. Olson, M. A. Rohrdanz, K. S. Thanthiriwatte, 
 A. J. W. Thom, V. Vanovschi, C. F. Williams, Q. Wu and Z.-Q. You. 


 Intel X86 Linux Version

 Q-chem begins on Mon Jul  8 16:57:05 2013  

 Parallel job on  1  processors
Processing $rem in /usr/local/qchem/config/preferences.

theFileMan(): MAXOPENFILES=974 MAX_SUB_FILE_NUM=16
Maximum size of a physical file is 2.0 GB, maximum size of a tmp-file is 32.0 GB


--------------------------------------------------------------
User input:
--------------------------------------------------------------

$molecule
0,1
N         -0.00002        0.00000       -0.02016
F          1.20897        0.00000       -0.60646
F         -0.60449       -1.04702       -0.60646
F         -0.60449        1.04702       -0.60646
$end

$comment
neutral
$end

$xc_functional
C PBE   1.00
X wPBE  1.00
$end


$rem
SYMMETRY_DECOMPOSITION	0
LRC_DFT                 true
exchange 		general
BASIS                   g3large
omega			550
mem_static              760
max_scf_cycles          200
scf_final_print         1
sym_ignore              true
$end

--------------------------------------------------------------
 Writing REM_CC_EA            4
 ----------------------------------------------------
       Standard Nuclear Orientation (Angstroms)
    I     Atom         X            Y            Z
 ----------------------------------------------------
    1      N      -0.000020     0.000000    -0.020160
    2      F       1.208970     0.000000    -0.606460
    3      F      -0.604490    -1.047020    -0.606460
    4      F      -0.604490     1.047020    -0.606460
 ----------------------------------------------------
 Nuclear Repulsion Energy =   135.8432244769 hartrees
 There are       17 alpha and       17 beta electrons
 Requested basis set is G3large
 There are 40 shells and 168 basis functions

Total QAlloc Memory Limit   2000 MB
Mega-Array Size       743 MB
MEM_STATIC part       760 MB

                       Distance Matrix (Angstroms)
             N (  1)   F (  2)   F (  3)
   F (  2)  1.343653
   F (  3)  1.343645  2.094012
   F (  4)  1.343645  2.094012  2.094040
 
 A cutoff of  1.0D-08 yielded    709 shell pairs
 There are  12942 function pairs ( 16926 Cartesian)
Evaluating contribution to one-electron hamiltonian from nuclear
 Smallest overlap matrix eigenvalue = 1.78E-03
 Multipole matrices computed through 2nd order

  Scale SEOQF with 1.000000e-01/1.000000e-01/1.000000e-01

 Standard Electronic Orientation quadrupole field applied
 Nucleus-field energy     =     0.0000000010 hartrees
 Guess from superposition of atomic densities
 Warning:  Energy on first SCF cycle will be non-variational
 Long-range K will be added via erf
 Coulomb attenuation parameter = 0.55 bohr**(-1)
 A restricted Kohn-Sham SCF calculation will be
 performed using Pulay DIIS extrapolation
 Exchange:  wPBE + LR-HF      Correlation:  PBE
 Using SG-1 standard quadrature grid
 SCF converges when DIIS error is below 1.0E-05
 Requested basis set is G3large
 There are 40 shells and 168 basis functions
 A cutoff of  1.0D-08 yielded    709 shell pairs
 There are  12942 function pairs ( 16926 Cartesian)
 ---------------------------------------
  Cycle       Energy         DIIS Error
 ---------------------------------------
    1    -354.6180812003      3.04E-02
    2    -353.8354671849      8.75E-03
    3    -353.8575281912      9.09E-03
    4    -354.0201086517      7.77E-04
    5    -354.0215696372      2.47E-04
    6    -354.0218568115      6.96E-05
    7    -354.0219093254      1.97E-05
    8    -354.0219129345      1.04E-05
    9    -354.0219134281      3.33E-06 Convergence criterion met
 ---------------------------------------
 One-Electron    Energy =  -761.0864351411
 Total Coulomb   Energy =   309.2072640975
 Alpha Exchange  Energy =    -4.6422112677
 Beta  Exchange  Energy =    -4.6422112677
 DFT   Exchange  Energy =   -27.5169979476
 DFT Correlation Energy =    -1.1845463794
 Nuclear Repu.   Energy =   135.8432244780
 Nuclear Attr.   Energy = -1114.3495267764
 Kinetic         Energy =   353.2630916354
 SCF time:  CPU 41.82 s  wall 42.23 s
 Final Alpha MO Eigenvalues
            1           2           3           4           5           6
    1 -24.6298241 -24.6298127 -24.6297890 -14.5938387  -1.6169884  -1.4595930
            7           8           9          10          11          12
    1  -1.4595924  -1.0219160  -0.8240694  -0.8240655  -0.7903896  -0.6811592
           13          14          15          16          17          18
    1  -0.6811489  -0.6283655  -0.6283535  -0.6125140  -0.5152784   0.1169871
           19          20          21          22
    1   0.1252457   0.1252514   0.1449769   0.1845152
 Analysis of SCF Wavefunction
 
 --------------------------------------------------------------
                    Orbital Energies (a.u.)
 --------------------------------------------------------------
 
 Alpha MOs
 -- Occupied --
-24.630 -24.630 -24.630 -14.594  -1.617  -1.460  -1.460  -1.022
 -0.824  -0.824  -0.790  -0.681  -0.681  -0.628  -0.628  -0.613
 -0.515
 -- Virtual --
  0.117   0.125   0.125   0.145   0.185   0.195   0.195   0.294
  0.294   0.325   0.325   0.335   0.405   0.407   0.424   0.425
  0.479   0.521   0.521   0.837   0.837   0.865   1.107   1.115
  1.115   1.330   1.330   1.386   1.400   1.400   1.460   1.494
  1.523   1.546   1.546   1.766   1.766   1.963   1.964   2.003
  2.062   2.113   2.113   2.195   2.225   2.225   2.327   2.327
  2.337   2.722   2.722   2.818   2.837   2.837   2.979   3.727
  3.929   3.929   3.944   4.127   4.127   4.146   4.518   4.612
  4.612   4.989   5.050   5.050   5.100   5.100   6.240   6.240
  6.252   6.316   6.350   6.350   6.664   6.664   6.711   6.711
  6.715   6.716   6.719   6.719   6.720   6.732   6.732   6.740
  6.937   6.937   6.968   7.088   7.224   7.224   7.383   7.391
  7.391   7.507   8.008   8.008   9.132   9.132   9.157   9.173
  9.182   9.182   9.456   9.483   9.483   9.644   9.707   9.707
  9.874  10.109  10.109  35.343  37.414  37.947  37.947  40.310
 40.341  40.422  40.535  40.562  50.097  50.103  50.109  50.135
 50.141  50.145  50.209  50.225  50.233  50.297  50.319  50.319
 50.433  50.457  50.460  55.590  55.590  55.592  55.661  55.662
 55.662  55.977  56.175  56.175  66.606  66.606  66.672
 --------------------------------------------------------------
 
          Ground-State Mulliken Net Atomic Charges

     Atom                 Charge (a.u.)
  ----------------------------------------
      1 N                     0.025659
      2 F                    -0.008575
      3 F                    -0.008544
      4 F                    -0.008540
  ----------------------------------------
  Sum of atomic charges =     0.000000

 -----------------------------------------------------------------
                    Cartesian Multipole Moments
 -----------------------------------------------------------------
    Charge (ESU x 10^10)
                 0.0000
    Dipole Moment (Debye)
         X      -0.0001      Y       0.0000      Z       0.1605
       Tot       0.1605
    Quadrupole Moments (Debye-Ang)
        XX     -20.3269     XY       0.0000     YY     -20.3266
        XZ       0.0000     YZ       0.0000     ZZ     -20.4770
    Octapole Moments (Debye-Ang^2)
       XXX      -0.3289    XXY       0.0000    XYY       0.3293
       YYY       0.0001    XXZ       9.1632    XYZ       0.0000
       YYZ       9.1630    XZZ       0.0001    YZZ       0.0000
       ZZZ      26.5679
    Hexadecapole Moments (Debye-Ang^3)
      XXXX     -75.4897   XXXY      -0.0001   XXYY     -25.1636
      XYYY      -0.0001   YYYY     -75.4912   XXXZ      -0.4723
      XXYZ       0.0000   XYYZ       0.4722   YYYZ       0.0000
      XXZZ     -20.1711   XYZZ       0.0000   YYZZ     -20.1712
      XZZZ       0.0001   YZZZ       0.0000   ZZZZ     -46.4450
 -----------------------------------------------------------------
 Total job time:  42.41s(wall), 42.00s(cpu) 
 Mon Jul  8 16:57:47 2013

        *************************************************************
        *                                                           *
        *  Thank you very much for using Q-Chem.  Have a nice day.  *
        *                                                           *
        *************************************************************


0 sent ACK to 0 
now end server 0 ... 
 
**********************************************************************
Job 3 of 3 
**********************************************************************
 
Process 0 of 1 is on cl064.stfx.acenet.ca - thread support 1
initial socket setup ...start
initial socket setup ...done 
now start server 0 ... 

cmd = /usr/bin/ssh clhead /usr/local/qchem/bin/get_hostid 831918588 > /scratch/tmp/6065152.1.short.q/qchem3092/lic.dat
                  Welcome to Q-Chem
     A Quantum Leap Into The Future Of Chemistry

 Y. Shao, L. Fusti-Molnar, Y. Jung, J. Kussmann, C. Ochsenfeld,
 S. T. Brown, A. T. B. Gilbert, L. V. Slipchenko,S. V. Levchenko,
 D. P. O'Neill, R. A. DiStasio Jr., R. C. Lochan, T. Wang,
 G. J. O. Beran, N. A. Besley, J. M. Herbert, C. Y. Lin,
 T. Van Voorhis, S. H. Chien, A. Sodt, R. P. Steele, 
 V. A. Rassolov, P. E. Maslen, P. P. Korambath, R. D. Adamson,
 B. Austin, J. Baker, E. F. C. Byrd, H. Dachsel, R. J. Doerksen,
 A. Dreuw, B. D. Dunietz, A. D. Dutoi, T. R. Furlani,
 S. R. Gwaltney, A. Heyden, S. Hirata, C.-P. Hsu, G. Kedziora,
 R. Z. Khaliullin, P. Klunzinger, A. M. Lee, M. S. Lee, W. Liang,
 I. Lotan, N. Nair, B. Peters, E. I. Proynov, P. A. Pieniazek, 
 Y. M. Rhee, J. Ritchie, E. Rosta, C. D. Sherrill, 
 A. C. Simmonett, J. E. Subotnik, H. L. Woodcock III,
 W. Zhang, A. T. Bell, A. K. Chakraborty, D. M. Chipman,
 F. J. Keil, A. Warshel, W. J. Hehre, H. F. Schaefer III,
 J. Kong, A. I. Krylov, P. M. W. Gill, M. Head-Gordon,
 Q-Chem, Version 3.1, Q-Chem, Inc., Pittsburgh, PA (2007).

 Additional authors for Version 3.1: 
 Z. Gan, Y. Zhao, N. E. Schultz, D. Truhlar, E. Epifanovsky and M. Oana.

 Additional authors for Version 3.2: 
 R. Baer, B. R. Brooks, D. Casanova, J.-D. Chai, C.-L. Cheng, 
 C. Cramer, D. Crittenden, A. Ghysels, G. Hawkins, E. G. Hohenstein, 
 C. Kelley, W. Kurlancheek, D. Liotard, E. Livshits, P. Manohar, 
 A. Marenich, D. Neuhauser, R. Olson, M. A. Rohrdanz, K. S. Thanthiriwatte, 
 A. J. W. Thom, V. Vanovschi, C. F. Williams, Q. Wu and Z.-Q. You. 


 Intel X86 Linux Version

 Q-chem begins on Mon Jul  8 16:57:50 2013  

 Parallel job on  1  processors
Processing $rem in /usr/local/qchem/config/preferences.

theFileMan(): MAXOPENFILES=974 MAX_SUB_FILE_NUM=16
Maximum size of a physical file is 2.0 GB, maximum size of a tmp-file is 32.0 GB


--------------------------------------------------------------
User input:
--------------------------------------------------------------

$molecule
1,2
N         -0.00002        0.00000       -0.02016
F          1.20897        0.00000       -0.60646
F         -0.60449       -1.04702       -0.60646
F         -0.60449        1.04702       -0.60646
$end

$comment
positive
$end

$xc_functional
C PBE   1.00
X wPBE  1.00
$end

$rem
SYMMETRY_DECOMPOSITION	0
LRC_DFT                 true
exchange 		general
BASIS                   g3large
omega			550
mem_static              760
max_scf_cycles          200
scf_final_print         1
sym_ignore              true
$end

--------------------------------------------------------------
 Writing REM_CC_EA            4
 ----------------------------------------------------
       Standard Nuclear Orientation (Angstroms)
    I     Atom         X            Y            Z
 ----------------------------------------------------
    1      N      -0.000020     0.000000    -0.020160
    2      F       1.208970     0.000000    -0.606460
    3      F      -0.604490    -1.047020    -0.606460
    4      F      -0.604490     1.047020    -0.606460
 ----------------------------------------------------
 Nuclear Repulsion Energy =   135.8432244769 hartrees
 There are       17 alpha and       16 beta electrons
 Requested basis set is G3large
 There are 40 shells and 168 basis functions

Total QAlloc Memory Limit   2000 MB
Mega-Array Size       743 MB
MEM_STATIC part       760 MB

                       Distance Matrix (Angstroms)
             N (  1)   F (  2)   F (  3)
   F (  2)  1.343653
   F (  3)  1.343645  2.094012
   F (  4)  1.343645  2.094012  2.094040
 
 A cutoff of  1.0D-08 yielded    709 shell pairs
 There are  12942 function pairs ( 16926 Cartesian)
Evaluating contribution to one-electron hamiltonian from nuclear
 Smallest overlap matrix eigenvalue = 1.78E-03
 Multipole matrices computed through 2nd order

  Scale SEOQF with 1.000000e-01/1.000000e-01/1.000000e-01

 Standard Electronic Orientation quadrupole field applied
 Nucleus-field energy     =     0.0000000010 hartrees
 Guess from superposition of atomic densities
 Warning:  Energy on first SCF cycle will be non-variational
 Long-range K will be added via erf
 Coulomb attenuation parameter = 0.55 bohr**(-1)
 An unrestricted Kohn-Sham SCF calculation will be
 performed using Pulay DIIS extrapolation
 Exchange:  wPBE + LR-HF      Correlation:  PBE
 Using SG-1 standard quadrature grid
 SCF converges when DIIS error is below 1.0E-05
 Requested basis set is G3large
 There are 40 shells and 168 basis functions
 A cutoff of  1.0D-08 yielded    709 shell pairs
 There are  12942 function pairs ( 16926 Cartesian)
 Warning!  Inaccurate integrated density:
   Number of electrons =    33
   Numerical integral  =    34.000286405006
   Relative error      =     3.0311709243 %
 ---------------------------------------
  Cycle       Energy         DIIS Error
 ---------------------------------------
    1    -354.6180812003      3.04E-02
    2    -353.1454384193      1.09E-02
    3    -353.1469405458      1.30E-02
    4    -353.5097743803      1.57E-03
    5    -353.5145846425      3.12E-04
    6    -353.5153461193      1.10E-04
    7    -353.5155121609      7.43E-05
    8    -353.5155833060      2.54E-05
    9    -353.5156035300      1.10E-05
   10    -353.5156105528      6.25E-06 Convergence criterion met
 ---------------------------------------
 One-Electron    Energy =  -749.2240463452
 Total Coulomb   Energy =   297.3513153799
 Alpha Exchange  Energy =    -4.6656685161
 Beta  Exchange  Energy =    -4.3632988643
 DFT   Exchange  Energy =   -27.3130948988
 DFT Correlation Energy =    -1.1440417863
 Nuclear Repu.   Energy =   135.8432244780
 Nuclear Attr.   Energy = -1101.6872428378
 Kinetic         Energy =   352.4631964926
 <S^2> = 0.7614
 SCF time:  CPU 59.49 s  wall 60.03 s
 Final Alpha MO Eigenvalues
            1           2           3           4           5           6
    1 -24.9925490 -24.9925215 -24.9922263 -15.0351507  -1.9710087  -1.8063332
            7           8           9          10          11          12
    1  -1.8061892  -1.3849694  -1.1728771  -1.1728031  -1.1689056  -1.0186923
           13          14          15          16          17          18
    1  -1.0186221  -0.9602289  -0.9601448  -0.9440132  -0.9257090  -0.2153764
           19          20          21          22
    1  -0.2153231  -0.1720997  -0.0877436  -0.0451446
 Final Beta MO Eigenvalues
            1           2           3           4           5           6
    1 -24.9874633 -24.9874095 -24.9871650 -15.0209217  -1.9578209  -1.7937437
            7           8           9          10          11          12
    1  -1.7936481  -1.3419595  -1.1557190  -1.1556302  -1.1020896  -0.9927615
           13          14          15          16          17          18
    1  -0.9925933  -0.9447545  -0.9447291  -0.9390206  -0.4943344  -0.1798073
           19          20          21
    1  -0.1797594  -0.1545816  -0.0826031
 Analysis of SCF Wavefunction
 
 --------------------------------------------------------------
                    Orbital Energies (a.u.)
 --------------------------------------------------------------
 
 Alpha MOs
 -- Occupied --
-24.993 -24.993 -24.992 -15.035  -1.971  -1.806  -1.806  -1.385
 -1.173  -1.173  -1.169  -1.019  -1.019  -0.960  -0.960  -0.944
 -0.926
 -- Virtual --
 -0.215  -0.215  -0.172  -0.088  -0.045  -0.034  -0.034   0.089
  0.089   0.110   0.110   0.114   0.180   0.205   0.223   0.224
  0.260   0.286   0.286   0.533   0.542   0.542   0.753   0.768
  0.768   1.055   1.055   1.104   1.117   1.117   1.152   1.211
  1.245   1.260   1.260   1.431   1.431   1.666   1.666   1.678
  1.737   1.798   1.798   1.886   1.886   1.892   2.000   2.000
  2.020   2.376   2.376   2.481   2.495   2.495   2.643   3.322
  3.553   3.562   3.562   3.757   3.757   3.786   4.150   4.252
  4.252   4.558   4.632   4.632   4.701   4.701   5.902   5.902
  5.909   5.985   6.008   6.008   6.323   6.323   6.377   6.380
  6.380   6.380   6.387   6.388   6.392   6.398   6.398   6.406
  6.595   6.595   6.634   6.740   6.880   6.880   7.035   7.040
  7.040   7.147   7.651   7.651   8.786   8.786   8.805   8.824
  8.836   8.836   9.114   9.128   9.128   9.290   9.362   9.362
  9.529   9.761   9.761  34.906  36.960  37.516  37.516  39.858
 39.912  39.988  40.092  40.125  49.732  49.740  49.746  49.775
 49.779  49.783  49.848  49.859  49.870  49.934  49.954  49.957
 50.069  50.094  50.096  55.229  55.230  55.231  55.298  55.299
 55.304  55.612  55.812  55.812  66.245  66.245  66.312
 
 Beta MOs
 -- Occupied --
-24.987 -24.987 -24.987 -15.021  -1.958  -1.794  -1.794  -1.342
 -1.156  -1.156  -1.102  -0.993  -0.993  -0.945  -0.945  -0.939
 -- Virtual --
 -0.494  -0.180  -0.180  -0.155  -0.083  -0.041  -0.033  -0.033
  0.091   0.092   0.111   0.111   0.117   0.183   0.206   0.225
  0.225   0.261   0.287   0.287   0.547   0.547   0.572   0.780
  0.780   0.788   1.061   1.061   1.109   1.123   1.123   1.162
  1.222   1.247   1.269   1.269   1.442   1.442   1.672   1.672
  1.692   1.745   1.803   1.803   1.899   1.907   1.907   2.008
  2.008   2.020   2.394   2.394   2.499   2.508   2.508   2.657
  3.371   3.580   3.580   3.587   3.778   3.778   3.792   4.173
  4.264   4.264   4.627   4.680   4.680   4.733   4.733   5.911
  5.911   5.924   5.989   6.024   6.024   6.336   6.336   6.386
  6.386   6.388   6.393   6.394   6.397   6.397   6.408   6.408
  6.417   6.606   6.606   6.640   6.754   6.890   6.890   7.046
  7.055   7.055   7.164   7.663   7.663   8.800   8.800   8.825
  8.842   8.850   8.850   9.120   9.149   9.149   9.312   9.373
  9.374   9.538   9.775   9.775  34.921  36.997  37.525  37.525
 39.891  39.917  39.998  40.113  40.139  49.746  49.753  49.758
 49.784  49.790  49.794  49.855  49.872  49.879  49.943  49.964
 49.966  50.078  50.103  50.106  55.235  55.236  55.238  55.307
 55.309  55.309  55.621  55.818  55.818  66.250  66.251  66.317
 --------------------------------------------------------------
 
          Ground-State Mulliken Net Atomic Charges

     Atom                 Charge (a.u.)    Spin (a.u.)
  --------------------------------------------------------
      1 N                     0.320514       0.537068
      2 F                     0.226496       0.154320
      3 F                     0.226257       0.153752
      4 F                     0.226733       0.154860
  --------------------------------------------------------
  Sum of atomic charges =     1.000000
  Sum of spin   charges =     1.000000

 -----------------------------------------------------------------
                    Cartesian Multipole Moments
 -----------------------------------------------------------------
    Charge (ESU x 10^10)
                 4.8032
    Dipole Moment (Debye)
         X      -0.0001      Y       0.0016      Z      -1.1783
       Tot       1.1783
    Quadrupole Moments (Debye-Ang)
        XX     -15.7201     XY      -0.0013     YY     -15.7200
        XZ       0.0001     YZ      -0.0013     ZZ     -16.1820
    Octapole Moments (Debye-Ang^2)
       XXX       1.6988    XXY       0.0009    XYY      -1.6983
       YYY       0.0026    XXZ       6.3371    XYZ       0.0006
       YYZ       6.3368    XZZ       0.0000    YZZ       0.0015
       ZZZ      23.0778
    Hexadecapole Moments (Debye-Ang^3)
      XXXX     -63.5379   XXXY      -0.0016   XXYY     -21.1795
      XYYY      -0.0015   YYYY     -63.5399   XXXZ      -1.8806
      XXYZ      -0.0004   XYYZ       1.8813   YYYZ      -0.0007
      XXZZ     -15.8960   XYZZ      -0.0011   YYZZ     -15.8965
      XZZZ      -0.0003   YZZZ      -0.0029   ZZZZ     -37.6364
 -----------------------------------------------------------------
 Total job time:  60.22s(wall), 59.67s(cpu) 
 Mon Jul  8 16:58:51 2013

        *************************************************************
        *                                                           *
        *  Thank you very much for using Q-Chem.  Have a nice day.  *
        *                                                           *
        *************************************************************


0 sent ACK to 0 
now end server 0 ... 
