Process 0 of 1 is on cl084.stfx.acenet.ca - thread support 1
initial socket setup ...start
initial socket setup ...done 
now start server 0 ... 

cmd = /usr/bin/ssh clhead /usr/local/qchem/bin/get_hostid 761787476 > /scratch/tmp/6027672.1.short.q/qchem20843/lic.dat
                  Welcome to Q-Chem
     A Quantum Leap Into The Future Of Chemistry

 Y. Shao, L. Fusti-Molnar, Y. Jung, J. Kussmann, C. Ochsenfeld,
 S. T. Brown, A. T. B. Gilbert, L. V. Slipchenko,S. V. Levchenko,
 D. P. O'Neill, R. A. DiStasio Jr., R. C. Lochan, T. Wang,
 G. J. O. Beran, N. A. Besley, J. M. Herbert, C. Y. Lin,
 T. Van Voorhis, S. H. Chien, A. Sodt, R. P. Steele, 
 V. A. Rassolov, P. E. Maslen, P. P. Korambath, R. D. Adamson,
 B. Austin, J. Baker, E. F. C. Byrd, H. Dachsel, R. J. Doerksen,
 A. Dreuw, B. D. Dunietz, A. D. Dutoi, T. R. Furlani,
 S. R. Gwaltney, A. Heyden, S. Hirata, C.-P. Hsu, G. Kedziora,
 R. Z. Khaliullin, P. Klunzinger, A. M. Lee, M. S. Lee, W. Liang,
 I. Lotan, N. Nair, B. Peters, E. I. Proynov, P. A. Pieniazek, 
 Y. M. Rhee, J. Ritchie, E. Rosta, C. D. Sherrill, 
 A. C. Simmonett, J. E. Subotnik, H. L. Woodcock III,
 W. Zhang, A. T. Bell, A. K. Chakraborty, D. M. Chipman,
 F. J. Keil, A. Warshel, W. J. Hehre, H. F. Schaefer III,
 J. Kong, A. I. Krylov, P. M. W. Gill, M. Head-Gordon,
 Q-Chem, Version 3.1, Q-Chem, Inc., Pittsburgh, PA (2007).

 Additional authors for Version 3.1: 
 Z. Gan, Y. Zhao, N. E. Schultz, D. Truhlar, E. Epifanovsky and M. Oana.

 Additional authors for Version 3.2: 
 R. Baer, B. R. Brooks, D. Casanova, J.-D. Chai, C.-L. Cheng, 
 C. Cramer, D. Crittenden, A. Ghysels, G. Hawkins, E. G. Hohenstein, 
 C. Kelley, W. Kurlancheek, D. Liotard, E. Livshits, P. Manohar, 
 A. Marenich, D. Neuhauser, R. Olson, M. A. Rohrdanz, K. S. Thanthiriwatte, 
 A. J. W. Thom, V. Vanovschi, C. F. Williams, Q. Wu and Z.-Q. You. 


 Intel X86 Linux Version

 Q-chem begins on Mon Jun  3 17:03:38 2013  

 Parallel job on  1  processors
Processing $rem in /usr/local/qchem/config/preferences.

theFileMan(): MAXOPENFILES=974 MAX_SUB_FILE_NUM=16
Maximum size of a physical file is 2.0 GB, maximum size of a tmp-file is 32.0 GB


--------------------------------------------------------------
User input:
--------------------------------------------------------------

$molecule
-1,3
N
O,1,r

r=1.15869834

$end

$comment
negative
$end

$xc_functional
C PBE   1.00
X wPBE  1.00
$end

$rem
SYMMETRY_DECOMPOSITION	0
exchange 		general
LRC_DFT                 true
BASIS                   g3large
omega			400
mem_static              760
max_scf_cycles          200
scf_final_print         1
sym_ignore              true
$end

--------------------------------------------------------------
 Writing REM_CC_EA            2
 ----------------------------------------------------
       Standard Nuclear Orientation (Angstroms)
    I     Atom         X            Y            Z
 ----------------------------------------------------
    1      N       0.000000     0.000000     0.000000
    2      O       0.000000     0.000000     1.158698
 ----------------------------------------------------
 Nuclear Repulsion Energy =    25.5751844823 hartrees
 There are        9 alpha and        7 beta electrons
 Requested basis set is G3large
 There are 20 shells and 84 basis functions

Total QAlloc Memory Limit   2000 MB
Mega-Array Size       743 MB
MEM_STATIC part       760 MB

                       Distance Matrix (Angstroms)
             N (  1)
   O (  2)  1.158698
 
 A cutoff of  1.0D-08 yielded    206 shell pairs
 There are   3662 function pairs (  4809 Cartesian)
Evaluating contribution to one-electron hamiltonian from nuclear
 Smallest overlap matrix eigenvalue = 2.14E-03
 Multipole matrices computed through 2nd order

  Scale SEOQF with 1.000000e-01/1.000000e-01/1.000000e-01

 Standard Electronic Orientation quadrupole field applied
 Nucleus-field energy     =    -0.0000000012 hartrees
 Guess from superposition of atomic densities
 Warning:  Energy on first SCF cycle will be non-variational
 Long-range K will be added via erf
 Coulomb attenuation parameter = 0.4 bohr**(-1)
 An unrestricted Kohn-Sham SCF calculation will be
 performed using Pulay DIIS extrapolation
 Exchange:  wPBE + LR-HF      Correlation:  PBE
 Using SG-1 standard quadrature grid
 SCF converges when DIIS error is below 1.0E-05
 Requested basis set is G3large
 There are 20 shells and 84 basis functions
 A cutoff of  1.0D-08 yielded    206 shell pairs
 There are   3662 function pairs (  4809 Cartesian)
 Warning!  Inaccurate integrated density:
   Number of electrons =    16
   Numerical integral  =    14.999983069313
   Relative error      =    -6.2501058168 %
 ---------------------------------------
  Cycle       Energy         DIIS Error
 ---------------------------------------
    1    -129.9355761420      4.88E-02
    2    -129.7774819965      7.62E-03
    3    -129.8166764585      6.38E-03
    4    -129.8415322980      1.05E-03
    5    -129.8421580769      5.69E-04
    6    -129.8424440628      1.83E-04
    7    -129.8424925321      3.07E-05
    8    -129.8425010240      1.08E-05
    9    -129.8425021211      3.49E-06 Convergence criterion met
 ---------------------------------------
 One-Electron    Energy =  -233.0638703618
 Total Coulomb   Energy =    93.2539561362
 Alpha Exchange  Energy =    -1.8223025111
 Beta  Exchange  Energy =    -1.4154119345
 DFT   Exchange  Energy =   -11.8527622974
 DFT Correlation Energy =    -0.5172956337
 Nuclear Repu.   Energy =    25.5751844811
 Nuclear Attr.   Energy =  -362.9252481691
 Kinetic         Energy =   129.8613778074
 <S^2> = 2.0059
 SCF time:  CPU 9.81 s  wall 10.99 s
 Final Alpha MO Eigenvalues
            1           2           3           4           5           6
    1 -18.7097129 -13.9405514  -1.0091682  -0.4856853  -0.3163062  -0.3163025
            7           8           9          10          11          12
    1  -0.2700016   0.0061858   0.0062119   0.3017857   0.3500134   0.3661415
           13          14
    1   0.3661518   0.4514024
 Final Beta MO Eigenvalues
            1           2           3           4           5           6
    1 -18.6930963 -13.9171562  -0.9755431  -0.4168650  -0.2404017  -0.2403924
            7           8           9          10          11          12
    1  -0.2271422   0.3053102   0.3377908   0.3377938   0.3591813   0.4168433
 Analysis of SCF Wavefunction
 
 --------------------------------------------------------------
                    Orbital Energies (a.u.)
 --------------------------------------------------------------
 
 Alpha MOs
 -- Occupied --
-18.710 -13.941  -1.009  -0.486  -0.316  -0.316  -0.270   0.006
  0.006
 -- Virtual --
  0.302   0.350   0.366   0.366   0.451   0.482   0.482   0.641
  0.806   1.118   1.118   1.126   1.313   1.336   1.336   1.378
  1.398   1.398   1.541   1.541   1.844   1.951   1.951   2.237
  2.478   2.478   2.806   3.913   3.913   3.956   3.956   4.058
  4.058   4.122   4.352   4.352   4.989   5.023   5.023   5.075
  5.083   5.083   5.394   5.394   5.415   5.415   5.817   5.861
  5.861   7.056   7.056   7.082   7.083   7.494   7.494   7.598
  8.037  36.017  37.622  37.622  38.261  40.703  40.815  40.909
 40.909  41.030  43.920  43.984  44.092  44.092  44.240  45.966
 45.966  46.727  50.348
 
 Beta MOs
 -- Occupied --
-18.693 -13.917  -0.976  -0.417  -0.240  -0.240  -0.227
 -- Virtual --
  0.305   0.338   0.338   0.359   0.417   0.417   0.457   0.510
  0.510   0.646   0.836   1.148   1.169   1.170   1.329   1.389
  1.389   1.420   1.427   1.427   1.582   1.582   1.866   1.999
  1.999   2.262   2.508   2.508   2.829   3.992   3.992   3.999
  3.999   4.136   4.136   4.156   4.387   4.387   5.022   5.075
  5.075   5.107   5.200   5.200   5.442   5.442   5.465   5.465
  5.844   5.897   5.897   7.094   7.094   7.155   7.155   7.532
  7.532   7.616   8.063  36.044  37.663  37.663  38.275  40.758
 40.869  40.937  40.937  41.048  43.964  44.027  44.114  44.114
 44.257  45.997  45.997  46.737  50.364
 --------------------------------------------------------------
 
          Ground-State Mulliken Net Atomic Charges

     Atom                 Charge (a.u.)    Spin (a.u.)
  --------------------------------------------------------
      1 N                    -0.802497       1.483287
      2 O                    -0.197503       0.516713
  --------------------------------------------------------
  Sum of atomic charges =    -1.000000
  Sum of spin   charges =     2.000000

 -----------------------------------------------------------------
                    Cartesian Multipole Moments
 -----------------------------------------------------------------
    Charge (ESU x 10^10)
                -4.8032
    Dipole Moment (Debye)
         X      -0.0001      Y      -0.0001      Z      -1.5204
       Tot       1.5204
    Quadrupole Moments (Debye-Ang)
        XX     -14.2927     XY       0.0008     YY     -14.2925
        XZ       0.0004     YZ       0.0002     ZZ     -18.0350
    Octapole Moments (Debye-Ang^2)
       XXX      -0.0011    XXY      -0.0001    XYY      -0.0004
       YYY      -0.0004    XXZ      -6.0056    XYZ      -0.0009
       YYZ      -6.0059    XZZ       0.0008    YZZ       0.0003
       ZZZ     -25.6894
    Hexadecapole Moments (Debye-Ang^3)
      XXXX     -19.9787   XXXY       0.0027   XXYY      -6.6593
      XYYY       0.0027   YYYY     -19.9772   XXXZ       0.0011
      XXYZ       0.0001   XYYZ       0.0004   YYYZ       0.0004
      XXZZ     -15.2429   XYZZ       0.0001   YYZZ     -15.2429
      XZZZ       0.0019   YZZZ       0.0008   ZZZZ     -75.5689
 -----------------------------------------------------------------
 Total job time:  11.37s(wall), 9.89s(cpu) 
 Mon Jun  3 17:03:49 2013

        *************************************************************
        *                                                           *
        *  Thank you very much for using Q-Chem.  Have a nice day.  *
        *                                                           *
        *************************************************************


0 sent ACK to 0 
now end server 0 ... 
 
**********************************************************************
Job 2 of 3 
**********************************************************************
 
Process 0 of 1 is on cl084.stfx.acenet.ca - thread support 1
initial socket setup ...start
initial socket setup ...done 
now start server 0 ... 

cmd = /usr/bin/ssh clhead /usr/local/qchem/bin/get_hostid 491209430 > /scratch/tmp/6027672.1.short.q/qchem20843/lic.dat
                  Welcome to Q-Chem
     A Quantum Leap Into The Future Of Chemistry

 Y. Shao, L. Fusti-Molnar, Y. Jung, J. Kussmann, C. Ochsenfeld,
 S. T. Brown, A. T. B. Gilbert, L. V. Slipchenko,S. V. Levchenko,
 D. P. O'Neill, R. A. DiStasio Jr., R. C. Lochan, T. Wang,
 G. J. O. Beran, N. A. Besley, J. M. Herbert, C. Y. Lin,
 T. Van Voorhis, S. H. Chien, A. Sodt, R. P. Steele, 
 V. A. Rassolov, P. E. Maslen, P. P. Korambath, R. D. Adamson,
 B. Austin, J. Baker, E. F. C. Byrd, H. Dachsel, R. J. Doerksen,
 A. Dreuw, B. D. Dunietz, A. D. Dutoi, T. R. Furlani,
 S. R. Gwaltney, A. Heyden, S. Hirata, C.-P. Hsu, G. Kedziora,
 R. Z. Khaliullin, P. Klunzinger, A. M. Lee, M. S. Lee, W. Liang,
 I. Lotan, N. Nair, B. Peters, E. I. Proynov, P. A. Pieniazek, 
 Y. M. Rhee, J. Ritchie, E. Rosta, C. D. Sherrill, 
 A. C. Simmonett, J. E. Subotnik, H. L. Woodcock III,
 W. Zhang, A. T. Bell, A. K. Chakraborty, D. M. Chipman,
 F. J. Keil, A. Warshel, W. J. Hehre, H. F. Schaefer III,
 J. Kong, A. I. Krylov, P. M. W. Gill, M. Head-Gordon,
 Q-Chem, Version 3.1, Q-Chem, Inc., Pittsburgh, PA (2007).

 Additional authors for Version 3.1: 
 Z. Gan, Y. Zhao, N. E. Schultz, D. Truhlar, E. Epifanovsky and M. Oana.

 Additional authors for Version 3.2: 
 R. Baer, B. R. Brooks, D. Casanova, J.-D. Chai, C.-L. Cheng, 
 C. Cramer, D. Crittenden, A. Ghysels, G. Hawkins, E. G. Hohenstein, 
 C. Kelley, W. Kurlancheek, D. Liotard, E. Livshits, P. Manohar, 
 A. Marenich, D. Neuhauser, R. Olson, M. A. Rohrdanz, K. S. Thanthiriwatte, 
 A. J. W. Thom, V. Vanovschi, C. F. Williams, Q. Wu and Z.-Q. You. 


 Intel X86 Linux Version

 Q-chem begins on Mon Jun  3 17:03:52 2013  

 Parallel job on  1  processors
Processing $rem in /usr/local/qchem/config/preferences.

theFileMan(): MAXOPENFILES=974 MAX_SUB_FILE_NUM=16
Maximum size of a physical file is 2.0 GB, maximum size of a tmp-file is 32.0 GB


--------------------------------------------------------------
User input:
--------------------------------------------------------------

$molecule
0,2
N
O,1,r

r=1.15869834

$end

$comment
neutral
$end

$xc_functional
C PBE   1.00
X wPBE  1.00
$end


$rem
SYMMETRY_DECOMPOSITION	0
LRC_DFT                 true
exchange 		general
BASIS                   g3large
omega			400
mem_static              760
max_scf_cycles          200
scf_final_print         1
sym_ignore              true
$end

--------------------------------------------------------------
 Writing REM_CC_EA            2
 ----------------------------------------------------
       Standard Nuclear Orientation (Angstroms)
    I     Atom         X            Y            Z
 ----------------------------------------------------
    1      N       0.000000     0.000000     0.000000
    2      O       0.000000     0.000000     1.158698
 ----------------------------------------------------
 Nuclear Repulsion Energy =    25.5751844823 hartrees
 There are        8 alpha and        7 beta electrons
 Requested basis set is G3large
 There are 20 shells and 84 basis functions

Total QAlloc Memory Limit   2000 MB
Mega-Array Size       743 MB
MEM_STATIC part       760 MB

                       Distance Matrix (Angstroms)
             N (  1)
   O (  2)  1.158698
 
 A cutoff of  1.0D-08 yielded    206 shell pairs
 There are   3662 function pairs (  4809 Cartesian)
Evaluating contribution to one-electron hamiltonian from nuclear
 Smallest overlap matrix eigenvalue = 2.14E-03
 Multipole matrices computed through 2nd order

  Scale SEOQF with 1.000000e-01/1.000000e-01/1.000000e-01

 Standard Electronic Orientation quadrupole field applied
 Nucleus-field energy     =    -0.0000000012 hartrees
 Guess from superposition of atomic densities
 Warning:  Energy on first SCF cycle will be non-variational
 Long-range K will be added via erf
 Coulomb attenuation parameter = 0.4 bohr**(-1)
 An unrestricted Kohn-Sham SCF calculation will be
 performed using Pulay DIIS extrapolation
 Exchange:  wPBE + LR-HF      Correlation:  PBE
 Using SG-1 standard quadrature grid
 SCF converges when DIIS error is below 1.0E-05
 Requested basis set is G3large
 There are 20 shells and 84 basis functions
 A cutoff of  1.0D-08 yielded    206 shell pairs
 There are   3662 function pairs (  4809 Cartesian)
 ---------------------------------------
  Cycle       Energy         DIIS Error
 ---------------------------------------
    1    -129.9355761420      4.88E-02
    2    -129.8217709628      5.23E-03
    3    -129.8303003495      4.74E-03
    4    -129.8419802645      1.79E-03
    5    -129.8439755189      1.96E-04
    6    -129.8440826061      6.62E-05
    7    -129.8441032644      2.06E-05
    8    -129.8441077465      4.90E-06 Convergence criterion met
 ---------------------------------------
 One-Electron    Energy =  -227.5742486625
 Total Coulomb   Energy =    87.4162077494
 Alpha Exchange  Energy =    -1.6426328643
 Beta  Exchange  Energy =    -1.4288811441
 DFT   Exchange  Energy =   -11.6997220734
 DFT Correlation Energy =    -0.4900152328
 Nuclear Repu.   Energy =    25.5751844811
 Nuclear Attr.   Energy =  -357.0481112653
 Kinetic         Energy =   129.4738626028
 <S^2> = 0.7528
 SCF time:  CPU 8.71 s  wall 10.04 s
 Final Alpha MO Eigenvalues
            1           2           3           4           5           6
    1 -19.1037500 -14.3436628  -1.3765178  -0.8264224  -0.6705611  -0.6432558
            7           8           9          10          11          12
    1  -0.6177352  -0.3479044  -0.0085596   0.1085414   0.1533595   0.1627127
           13
    1   0.1632968
 Final Beta MO Eigenvalues
            1           2           3           4           5           6
    1 -19.0948865 -14.3292939  -1.3582626  -0.7889120  -0.6338460  -0.5958869
            7           8           9          10          11          12
    1  -0.5948301   0.0063457   0.0480614   0.1102142   0.1562937   0.1646329
 Analysis of SCF Wavefunction
 
 --------------------------------------------------------------
                    Orbital Energies (a.u.)
 --------------------------------------------------------------
 
 Alpha MOs
 -- Occupied --
-19.104 -14.344  -1.377  -0.826  -0.671  -0.643  -0.618  -0.348
 -- Virtual --
 -0.009   0.109   0.153   0.163   0.163   0.247   0.273   0.274
  0.403   0.495   0.821   0.826   0.831   1.010   1.012   1.030
  1.077   1.110   1.110   1.207   1.215   1.542   1.625   1.627
  1.910   2.153   2.153   2.478   3.561   3.562   3.600   3.601
  3.695   3.705   3.767   3.993   3.994   4.620   4.665   4.670
  4.718   4.719   4.727   5.041   5.042   5.058   5.060   5.462
  5.505   5.506   6.691   6.691   6.721   6.724   7.138   7.138
  7.234   7.673  35.618  37.220  37.225  37.860  40.303  40.416
 40.506  40.509  40.629  43.532  43.596  43.701  43.704  43.849
 45.576  45.577  46.336  49.957
 
 Beta MOs
 -- Occupied --
-19.095 -14.329  -1.358  -0.789  -0.634  -0.596  -0.595
 -- Virtual --
  0.006   0.048   0.110   0.156   0.165   0.174   0.248   0.275
  0.283   0.406   0.513   0.830   0.840   0.868   1.033   1.039
  1.041   1.100   1.114   1.133   1.218   1.246   1.552   1.651
  1.651   1.923   2.156   2.180   2.490   3.605   3.606   3.623
  3.625   3.725   3.772   3.789   3.998   4.028   4.638   4.678
  4.714   4.735   4.790   4.796   5.059   5.065   5.075   5.105
  5.472   5.524   5.528   6.696   6.727   6.760   6.761   7.143
  7.172   7.244   7.687  35.634  37.235  37.261  37.869  40.336
 40.447  40.512  40.537  40.641  43.555  43.618  43.704  43.724
 43.859  45.583  45.603  46.341  49.966
 --------------------------------------------------------------
 
          Ground-State Mulliken Net Atomic Charges

     Atom                 Charge (a.u.)    Spin (a.u.)
  --------------------------------------------------------
      1 N                    -0.101437       0.714706
      2 O                     0.101437       0.285294
  --------------------------------------------------------
  Sum of atomic charges =     0.000000
  Sum of spin   charges =     1.000000

 -----------------------------------------------------------------
                    Cartesian Multipole Moments
 -----------------------------------------------------------------
    Charge (ESU x 10^10)
                 0.0000
    Dipole Moment (Debye)
         X      -0.0002      Y      -0.0002      Z       0.1010
       Tot       0.1010
    Quadrupole Moments (Debye-Ang)
        XX     -10.1384     XY      -0.5616     YY     -10.4170
        XZ       0.0003     YZ       0.0004     ZZ     -11.2799
    Octapole Moments (Debye-Ang^2)
       XXX      -0.0003    XXY      -0.0001    XYY      -0.0001
       YYY      -0.0003    XXZ      -5.5956    XYZ      -0.1426
       YYZ      -5.6662    XZZ       0.0001    YZZ       0.0003
       ZZZ     -18.2913
    Hexadecapole Moments (Debye-Ang^3)
      XXXX      -8.2552   XXXY      -0.4487   XXYY      -2.8259
      XYYY      -0.4487   YYYY      -8.7004   XXXZ       0.0004
      XXYZ       0.0002   XYYZ       0.0001   YYYZ       0.0005
      XXZZ      -9.6331   XYZZ      -0.5161   YYZZ      -9.8890
      XZZZ       0.0006   YZZZ       0.0010   ZZZZ     -50.9556
 -----------------------------------------------------------------
 Total job time:  10.14s(wall), 8.79s(cpu) 
 Mon Jun  3 17:04:02 2013

        *************************************************************
        *                                                           *
        *  Thank you very much for using Q-Chem.  Have a nice day.  *
        *                                                           *
        *************************************************************


0 sent ACK to 0 
now end server 0 ... 
 
**********************************************************************
Job 3 of 3 
**********************************************************************
 
Process 0 of 1 is on cl084.stfx.acenet.ca - thread support 1
initial socket setup ...start
initial socket setup ...done 
now start server 0 ... 

cmd = /usr/bin/ssh clhead /usr/local/qchem/bin/get_hostid 827759994 > /scratch/tmp/6027672.1.short.q/qchem20843/lic.dat
                  Welcome to Q-Chem
     A Quantum Leap Into The Future Of Chemistry

 Y. Shao, L. Fusti-Molnar, Y. Jung, J. Kussmann, C. Ochsenfeld,
 S. T. Brown, A. T. B. Gilbert, L. V. Slipchenko,S. V. Levchenko,
 D. P. O'Neill, R. A. DiStasio Jr., R. C. Lochan, T. Wang,
 G. J. O. Beran, N. A. Besley, J. M. Herbert, C. Y. Lin,
 T. Van Voorhis, S. H. Chien, A. Sodt, R. P. Steele, 
 V. A. Rassolov, P. E. Maslen, P. P. Korambath, R. D. Adamson,
 B. Austin, J. Baker, E. F. C. Byrd, H. Dachsel, R. J. Doerksen,
 A. Dreuw, B. D. Dunietz, A. D. Dutoi, T. R. Furlani,
 S. R. Gwaltney, A. Heyden, S. Hirata, C.-P. Hsu, G. Kedziora,
 R. Z. Khaliullin, P. Klunzinger, A. M. Lee, M. S. Lee, W. Liang,
 I. Lotan, N. Nair, B. Peters, E. I. Proynov, P. A. Pieniazek, 
 Y. M. Rhee, J. Ritchie, E. Rosta, C. D. Sherrill, 
 A. C. Simmonett, J. E. Subotnik, H. L. Woodcock III,
 W. Zhang, A. T. Bell, A. K. Chakraborty, D. M. Chipman,
 F. J. Keil, A. Warshel, W. J. Hehre, H. F. Schaefer III,
 J. Kong, A. I. Krylov, P. M. W. Gill, M. Head-Gordon,
 Q-Chem, Version 3.1, Q-Chem, Inc., Pittsburgh, PA (2007).

 Additional authors for Version 3.1: 
 Z. Gan, Y. Zhao, N. E. Schultz, D. Truhlar, E. Epifanovsky and M. Oana.

 Additional authors for Version 3.2: 
 R. Baer, B. R. Brooks, D. Casanova, J.-D. Chai, C.-L. Cheng, 
 C. Cramer, D. Crittenden, A. Ghysels, G. Hawkins, E. G. Hohenstein, 
 C. Kelley, W. Kurlancheek, D. Liotard, E. Livshits, P. Manohar, 
 A. Marenich, D. Neuhauser, R. Olson, M. A. Rohrdanz, K. S. Thanthiriwatte, 
 A. J. W. Thom, V. Vanovschi, C. F. Williams, Q. Wu and Z.-Q. You. 


 Intel X86 Linux Version

 Q-chem begins on Mon Jun  3 17:04:05 2013  

 Parallel job on  1  processors
Processing $rem in /usr/local/qchem/config/preferences.

theFileMan(): MAXOPENFILES=974 MAX_SUB_FILE_NUM=16
Maximum size of a physical file is 2.0 GB, maximum size of a tmp-file is 32.0 GB


--------------------------------------------------------------
User input:
--------------------------------------------------------------

$molecule
1,1
N
O,1,r

r=1.15869834

$end

$comment
positive
$end

$xc_functional
C PBE   1.00
X wPBE  1.00
$end

$rem
SYMMETRY_DECOMPOSITION	0
LRC_DFT                 true
exchange 		general
BASIS                   g3large
omega			400
mem_static              760
max_scf_cycles          200
scf_final_print         1
sym_ignore              true
$end

--------------------------------------------------------------
 Writing REM_CC_EA            2
 ----------------------------------------------------
       Standard Nuclear Orientation (Angstroms)
    I     Atom         X            Y            Z
 ----------------------------------------------------
    1      N       0.000000     0.000000     0.000000
    2      O       0.000000     0.000000     1.158698
 ----------------------------------------------------
 Nuclear Repulsion Energy =    25.5751844823 hartrees
 There are        7 alpha and        7 beta electrons
 Requested basis set is G3large
 There are 20 shells and 84 basis functions

Total QAlloc Memory Limit   2000 MB
Mega-Array Size       743 MB
MEM_STATIC part       760 MB

                       Distance Matrix (Angstroms)
             N (  1)
   O (  2)  1.158698
 
 A cutoff of  1.0D-08 yielded    206 shell pairs
 There are   3662 function pairs (  4809 Cartesian)
Evaluating contribution to one-electron hamiltonian from nuclear
 Smallest overlap matrix eigenvalue = 2.14E-03
 Multipole matrices computed through 2nd order

  Scale SEOQF with 1.000000e-01/1.000000e-01/1.000000e-01

 Standard Electronic Orientation quadrupole field applied
 Nucleus-field energy     =    -0.0000000012 hartrees
 Guess from superposition of atomic densities
 Warning:  Energy on first SCF cycle will be non-variational
 Long-range K will be added via erf
 Coulomb attenuation parameter = 0.4 bohr**(-1)
 A restricted Kohn-Sham SCF calculation will be
 performed using Pulay DIIS extrapolation
 Exchange:  wPBE + LR-HF      Correlation:  PBE
 Using SG-1 standard quadrature grid
 SCF converges when DIIS error is below 1.0E-05
 Requested basis set is G3large
 There are 20 shells and 84 basis functions
 A cutoff of  1.0D-08 yielded    206 shell pairs
 There are   3662 function pairs (  4809 Cartesian)
 Warning!  Inaccurate integrated density:
   Number of electrons =    14
   Numerical integral  =    14.999983069313
   Relative error      =     7.1427362094 %
 ---------------------------------------
  Cycle       Energy         DIIS Error
 ---------------------------------------
    1    -129.9355761420      4.88E-02
    2    -129.3644275060      1.08E-02
    3    -129.4006341084      1.06E-02
    4    -129.4435070818      5.98E-03
    5    -129.4622760301      3.52E-04
    6    -129.4624584541      8.31E-05
    7    -129.4624815225      2.65E-05
    8    -129.4624841678      5.38E-06 Convergence criterion met
 ---------------------------------------
 One-Electron    Energy =  -220.9344028328
 Total Coulomb   Energy =    80.6908299077
 Alpha Exchange  Energy =    -1.4390317619
 Beta  Exchange  Energy =    -1.4390317619
 DFT   Exchange  Energy =   -11.4584680630
 DFT Correlation Energy =    -0.4575641371
 Nuclear Repu.   Energy =    25.5751844811
 Nuclear Attr.   Energy =  -349.6399662339
 Kinetic         Energy =   128.7055634011
 SCF time:  CPU 7.59 s  wall 8.78 s
 Final Alpha MO Eigenvalues
            1           2           3           4           5           6
    1 -19.5944553 -14.8570953  -1.8218315  -1.2339341  -1.0659028  -1.0659025
            7           8           9          10          11          12
    1  -1.0342104  -0.4172785  -0.4172773  -0.1127681  -0.0611235  -0.0558327
 Analysis of SCF Wavefunction
 
 --------------------------------------------------------------
                    Orbital Energies (a.u.)
 --------------------------------------------------------------
 
 Alpha MOs
 -- Occupied --
-19.594 -14.857  -1.822  -1.234  -1.066  -1.066  -1.034
 -- Virtual --
 -0.417  -0.417  -0.113  -0.061  -0.056  -0.056   0.025   0.054
  0.054   0.106   0.161   0.495   0.509   0.509   0.642   0.642
  0.715   0.741   0.783   0.783   0.834   0.834   1.199   1.252
  1.252   1.540   1.781   1.781   2.097   3.157   3.157   3.187
  3.187   3.277   3.277   3.350   3.567   3.567   4.175   4.243
  4.243   4.289   4.289   4.308   4.626   4.626   4.634   4.634
  5.038   5.085   5.085   6.252   6.252   6.287   6.287   6.711
  6.711   6.795   7.234  35.113  36.717  36.717  37.352  39.797
 39.908  39.999  39.999  40.120  43.050  43.114  43.218  43.219
 43.365  45.092  45.092  45.849  49.472
 --------------------------------------------------------------
 
          Ground-State Mulliken Net Atomic Charges

     Atom                 Charge (a.u.)
  ----------------------------------------
      1 N                     0.438181
      2 O                     0.561819
  ----------------------------------------
  Sum of atomic charges =     1.000000

 -----------------------------------------------------------------
                    Cartesian Multipole Moments
 -----------------------------------------------------------------
    Charge (ESU x 10^10)
                 4.8032
    Dipole Moment (Debye)
         X       0.0000      Y       0.0000      Z       2.3659
       Tot       2.3659
    Quadrupole Moments (Debye-Ang)
        XX      -8.0209     XY       0.0000     YY      -8.0209
        XZ       0.0000     YZ       0.0000     ZZ      -5.7717
    Octapole Moments (Debye-Ang^2)
       XXX       0.0000    XXY       0.0000    XYY       0.0000
       YYY       0.0000    XXZ      -4.7308    XYZ      -0.0001
       YYZ      -4.7308    XZZ      -0.0001    YZZ       0.0000
       ZZZ     -11.0766
    Hexadecapole Moments (Debye-Ang^3)
      XXXX      -5.1577   XXXY       0.0000   XXYY      -1.7192
      XYYY       0.0000   YYYY      -5.1577   XXXZ       0.0000
      XXYZ       0.0000   XYYZ       0.0000   YYYZ       0.0000
      XXZZ      -7.1858   XYZZ      -0.0001   YYZZ      -7.1858
      XZZZ      -0.0001   YZZZ       0.0000   ZZZZ     -34.9022
 -----------------------------------------------------------------
 Total job time:  8.88s(wall), 7.67s(cpu) 
 Mon Jun  3 17:04:14 2013

        *************************************************************
        *                                                           *
        *  Thank you very much for using Q-Chem.  Have a nice day.  *
        *                                                           *
        *************************************************************


0 sent ACK to 0 
now end server 0 ... 
