Process 0 of 1 is on cl112.stfx.acenet.ca - thread support 1
initial socket setup ...start
initial socket setup ...done 
now start server 0 ... 

cmd = /usr/bin/ssh clhead /usr/local/qchem/bin/get_hostid 632830515 > /scratch/tmp/6028487.1.short.q/qchem7011/lic.dat
                  Welcome to Q-Chem
     A Quantum Leap Into The Future Of Chemistry

 Y. Shao, L. Fusti-Molnar, Y. Jung, J. Kussmann, C. Ochsenfeld,
 S. T. Brown, A. T. B. Gilbert, L. V. Slipchenko,S. V. Levchenko,
 D. P. O'Neill, R. A. DiStasio Jr., R. C. Lochan, T. Wang,
 G. J. O. Beran, N. A. Besley, J. M. Herbert, C. Y. Lin,
 T. Van Voorhis, S. H. Chien, A. Sodt, R. P. Steele, 
 V. A. Rassolov, P. E. Maslen, P. P. Korambath, R. D. Adamson,
 B. Austin, J. Baker, E. F. C. Byrd, H. Dachsel, R. J. Doerksen,
 A. Dreuw, B. D. Dunietz, A. D. Dutoi, T. R. Furlani,
 S. R. Gwaltney, A. Heyden, S. Hirata, C.-P. Hsu, G. Kedziora,
 R. Z. Khaliullin, P. Klunzinger, A. M. Lee, M. S. Lee, W. Liang,
 I. Lotan, N. Nair, B. Peters, E. I. Proynov, P. A. Pieniazek, 
 Y. M. Rhee, J. Ritchie, E. Rosta, C. D. Sherrill, 
 A. C. Simmonett, J. E. Subotnik, H. L. Woodcock III,
 W. Zhang, A. T. Bell, A. K. Chakraborty, D. M. Chipman,
 F. J. Keil, A. Warshel, W. J. Hehre, H. F. Schaefer III,
 J. Kong, A. I. Krylov, P. M. W. Gill, M. Head-Gordon,
 Q-Chem, Version 3.1, Q-Chem, Inc., Pittsburgh, PA (2007).

 Additional authors for Version 3.1: 
 Z. Gan, Y. Zhao, N. E. Schultz, D. Truhlar, E. Epifanovsky and M. Oana.

 Additional authors for Version 3.2: 
 R. Baer, B. R. Brooks, D. Casanova, J.-D. Chai, C.-L. Cheng, 
 C. Cramer, D. Crittenden, A. Ghysels, G. Hawkins, E. G. Hohenstein, 
 C. Kelley, W. Kurlancheek, D. Liotard, E. Livshits, P. Manohar, 
 A. Marenich, D. Neuhauser, R. Olson, M. A. Rohrdanz, K. S. Thanthiriwatte, 
 A. J. W. Thom, V. Vanovschi, C. F. Williams, Q. Wu and Z.-Q. You. 


 Intel X86 Linux Version

 Q-chem begins on Tue Jun  4 15:37:05 2013  

 Parallel job on  1  processors
Processing $rem in /usr/local/qchem/config/preferences.

theFileMan(): MAXOPENFILES=974 MAX_SUB_FILE_NUM=16
Maximum size of a physical file is 2.0 GB, maximum size of a tmp-file is 32.0 GB


--------------------------------------------------------------
User input:
--------------------------------------------------------------

$molecule
-1,2
Si        -0.00000        0.00000       -0.00000
Cl        -0.00000       -0.00000        2.09442
Cl         1.97464       -0.00000       -0.69814
Cl        -0.98732        1.71009       -0.69814
Cl        -0.98732       -1.71009       -0.69814
$end

$comment
negative
$end

$xc_functional
C PBE   1.00
X wPBE  1.00
$end

$rem
SYMMETRY_DECOMPOSITION	0
exchange 		general
LRC_DFT                 true
BASIS                   g3large
omega			400
mem_static              760
max_scf_cycles          200
scf_final_print         1
sym_ignore              true
$end

--------------------------------------------------------------
 Writing REM_CC_EA            5
 ----------------------------------------------------
       Standard Nuclear Orientation (Angstroms)
    I     Atom         X            Y            Z
 ----------------------------------------------------
    1      Si      0.000000     0.000000     0.000000
    2      Cl      0.000000     0.000000     2.094420
    3      Cl      1.974640     0.000000    -0.698140
    4      Cl     -0.987320     1.710090    -0.698140
    5      Cl     -0.987320    -1.710090    -0.698140
 ----------------------------------------------------
 Nuclear Repulsion Energy =   508.8208325231 hartrees
 There are       42 alpha and       41 beta electrons
 Requested basis set is G3large
 There are 95 shells and 330 basis functions

Total QAlloc Memory Limit   2000 MB
Mega-Array Size       743 MB
MEM_STATIC part       760 MB

                       Distance Matrix (Angstroms)
             Si(  1)   Cl(  2)   Cl(  3)   Cl(  4)
   Cl(  2)  2.094420
   Cl(  3)  2.094422  3.420175
   Cl(  4)  2.094423  3.420175  3.420178
   Cl(  5)  2.094423  3.420175  3.420178  3.420180
 
 A cutoff of  1.0D-08 yielded   3394 shell pairs
 There are  42765 function pairs ( 61004 Cartesian)
Evaluating contribution to one-electron hamiltonian from nuclear
 Smallest overlap matrix eigenvalue = 3.17E-04
 Multipole matrices computed through 2nd order

  Scale SEOQF with 1.000000e-01/1.000000e-01/1.000000e-01

 Standard Electronic Orientation quadrupole field applied
 Guess from superposition of atomic densities
 Warning:  Energy on first SCF cycle will be non-variational
 Long-range K will be added via erf
 Coulomb attenuation parameter = 0.4 bohr**(-1)
 An unrestricted Kohn-Sham SCF calculation will be
 performed using Pulay DIIS extrapolation
 Exchange:  wPBE + LR-HF      Correlation:  PBE
 Using SG-1 standard quadrature grid
 SCF converges when DIIS error is below 1.0E-05
 Requested basis set is G3large
 There are 95 shells and 330 basis functions
 A cutoff of  1.0D-08 yielded   3394 shell pairs
 There are  42765 function pairs ( 61004 Cartesian)
 Warning!  Inaccurate integrated density:
   Number of electrons =    83
   Numerical integral  =    81.999884338267
   Relative error      =    -1.2049586286 %
 ---------------------------------------
  Cycle       Energy         DIIS Error
 ---------------------------------------
    1   -2130.3540365024      1.69E-02
    2   -2129.8006660436      1.97E-03
    3   -2129.8423461468      1.52E-03
    4   -2129.8644622187      2.11E-04
    5   -2129.8652420478      8.77E-05
    6   -2129.8654347191      2.81E-05
    7   -2129.8654839373      7.57E-06 Convergence criterion met
 ---------------------------------------
 One-Electron    Energy = -3973.7782651474
 Total Coulomb   Energy =  1468.6896146070
 Alpha Exchange  Energy =    -8.6931742716
 Beta  Exchange  Energy =    -8.5348510930
 DFT   Exchange  Energy =  -113.1386368667
 DFT Correlation Energy =    -3.2310036887
 Nuclear Repu.   Energy =   508.8208325231
 Nuclear Attr.   Energy = -6101.3038140667
 Kinetic         Energy =  2127.5255489193
 <S^2> = 0.7552
 SCF time:  CPU 453.55 s  wall 457.09 s
 Final Alpha MO Eigenvalues
            1           2           3           4           5           6
    1-100.7070872-100.7063557-100.7062180-100.7061949 -65.5364903  -9.2314715
            7           8           9          10          11          12
    1  -9.2308416  -9.2307613  -9.2307060  -7.0467141  -7.0460147  -7.0459646
           13          14          15          16          17          18
    1  -7.0459223  -7.0413397  -7.0413082  -7.0407144  -7.0407125  -7.0406208
           19          20          21          22          23          24
    1  -7.0405884  -7.0405676  -7.0405480  -5.1877971  -3.5904013  -3.5903735
           25          26          27          28          29          30
    1  -3.5903564  -0.8455009  -0.8020343  -0.8017210  -0.8016371  -0.5066112
           31          32          33          34          35          36
    1  -0.3831267  -0.3829524  -0.3829210  -0.3137879  -0.3137868  -0.3027045
           37          38          39          40          41          42
    1  -0.3026488  -0.3025976  -0.2740300  -0.2739945  -0.2738516  -0.0095664
           43          44          45          46          47
    1   0.1753013   0.1893643   0.1893943   0.1894120   0.2342678
 Final Beta MO Eigenvalues
            1           2           3           4           5           6
    1-100.7060533-100.7053181-100.7051762-100.7051698 -65.5334028  -9.2304484
            7           8           9          10          11          12
    1  -9.2298132  -9.2297446  -9.2296741  -7.0443903  -7.0436615  -7.0435568
           13          14          15          16          17          18
    1  -7.0435074  -7.0405732  -7.0404862  -7.0399809  -7.0399783  -7.0398599
           19          20          21          22          23          24
    1  -7.0398308  -7.0397730  -7.0397580  -5.1836190  -3.5860844  -3.5860478
           25          26          27          28          29          30
    1  -3.5860300  -0.8375883  -0.7949384  -0.7946274  -0.7944950  -0.4821179
           31          32          33          34          35          36
    1  -0.3712401  -0.3711400  -0.3710909  -0.3110668  -0.3110628  -0.2947961
           37          38          39          40          41          42
    1  -0.2947749  -0.2947513  -0.2715554  -0.2715074  -0.2713566   0.1645640
           43          44          45          46
    1   0.1936341   0.1936768   0.1936993   0.2229243
 Analysis of SCF Wavefunction
 
 --------------------------------------------------------------
                    Orbital Energies (a.u.)
 --------------------------------------------------------------
 
 Alpha MOs
 -- Occupied --
*******-100.706-100.706-100.706 -65.536  -9.231  -9.231  -9.231
 -9.231  -7.047  -7.046  -7.046  -7.046  -7.041  -7.041  -7.041
 -7.041  -7.041  -7.041  -7.041  -7.041  -5.188  -3.590  -3.590
 -3.590  -0.846  -0.802  -0.802  -0.802  -0.507  -0.383  -0.383
 -0.383  -0.314  -0.314  -0.303  -0.303  -0.303  -0.274  -0.274
 -0.274  -0.010
 -- Virtual --
  0.175   0.189   0.189   0.189   0.234   0.234   0.234   0.264
  0.264   0.274   0.274   0.274   0.287   0.293   0.293   0.293
  0.323   0.323   0.323   0.330   0.330   0.330   0.334   0.406
  0.406   0.453   0.453   0.453   0.526   0.526   0.526   0.553
  0.553   0.553   0.569   0.569   0.575   0.575   0.575   0.623
  0.624   0.624   0.642   0.696   0.696   0.696   0.719   0.719
  0.725   0.739   0.739   0.739   0.812   0.832   0.832   0.832
  0.836   0.836   0.836   0.892   0.892   0.892   0.949   0.949
  1.040   1.049   1.049   1.049   1.094   1.094   1.136   1.136
  1.136   1.163   1.163   1.163   1.337   1.337   1.337   1.338
  1.338   1.338   1.363   1.363   1.378   1.378   1.378   1.381
  1.381   1.381   1.395   1.431   1.435   1.435   1.435   1.466
  1.466   1.467   1.475   1.475   1.475   1.475   1.475   1.567
  1.567   1.567   1.588   1.596   1.596   1.726   1.726   1.726
  1.783   1.800   1.800   1.800   1.850   1.850   1.850   1.898
  1.898   1.898   1.923   1.923   1.923   2.049   2.073   2.073
  2.186   2.186   2.187   2.402   2.465   2.465   2.502   2.502
  2.502   2.511   2.511   2.511   2.622   2.622   2.623   2.676
  2.676   2.676   2.787   2.787   2.788   2.941   3.931   3.932
  4.192   4.193   4.195   4.633   4.638   4.638   4.638   4.639
  4.639   4.639   4.658   4.658   4.671   4.720   4.720   4.720
  4.745   4.745   4.745   4.777   4.819   4.819   4.829   4.829
  4.830   4.836   4.836   4.837   4.858   4.858   4.858   5.309
  5.310   5.313   5.314   5.314   5.323   5.324   5.326   5.420
  5.421   5.421   5.461   5.461   5.462   5.502   5.567   5.567
  5.614   5.615   5.616   6.487  10.062  10.063  10.063  10.217
 11.804  11.805  11.805  17.735  17.815  17.816  17.896  17.955
 20.757  20.757  20.794  20.794  20.794  20.846  20.846  20.847
 21.041  21.050  21.051  21.051  22.306  22.307  22.313  22.316
 22.316  22.317  22.328  27.277  27.279  27.287  27.300  27.326
 27.337  27.354  27.356  27.356  27.364  27.374  27.383  27.397
 27.399  27.406  27.424  27.431  27.449  27.454  27.458  36.992
 36.992  36.992  36.992  36.993  36.993  36.994  36.995  36.996
 36.997  37.000  37.002  37.003  37.006  37.008  37.008  37.014
 37.015  37.015  37.017  37.018  37.018  37.018  37.018  37.019
 37.021  37.021  37.021 141.437 215.966 215.967 215.967 216.151
 
 Beta MOs
 -- Occupied --
*******-100.705-100.705-100.705 -65.533  -9.230  -9.230  -9.230
 -9.230  -7.044  -7.044  -7.044  -7.044  -7.041  -7.040  -7.040
 -7.040  -7.040  -7.040  -7.040  -7.040  -5.184  -3.586  -3.586
 -3.586  -0.838  -0.795  -0.795  -0.794  -0.482  -0.371  -0.371
 -0.371  -0.311  -0.311  -0.295  -0.295  -0.295  -0.272  -0.272
 -0.271
 -- Virtual --
  0.165   0.194   0.194   0.194   0.223   0.242   0.242   0.242
  0.265   0.265   0.286   0.286   0.286   0.294   0.294   0.294
  0.302   0.327   0.327   0.327   0.334   0.334   0.334   0.335
  0.409   0.409   0.463   0.463   0.463   0.528   0.528   0.528
  0.554   0.554   0.554   0.570   0.570   0.583   0.583   0.583
  0.628   0.628   0.628   0.651   0.700   0.700   0.700   0.721
  0.721   0.730   0.751   0.751   0.751   0.824   0.836   0.836
  0.836   0.837   0.837   0.837   0.896   0.896   0.896   0.963
  0.963   1.045   1.051   1.051   1.051   1.096   1.096   1.141
  1.141   1.142   1.170   1.170   1.170   1.342   1.342   1.342
  1.345   1.345   1.345   1.367   1.367   1.382   1.382   1.382
  1.386   1.386   1.386   1.402   1.431   1.441   1.441   1.441
  1.472   1.472   1.472   1.476   1.476   1.476   1.480   1.480
  1.572   1.572   1.572   1.590   1.602   1.602   1.729   1.729
  1.729   1.788   1.807   1.807   1.807   1.853   1.853   1.853
  1.902   1.902   1.902   1.927   1.927   1.927   2.056   2.076
  2.076   2.193   2.194   2.194   2.419   2.468   2.468   2.505
  2.505   2.505   2.530   2.530   2.530   2.626   2.626   2.626
  2.695   2.695   2.695   2.796   2.796   2.796   2.952   3.937
  3.938   4.198   4.199   4.201   4.637   4.641   4.642   4.642
  4.642   4.642   4.643   4.665   4.665   4.674   4.726   4.726
  4.726   4.752   4.752   4.752   4.785   4.827   4.827   4.837
  4.837   4.837   4.844   4.844   4.844   4.865   4.865   4.866
  5.310   5.311   5.314   5.315   5.315   5.325   5.325   5.327
  5.422   5.423   5.423   5.463   5.464   5.464   5.506   5.569
  5.570   5.617   5.618   5.618   6.494  10.064  10.065  10.065
 10.219  11.809  11.809  11.809  17.741  17.821  17.822  17.901
 17.960  20.757  20.758  20.795  20.795  20.795  20.847  20.847
 20.848  21.045  21.054  21.054  21.054  22.309  22.310  22.316
 22.318  22.319  22.320  22.331  27.278  27.280  27.288  27.301
 27.327  27.338  27.356  27.357  27.357  27.366  27.377  27.385
 27.399  27.401  27.408  27.427  27.433  27.451  27.457  27.460
 36.992  36.992  36.992  36.993  36.993  36.993  36.994  36.996
 36.996  36.997  37.001  37.003  37.004  37.007  37.009  37.009
 37.015  37.016  37.016  37.018  37.019  37.019  37.019  37.019
 37.020  37.022  37.022  37.022 141.441 215.968 215.968 215.968
216.152
 --------------------------------------------------------------
 
          Ground-State Mulliken Net Atomic Charges

     Atom                 Charge (a.u.)    Spin (a.u.)
  --------------------------------------------------------
      1 Si                    0.950063       0.846208
      2 Cl                   -0.487047       0.038266
      3 Cl                   -0.487245       0.037892
      4 Cl                   -0.488220       0.039579
      5 Cl                   -0.487552       0.038054
  --------------------------------------------------------
  Sum of atomic charges =    -1.000000
  Sum of spin   charges =     1.000000

 -----------------------------------------------------------------
                    Cartesian Multipole Moments
 -----------------------------------------------------------------
    Charge (ESU x 10^10)
                -4.8032
    Dipole Moment (Debye)
         X      -0.0182      Y       0.0064      Z      -0.0054
       Tot       0.0200
    Quadrupole Moments (Debye-Ang)
        XX     -78.4417     XY      -0.0161     YY     -78.3688
        XZ       0.0272     YZ      -0.0113     ZZ     -78.4300
    Octapole Moments (Debye-Ang^2)
       XXX     -12.3807    XXY       0.0252    XYY      12.1480
       YYY       0.0758    XXZ       8.6834    XYZ       0.0203
       YYZ       8.5878    XZZ      -0.0270    YZZ       0.0109
       ZZZ     -17.3505
    Hexadecapole Moments (Debye-Ang^3)
      XXXX    -631.9860   XXXY      -0.1262   XXYY    -210.4660
      XYYY      -0.1346   YYYY    -630.9054   XXXZ       8.4694
      XXYZ      -0.0316   XYYZ      -8.1911   YYYZ      -0.0950
      XXZZ    -204.7813   XYZZ      -0.0437   YYZZ    -204.6052
      XZZZ       0.1859   YZZZ      -0.0896   ZZZZ    -637.6649
 -----------------------------------------------------------------
 Total job time:  457.82s(wall), 454.22s(cpu) 
 Tue Jun  4 15:44:42 2013

        *************************************************************
        *                                                           *
        *  Thank you very much for using Q-Chem.  Have a nice day.  *
        *                                                           *
        *************************************************************


0 sent ACK to 0 
now end server 0 ... 
 
**********************************************************************
Job 2 of 3 
**********************************************************************
 
Process 0 of 1 is on cl112.stfx.acenet.ca - thread support 1
initial socket setup ...start
initial socket setup ...done 
now start server 0 ... 

cmd = /usr/bin/ssh clhead /usr/local/qchem/bin/get_hostid 1096097103 > /scratch/tmp/6028487.1.short.q/qchem7011/lic.dat
                  Welcome to Q-Chem
     A Quantum Leap Into The Future Of Chemistry

 Y. Shao, L. Fusti-Molnar, Y. Jung, J. Kussmann, C. Ochsenfeld,
 S. T. Brown, A. T. B. Gilbert, L. V. Slipchenko,S. V. Levchenko,
 D. P. O'Neill, R. A. DiStasio Jr., R. C. Lochan, T. Wang,
 G. J. O. Beran, N. A. Besley, J. M. Herbert, C. Y. Lin,
 T. Van Voorhis, S. H. Chien, A. Sodt, R. P. Steele, 
 V. A. Rassolov, P. E. Maslen, P. P. Korambath, R. D. Adamson,
 B. Austin, J. Baker, E. F. C. Byrd, H. Dachsel, R. J. Doerksen,
 A. Dreuw, B. D. Dunietz, A. D. Dutoi, T. R. Furlani,
 S. R. Gwaltney, A. Heyden, S. Hirata, C.-P. Hsu, G. Kedziora,
 R. Z. Khaliullin, P. Klunzinger, A. M. Lee, M. S. Lee, W. Liang,
 I. Lotan, N. Nair, B. Peters, E. I. Proynov, P. A. Pieniazek, 
 Y. M. Rhee, J. Ritchie, E. Rosta, C. D. Sherrill, 
 A. C. Simmonett, J. E. Subotnik, H. L. Woodcock III,
 W. Zhang, A. T. Bell, A. K. Chakraborty, D. M. Chipman,
 F. J. Keil, A. Warshel, W. J. Hehre, H. F. Schaefer III,
 J. Kong, A. I. Krylov, P. M. W. Gill, M. Head-Gordon,
 Q-Chem, Version 3.1, Q-Chem, Inc., Pittsburgh, PA (2007).

 Additional authors for Version 3.1: 
 Z. Gan, Y. Zhao, N. E. Schultz, D. Truhlar, E. Epifanovsky and M. Oana.

 Additional authors for Version 3.2: 
 R. Baer, B. R. Brooks, D. Casanova, J.-D. Chai, C.-L. Cheng, 
 C. Cramer, D. Crittenden, A. Ghysels, G. Hawkins, E. G. Hohenstein, 
 C. Kelley, W. Kurlancheek, D. Liotard, E. Livshits, P. Manohar, 
 A. Marenich, D. Neuhauser, R. Olson, M. A. Rohrdanz, K. S. Thanthiriwatte, 
 A. J. W. Thom, V. Vanovschi, C. F. Williams, Q. Wu and Z.-Q. You. 


 Intel X86 Linux Version

 Q-chem begins on Tue Jun  4 15:44:45 2013  

 Parallel job on  1  processors
Processing $rem in /usr/local/qchem/config/preferences.

theFileMan(): MAXOPENFILES=974 MAX_SUB_FILE_NUM=16
Maximum size of a physical file is 2.0 GB, maximum size of a tmp-file is 32.0 GB


--------------------------------------------------------------
User input:
--------------------------------------------------------------

$molecule
0,1
Si        -0.00000        0.00000       -0.00000
Cl        -0.00000       -0.00000        2.09442
Cl         1.97464       -0.00000       -0.69814
Cl        -0.98732        1.71009       -0.69814
Cl        -0.98732       -1.71009       -0.69814
$end

$comment
neutral
$end

$xc_functional
C PBE   1.00
X wPBE  1.00
$end


$rem
SYMMETRY_DECOMPOSITION	0
LRC_DFT                 true
exchange 		general
BASIS                   g3large
omega			400
mem_static              760
max_scf_cycles          200
scf_final_print         1
sym_ignore              true
$end

--------------------------------------------------------------
 Writing REM_CC_EA            5
 ----------------------------------------------------
       Standard Nuclear Orientation (Angstroms)
    I     Atom         X            Y            Z
 ----------------------------------------------------
    1      Si      0.000000     0.000000     0.000000
    2      Cl      0.000000     0.000000     2.094420
    3      Cl      1.974640     0.000000    -0.698140
    4      Cl     -0.987320     1.710090    -0.698140
    5      Cl     -0.987320    -1.710090    -0.698140
 ----------------------------------------------------
 Nuclear Repulsion Energy =   508.8208325231 hartrees
 There are       41 alpha and       41 beta electrons
 Requested basis set is G3large
 There are 95 shells and 330 basis functions

Total QAlloc Memory Limit   2000 MB
Mega-Array Size       743 MB
MEM_STATIC part       760 MB

                       Distance Matrix (Angstroms)
             Si(  1)   Cl(  2)   Cl(  3)   Cl(  4)
   Cl(  2)  2.094420
   Cl(  3)  2.094422  3.420175
   Cl(  4)  2.094423  3.420175  3.420178
   Cl(  5)  2.094423  3.420175  3.420178  3.420180
 
 A cutoff of  1.0D-08 yielded   3394 shell pairs
 There are  42765 function pairs ( 61004 Cartesian)
Evaluating contribution to one-electron hamiltonian from nuclear
 Smallest overlap matrix eigenvalue = 3.17E-04
 Multipole matrices computed through 2nd order

  Scale SEOQF with 1.000000e-01/1.000000e-01/1.000000e-01

 Standard Electronic Orientation quadrupole field applied
 Guess from superposition of atomic densities
 Warning:  Energy on first SCF cycle will be non-variational
 Long-range K will be added via erf
 Coulomb attenuation parameter = 0.4 bohr**(-1)
 A restricted Kohn-Sham SCF calculation will be
 performed using Pulay DIIS extrapolation
 Exchange:  wPBE + LR-HF      Correlation:  PBE
 Using SG-1 standard quadrature grid
 SCF converges when DIIS error is below 1.0E-05
 Requested basis set is G3large
 There are 95 shells and 330 basis functions
 A cutoff of  1.0D-08 yielded   3394 shell pairs
 There are  42765 function pairs ( 61004 Cartesian)
 ---------------------------------------
  Cycle       Energy         DIIS Error
 ---------------------------------------
    1   -2130.3540365024      1.69E-02
    2   -2129.7761200344      2.40E-03
    3   -2129.8042910747      2.39E-03
    4   -2129.8687346244      1.69E-04
    5   -2129.8692964860      6.30E-05
    6   -2129.8693935611      2.44E-05
    7   -2129.8694071527      5.28E-06 Convergence criterion met
 ---------------------------------------
 One-Electron    Energy = -3957.2806668522
 Total Coulomb   Energy =  1451.8826096401
 Alpha Exchange  Energy =    -8.5467557295
 Beta  Exchange  Energy =    -8.5467557295
 DFT   Exchange  Energy =  -112.9981212029
 DFT Correlation Energy =    -3.2005498017
 Nuclear Repu.   Energy =   508.8208325231
 Nuclear Attr.   Energy = -6083.7474150353
 Kinetic         Energy =  2126.4667481831
 SCF time:  CPU 343.91 s  wall 350.00 s
 Final Alpha MO Eigenvalues
            1           2           3           4           5           6
    1-100.9079832-100.9078977-100.9078928-100.9078076 -65.7942457  -9.4304579
            7           8           9          10          11          12
    1  -9.4304079  -9.4304011  -9.4303317  -7.2470094  -7.2468672  -7.2468498
           13          14          15          16          17          18
    1  -7.2467434  -7.2397438  -7.2397418  -7.2397415  -7.2397278  -7.2396454
           19          20          21          22          23          24
    1  -7.2396421  -7.2396187  -7.2395183  -5.4359752  -3.8388016  -3.8387826
           25          26          27          28          29          30
    1  -3.8387765  -1.0376106  -0.9905603  -0.9905483  -0.9905227  -0.6868620
           31          32          33          34          35          36
    1  -0.5688225  -0.5688127  -0.5688068  -0.4990736  -0.4990695  -0.4847179
           37          38          39          40          41          42
    1  -0.4846988  -0.4846835  -0.4590050  -0.4589900  -0.4589771   0.0155711
           43          44          45          46
    1   0.0545987   0.0674583   0.0674685   0.0674709
 Analysis of SCF Wavefunction
 
 --------------------------------------------------------------
                    Orbital Energies (a.u.)
 --------------------------------------------------------------
 
 Alpha MOs
 -- Occupied --
*******-100.908-100.908-100.908 -65.794  -9.430  -9.430  -9.430
 -9.430  -7.247  -7.247  -7.247  -7.247  -7.240  -7.240  -7.240
 -7.240  -7.240  -7.240  -7.240  -7.240  -5.436  -3.839  -3.839
 -3.839  -1.038  -0.991  -0.991  -0.991  -0.687  -0.569  -0.569
 -0.569  -0.499  -0.499  -0.485  -0.485  -0.485  -0.459  -0.459
 -0.459
 -- Virtual --
  0.016   0.055   0.067   0.067   0.067   0.089   0.089   0.089
  0.130   0.130   0.130   0.136   0.136   0.161   0.171   0.171
  0.171   0.188   0.188   0.188   0.200   0.207   0.207   0.207
  0.223   0.223   0.288   0.288   0.288   0.366   0.366   0.366
  0.379   0.380   0.380   0.397   0.397   0.421   0.421   0.421
  0.455   0.455   0.455   0.485   0.539   0.539   0.539   0.561
  0.561   0.569   0.569   0.569   0.573   0.642   0.657   0.657
  0.657   0.671   0.671   0.671   0.730   0.730   0.730   0.761
  0.761   0.862   0.875   0.875   0.875   0.920   0.920   0.955
  0.955   0.955   0.986   0.986   0.986   1.155   1.155   1.155
  1.160   1.160   1.160   1.185   1.185   1.201   1.201   1.201
  1.205   1.205   1.205   1.218   1.254   1.254   1.254   1.257
  1.290   1.290   1.290   1.293   1.293   1.296   1.296   1.296
  1.386   1.386   1.386   1.413   1.416   1.416   1.540   1.540
  1.540   1.613   1.618   1.618   1.619   1.671   1.671   1.671
  1.717   1.717   1.717   1.747   1.747   1.747   1.862   1.892
  1.892   1.995   1.995   1.995   2.204   2.281   2.281   2.314
  2.314   2.314   2.319   2.319   2.319   2.440   2.440   2.440
  2.479   2.479   2.479   2.593   2.593   2.593   2.749   3.703
  3.704   3.968   3.970   3.972   4.445   4.449   4.449   4.449
  4.450   4.450   4.451   4.468   4.468   4.483   4.530   4.530
  4.530   4.554   4.554   4.554   4.584   4.627   4.627   4.639
  4.639   4.639   4.646   4.646   4.646   4.668   4.668   4.668
  5.116   5.117   5.120   5.121   5.121   5.130   5.131   5.132
  5.226   5.227   5.227   5.266   5.267   5.267   5.306   5.373
  5.374   5.415   5.416   5.417   6.256   9.868   9.868   9.868
 10.023  11.560  11.560  11.560  17.489  17.568  17.570  17.649
 17.708  20.558  20.559  20.596  20.596  20.597  20.648  20.648
 20.649  20.841  20.851  20.851  20.851  22.057  22.058  22.064
 22.066  22.067  22.068  22.079  27.078  27.081  27.088  27.102
 27.127  27.138  27.155  27.157  27.158  27.166  27.175  27.185
 27.198  27.200  27.207  27.225  27.231  27.250  27.255  27.258
 36.793  36.793  36.794  36.794  36.794  36.794  36.795  36.796
 36.797  36.798  36.801  36.802  36.803  36.806  36.808  36.808
 36.813  36.815  36.815  36.817  36.818  36.818  36.818  36.818
 36.819  36.820  36.821  36.821 141.180 215.766 215.766 215.766
215.950
 --------------------------------------------------------------
 
          Ground-State Mulliken Net Atomic Charges

     Atom                 Charge (a.u.)
  ----------------------------------------
      1 Si                    1.510266
      2 Cl                   -0.377473
      3 Cl                   -0.378027
      4 Cl                   -0.377408
      5 Cl                   -0.377357
  ----------------------------------------
  Sum of atomic charges =     0.000000

 -----------------------------------------------------------------
                    Cartesian Multipole Moments
 -----------------------------------------------------------------
    Charge (ESU x 10^10)
                 0.0000
    Dipole Moment (Debye)
         X       0.0005      Y      -0.0016      Z       0.0010
       Tot       0.0020
    Quadrupole Moments (Debye-Ang)
        XX     -62.5488     XY       0.0000     YY     -62.5465
        XZ       0.0014     YZ       0.0010     ZZ     -62.5453
    Octapole Moments (Debye-Ang^2)
       XXX       2.5716    XXY      -0.0028    XYY      -2.5722
       YYY      -0.0083    XXZ      -1.8151    XYZ      -0.0003
       YYZ      -1.8191    XZZ      -0.0020    YZZ      -0.0026
       ZZZ       3.6420
    Hexadecapole Moments (Debye-Ang^3)
      XXXX    -492.0334   XXXY      -0.0048   XXYY    -164.0106
      XYYY       0.0009   YYYY    -492.0093   XXXZ      -5.6196
      XXYZ       0.0011   XYYZ       5.6290   YYYZ       0.0031
      XXZZ    -167.9850   XYZZ      -0.0011   YYZZ    -167.9815
      XZZZ       0.0073   YZZZ      -0.0019   ZZZZ    -488.0253
 -----------------------------------------------------------------
 Total job time:  350.68s(wall), 344.52s(cpu) 
 Tue Jun  4 15:50:36 2013

        *************************************************************
        *                                                           *
        *  Thank you very much for using Q-Chem.  Have a nice day.  *
        *                                                           *
        *************************************************************


0 sent ACK to 0 
now end server 0 ... 
 
**********************************************************************
Job 3 of 3 
**********************************************************************
 
Process 0 of 1 is on cl112.stfx.acenet.ca - thread support 1
initial socket setup ...start
initial socket setup ...done 
now start server 0 ... 

cmd = /usr/bin/ssh clhead /usr/local/qchem/bin/get_hostid 1116192364 > /scratch/tmp/6028487.1.short.q/qchem7011/lic.dat
                  Welcome to Q-Chem
     A Quantum Leap Into The Future Of Chemistry

 Y. Shao, L. Fusti-Molnar, Y. Jung, J. Kussmann, C. Ochsenfeld,
 S. T. Brown, A. T. B. Gilbert, L. V. Slipchenko,S. V. Levchenko,
 D. P. O'Neill, R. A. DiStasio Jr., R. C. Lochan, T. Wang,
 G. J. O. Beran, N. A. Besley, J. M. Herbert, C. Y. Lin,
 T. Van Voorhis, S. H. Chien, A. Sodt, R. P. Steele, 
 V. A. Rassolov, P. E. Maslen, P. P. Korambath, R. D. Adamson,
 B. Austin, J. Baker, E. F. C. Byrd, H. Dachsel, R. J. Doerksen,
 A. Dreuw, B. D. Dunietz, A. D. Dutoi, T. R. Furlani,
 S. R. Gwaltney, A. Heyden, S. Hirata, C.-P. Hsu, G. Kedziora,
 R. Z. Khaliullin, P. Klunzinger, A. M. Lee, M. S. Lee, W. Liang,
 I. Lotan, N. Nair, B. Peters, E. I. Proynov, P. A. Pieniazek, 
 Y. M. Rhee, J. Ritchie, E. Rosta, C. D. Sherrill, 
 A. C. Simmonett, J. E. Subotnik, H. L. Woodcock III,
 W. Zhang, A. T. Bell, A. K. Chakraborty, D. M. Chipman,
 F. J. Keil, A. Warshel, W. J. Hehre, H. F. Schaefer III,
 J. Kong, A. I. Krylov, P. M. W. Gill, M. Head-Gordon,
 Q-Chem, Version 3.1, Q-Chem, Inc., Pittsburgh, PA (2007).

 Additional authors for Version 3.1: 
 Z. Gan, Y. Zhao, N. E. Schultz, D. Truhlar, E. Epifanovsky and M. Oana.

 Additional authors for Version 3.2: 
 R. Baer, B. R. Brooks, D. Casanova, J.-D. Chai, C.-L. Cheng, 
 C. Cramer, D. Crittenden, A. Ghysels, G. Hawkins, E. G. Hohenstein, 
 C. Kelley, W. Kurlancheek, D. Liotard, E. Livshits, P. Manohar, 
 A. Marenich, D. Neuhauser, R. Olson, M. A. Rohrdanz, K. S. Thanthiriwatte, 
 A. J. W. Thom, V. Vanovschi, C. F. Williams, Q. Wu and Z.-Q. You. 


 Intel X86 Linux Version

 Q-chem begins on Tue Jun  4 15:50:39 2013  

 Parallel job on  1  processors
Processing $rem in /usr/local/qchem/config/preferences.

theFileMan(): MAXOPENFILES=974 MAX_SUB_FILE_NUM=16
Maximum size of a physical file is 2.0 GB, maximum size of a tmp-file is 32.0 GB


--------------------------------------------------------------
User input:
--------------------------------------------------------------

$molecule
1,2
Si        -0.00000        0.00000       -0.00000
Cl        -0.00000       -0.00000        2.09442
Cl         1.97464       -0.00000       -0.69814
Cl        -0.98732        1.71009       -0.69814
Cl        -0.98732       -1.71009       -0.69814
$end

$comment
positive
$end

$xc_functional
C PBE   1.00
X wPBE  1.00
$end

$rem
SYMMETRY_DECOMPOSITION	0
LRC_DFT                 true
exchange 		general
BASIS                   g3large
omega			400
mem_static              760
max_scf_cycles          200
scf_final_print         1
sym_ignore              true
$end

--------------------------------------------------------------
 Writing REM_CC_EA            5
 ----------------------------------------------------
       Standard Nuclear Orientation (Angstroms)
    I     Atom         X            Y            Z
 ----------------------------------------------------
    1      Si      0.000000     0.000000     0.000000
    2      Cl      0.000000     0.000000     2.094420
    3      Cl      1.974640     0.000000    -0.698140
    4      Cl     -0.987320     1.710090    -0.698140
    5      Cl     -0.987320    -1.710090    -0.698140
 ----------------------------------------------------
 Nuclear Repulsion Energy =   508.8208325231 hartrees
 There are       41 alpha and       40 beta electrons
 Requested basis set is G3large
 There are 95 shells and 330 basis functions

Total QAlloc Memory Limit   2000 MB
Mega-Array Size       743 MB
MEM_STATIC part       760 MB

                       Distance Matrix (Angstroms)
             Si(  1)   Cl(  2)   Cl(  3)   Cl(  4)
   Cl(  2)  2.094420
   Cl(  3)  2.094422  3.420175
   Cl(  4)  2.094423  3.420175  3.420178
   Cl(  5)  2.094423  3.420175  3.420178  3.420180
 
 A cutoff of  1.0D-08 yielded   3394 shell pairs
 There are  42765 function pairs ( 61004 Cartesian)
Evaluating contribution to one-electron hamiltonian from nuclear
 Smallest overlap matrix eigenvalue = 3.17E-04
 Multipole matrices computed through 2nd order

  Scale SEOQF with 1.000000e-01/1.000000e-01/1.000000e-01

 Standard Electronic Orientation quadrupole field applied
 Guess from superposition of atomic densities
 Warning:  Energy on first SCF cycle will be non-variational
 Long-range K will be added via erf
 Coulomb attenuation parameter = 0.4 bohr**(-1)
 An unrestricted Kohn-Sham SCF calculation will be
 performed using Pulay DIIS extrapolation
 Exchange:  wPBE + LR-HF      Correlation:  PBE
 Using SG-1 standard quadrature grid
 SCF converges when DIIS error is below 1.0E-05
 Requested basis set is G3large
 There are 95 shells and 330 basis functions
 A cutoff of  1.0D-08 yielded   3394 shell pairs
 There are  42765 function pairs ( 61004 Cartesian)
 Warning!  Inaccurate integrated density:
   Number of electrons =    81
   Numerical integral  =    81.999884338267
   Relative error      =     1.2344251090 %
 ---------------------------------------
  Cycle       Energy         DIIS Error
 ---------------------------------------
    1   -2130.3540365024      1.69E-02
    2   -2129.2728860061      2.70E-03
    3   -2129.3199114073      2.75E-03
    4   -2129.4101161525      2.61E-04
    5   -2129.4117104956      1.10E-04
    6   -2129.4123213338      5.42E-05
    7   -2129.4126603441      3.44E-05
    8   -2129.4129010140      2.37E-05
    9   -2129.4131753341      1.52E-05
   10   -2129.4133060547      1.05E-05
   11   -2129.4133720662      7.80E-06 Convergence criterion met
 ---------------------------------------
 One-Electron    Energy = -3939.7499719601
 Total Coulomb   Energy =  1434.4018181394
 Alpha Exchange  Energy =    -8.5654706176
 Beta  Exchange  Energy =    -8.3149806713
 DFT   Exchange  Energy =  -112.8451288324
 DFT Correlation Energy =    -3.1604706472
 Nuclear Repu.   Energy =   508.8208325231
 Nuclear Attr.   Energy = -6065.7904331896
 Kinetic         Energy =  2126.0404612295
 <S^2> = 0.7649
 SCF time:  CPU 652.86 s  wall 658.97 s
 Final Alpha MO Eigenvalues
            1           2           3           4           5           6
    1-101.1829361-101.1482292-101.1199456-101.0817677 -65.9939290  -9.7020057
            7           8           9          10          11          12
    1  -9.6678644  -9.6402221  -9.6028617  -7.5210564  -7.5150273  -7.5080760
           13          14          15          16          17          18
    1  -7.4843155  -7.4818378  -7.4747528  -7.4560052  -7.4531998  -7.4480311
           19          20          21          22          23          24
    1  -7.4201677  -7.4121410  -7.4117644  -5.6357745  -4.0394612  -4.0385391
           25          26          27          28          29          30
    1  -4.0376243  -1.2700976  -1.2301167  -1.2013881  -1.1662998  -0.8955172
           31          32          33          34          35          36
    1  -0.7920199  -0.7863374  -0.7631411  -0.7398190  -0.7215283  -0.7118715
           37          38          39          40          41          42
    1  -0.6910788  -0.6817550  -0.6766155  -0.6437747  -0.6385995  -0.1806184
           43          44          45          46
    1  -0.1175776  -0.1148857  -0.1126613  -0.0874674
 Final Beta MO Eigenvalues
            1           2           3           4           5           6
    1-101.1795099-101.1459062-101.1185255-101.0817362 -65.9940642  -9.6989380
            7           8           9          10          11          12
    1  -9.6657972  -9.6389610  -9.6028347  -7.5133234  -7.5120228  -7.5057307
           13          14          15          16          17          18
    1  -7.4812972  -7.4773467  -7.4734270  -7.4550746  -7.4496365  -7.4471317
           19          20          21          22          23          24
    1  -7.4201773  -7.4120130  -7.4117645  -5.6359762  -4.0397515  -4.0388466
           25          26          27          28          29          30
    1  -4.0377706  -1.2503681  -1.2088303  -1.1884614  -1.1646070  -0.8906771
           31          32          33          34          35          36
    1  -0.7842620  -0.7635371  -0.7597206  -0.7097077  -0.6863139  -0.6756631
           37          38          39          40          41          42
    1  -0.6547443  -0.6513965  -0.6365865  -0.6345390  -0.4520379  -0.1771506
           43          44          45
    1  -0.1146729  -0.1114771  -0.1093232
 Analysis of SCF Wavefunction
 
 --------------------------------------------------------------
                    Orbital Energies (a.u.)
 --------------------------------------------------------------
 
 Alpha MOs
 -- Occupied --
*******-101.148-101.120-101.082 -65.994  -9.702  -9.668  -9.640
 -9.603  -7.521  -7.515  -7.508  -7.484  -7.482  -7.475  -7.456
 -7.453  -7.448  -7.420  -7.412  -7.412  -5.636  -4.039  -4.039
 -4.038  -1.270  -1.230  -1.201  -1.166  -0.896  -0.792  -0.786
 -0.763  -0.740  -0.722  -0.712  -0.691  -0.682  -0.677  -0.644
 -0.639
 -- Virtual --
 -0.181  -0.118  -0.115  -0.113  -0.087  -0.049  -0.048  -0.046
 -0.011  -0.008  -0.002  -0.001  -0.001   0.016   0.021   0.028
  0.035   0.037   0.040   0.043   0.044   0.047   0.068   0.071
  0.074   0.077   0.114   0.117   0.123   0.170   0.174   0.192
  0.193   0.198   0.201   0.217   0.221   0.247   0.251   0.258
  0.260   0.273   0.284   0.316   0.359   0.366   0.367   0.379
  0.382   0.391   0.392   0.393   0.413   0.459   0.470   0.471
  0.472   0.476   0.495   0.505   0.555   0.558   0.559   0.569
  0.569   0.670   0.686   0.691   0.693   0.727   0.733   0.760
  0.768   0.773   0.797   0.798   0.801   0.944   0.945   0.949
  0.958   0.965   0.972   0.975   0.984   0.989   0.998   1.005
  1.010   1.019   1.023   1.030   1.042   1.052   1.058   1.072
  1.079   1.084   1.090   1.097   1.099   1.111   1.115   1.118
  1.179   1.187   1.201   1.222   1.225   1.226   1.322   1.340
  1.352   1.409   1.422   1.429   1.443   1.473   1.479   1.481
  1.519   1.525   1.532   1.553   1.557   1.558   1.663   1.700
  1.702   1.786   1.798   1.812   2.002   2.059   2.068   2.095
  2.113   2.115   2.118   2.127   2.131   2.234   2.240   2.246
  2.272   2.282   2.286   2.370   2.390   2.410   2.549   3.502
  3.503   3.763   3.771   3.777   4.177   4.180   4.209   4.217
  4.229   4.237   4.247   4.250   4.267   4.291   4.296   4.307
  4.319   4.322   4.336   4.345   4.369   4.395   4.407   4.410
  4.424   4.432   4.436   4.447   4.451   4.458   4.474   4.476
  4.855   4.858   4.890   4.892   4.914   4.915   4.937   4.942
  4.995   5.003   5.019   5.039   5.057   5.073   5.083   5.163
  5.167   5.178   5.204   5.233   6.056   9.612   9.646   9.681
  9.812  11.359  11.361  11.362  17.290  17.369  17.370  17.450
 17.509  20.311  20.317  20.350  20.374  20.386  20.421  20.448
 20.453  20.583  20.614  20.641  20.676  21.857  21.858  21.864
 21.866  21.867  21.868  21.879  26.806  26.850  26.869  26.885
 26.895  26.904  26.919  26.928  26.931  26.943  26.950  26.959
 26.968  26.980  27.002  27.008  27.014  27.029  27.045  27.078
 36.520  36.521  36.533  36.534  36.540  36.544  36.549  36.556
 36.559  36.566  36.568  36.577  36.578  36.580  36.586  36.587
 36.596  36.598  36.603  36.606  36.608  36.624  36.627  36.633
 36.636  36.640  36.642  36.644 140.980 215.503 215.539 215.576
215.733
 
 Beta MOs
 -- Occupied --
*******-101.146-101.119-101.082 -65.994  -9.699  -9.666  -9.639
 -9.603  -7.513  -7.512  -7.506  -7.481  -7.477  -7.473  -7.455
 -7.450  -7.447  -7.420  -7.412  -7.412  -5.636  -4.040  -4.039
 -4.038  -1.250  -1.209  -1.188  -1.165  -0.891  -0.784  -0.764
 -0.760  -0.710  -0.686  -0.676  -0.655  -0.651  -0.637  -0.635
 -- Virtual --
 -0.452  -0.177  -0.115  -0.111  -0.109  -0.087  -0.048  -0.047
 -0.045  -0.009  -0.006  -0.002  -0.001   0.000   0.017   0.028
  0.031   0.036   0.039   0.041   0.044   0.045   0.047   0.068
  0.074   0.076   0.078   0.119   0.120   0.124   0.186   0.187
  0.199   0.200   0.203   0.205   0.221   0.225   0.251   0.255
  0.261   0.270   0.277   0.286   0.317   0.368   0.369   0.371
  0.384   0.386   0.392   0.394   0.397   0.413   0.463   0.474
  0.474   0.475   0.488   0.498   0.506   0.559   0.560   0.562
  0.569   0.570   0.670   0.686   0.691   0.696   0.733   0.735
  0.762   0.770   0.774   0.801   0.802   0.803   0.954   0.958
  0.960   0.964   0.971   0.976   0.986   0.990   0.998   1.007
  1.011   1.015   1.025   1.028   1.033   1.047   1.063   1.064
  1.077   1.088   1.090   1.096   1.101   1.105   1.115   1.117
  1.121   1.185   1.192   1.203   1.228   1.229   1.229   1.331
  1.344   1.355   1.416   1.427   1.432   1.444   1.480   1.482
  1.484   1.523   1.529   1.534   1.560   1.560   1.563   1.666
  1.705   1.705   1.789   1.800   1.813   2.002   2.074   2.076
  2.110   2.114   2.116   2.117   2.130   2.134   2.237   2.247
  2.252   2.274   2.281   2.285   2.374   2.392   2.411   2.550
  3.502   3.503   3.764   3.771   3.777   4.207   4.211   4.229
  4.237   4.244   4.253   4.260   4.262   4.273   4.294   4.311
  4.319   4.329   4.331   4.344   4.348   4.380   4.409   4.412
  4.420   4.429   4.442   4.444   4.450   4.455   4.461   4.477
  4.480   4.864   4.868   4.895   4.898   4.917   4.919   4.939
  4.944   4.997   5.009   5.023   5.043   5.058   5.074   5.086
  5.166   5.169   5.180   5.205   5.234   6.056   9.618   9.650
  9.683   9.815  11.359  11.360  11.362  17.289  17.368  17.369
 17.449  17.509  20.320  20.322  20.359  20.378  20.390  20.424
 20.450  20.455  20.585  20.616  20.642  20.676  21.857  21.858
 21.864  21.866  21.867  21.868  21.879  26.814  26.856  26.872
 26.893  26.899  26.907  26.921  26.933  26.934  26.945  26.951
 26.962  26.971  26.983  27.003  27.009  27.016  27.030  27.045
 27.078  36.524  36.525  36.536  36.537  36.543  36.545  36.549
 36.558  36.561  36.567  36.570  36.578  36.579  36.581  36.587
 36.588  36.597  36.599  36.604  36.607  36.608  36.624  36.627
 36.633  36.636  36.640  36.642  36.644 140.980 215.506 215.541
215.576 215.734
 --------------------------------------------------------------
 
          Ground-State Mulliken Net Atomic Charges

     Atom                 Charge (a.u.)    Spin (a.u.)
  --------------------------------------------------------
      1 Si                    1.458548      -0.094947
      2 Cl                    0.015132       0.526654
      3 Cl                   -0.151731       0.209781
      4 Cl                   -0.077447       0.351756
      5 Cl                   -0.244503       0.006755
  --------------------------------------------------------
  Sum of atomic charges =     1.000000
  Sum of spin   charges =     1.000000

 -----------------------------------------------------------------
                    Cartesian Multipole Moments
 -----------------------------------------------------------------
    Charge (ESU x 10^10)
                 4.8032
    Dipole Moment (Debye)
         X       0.1188      Y       1.3964      Z       1.7185
       Tot       2.2175
    Quadrupole Moments (Debye-Ang)
        XX     -51.5486     XY      -2.0234     YY     -51.8800
        XZ      -0.1553     YZ      -1.3893     ZZ     -47.0558
    Octapole Moments (Debye-Ang^2)
       XXX      10.7044    XXY       1.7741    XYY     -10.1053
       YYY       5.2938    XXZ      -5.8395    XYZ      -0.1978
       YYZ      -6.2660    XZZ       0.2865    YZZ       1.8162
       ZZZ      22.6743
    Hexadecapole Moments (Debye-Ang^3)
      XXXX    -430.6541   XXXY      -5.2414   XXYY    -143.5774
      XYYY      -5.5750   YYYY    -433.0314   XXXZ     -12.1064
      XXYZ      -1.2167   XYYZ      11.2870   YYYZ      -3.9288
      XXZZ    -146.4234   XYZZ      -3.4094   YYZZ    -146.2503
      XZZZ      -0.1620   YZZZ      -5.2403   ZZZZ    -395.1004
 -----------------------------------------------------------------
 Total job time:  659.82s(wall), 653.48s(cpu) 
 Tue Jun  4 16:01:39 2013

        *************************************************************
        *                                                           *
        *  Thank you very much for using Q-Chem.  Have a nice day.  *
        *                                                           *
        *************************************************************


0 sent ACK to 0 
now end server 0 ... 
