Process 0 of 1 is on cl089.stfx.acenet.ca - thread support 1
initial socket setup ...start
initial socket setup ...done 
now start server 0 ... 

cmd = /usr/bin/ssh clhead /usr/local/qchem/bin/get_hostid 321591512 > /scratch/tmp/6062033.1.short.q/qchem32441/lic.dat
                  Welcome to Q-Chem
     A Quantum Leap Into The Future Of Chemistry

 Y. Shao, L. Fusti-Molnar, Y. Jung, J. Kussmann, C. Ochsenfeld,
 S. T. Brown, A. T. B. Gilbert, L. V. Slipchenko,S. V. Levchenko,
 D. P. O'Neill, R. A. DiStasio Jr., R. C. Lochan, T. Wang,
 G. J. O. Beran, N. A. Besley, J. M. Herbert, C. Y. Lin,
 T. Van Voorhis, S. H. Chien, A. Sodt, R. P. Steele, 
 V. A. Rassolov, P. E. Maslen, P. P. Korambath, R. D. Adamson,
 B. Austin, J. Baker, E. F. C. Byrd, H. Dachsel, R. J. Doerksen,
 A. Dreuw, B. D. Dunietz, A. D. Dutoi, T. R. Furlani,
 S. R. Gwaltney, A. Heyden, S. Hirata, C.-P. Hsu, G. Kedziora,
 R. Z. Khaliullin, P. Klunzinger, A. M. Lee, M. S. Lee, W. Liang,
 I. Lotan, N. Nair, B. Peters, E. I. Proynov, P. A. Pieniazek, 
 Y. M. Rhee, J. Ritchie, E. Rosta, C. D. Sherrill, 
 A. C. Simmonett, J. E. Subotnik, H. L. Woodcock III,
 W. Zhang, A. T. Bell, A. K. Chakraborty, D. M. Chipman,
 F. J. Keil, A. Warshel, W. J. Hehre, H. F. Schaefer III,
 J. Kong, A. I. Krylov, P. M. W. Gill, M. Head-Gordon,
 Q-Chem, Version 3.1, Q-Chem, Inc., Pittsburgh, PA (2007).

 Additional authors for Version 3.1: 
 Z. Gan, Y. Zhao, N. E. Schultz, D. Truhlar, E. Epifanovsky and M. Oana.

 Additional authors for Version 3.2: 
 R. Baer, B. R. Brooks, D. Casanova, J.-D. Chai, C.-L. Cheng, 
 C. Cramer, D. Crittenden, A. Ghysels, G. Hawkins, E. G. Hohenstein, 
 C. Kelley, W. Kurlancheek, D. Liotard, E. Livshits, P. Manohar, 
 A. Marenich, D. Neuhauser, R. Olson, M. A. Rohrdanz, K. S. Thanthiriwatte, 
 A. J. W. Thom, V. Vanovschi, C. F. Williams, Q. Wu and Z.-Q. You. 


 Intel X86 Linux Version

 Q-chem begins on Thu Jul  4 19:23:19 2013  

 Parallel job on  1  processors
Processing $rem in /usr/local/qchem/config/preferences.

theFileMan(): MAXOPENFILES=974 MAX_SUB_FILE_NUM=16
Maximum size of a physical file is 2.0 GB, maximum size of a tmp-file is 32.0 GB


--------------------------------------------------------------
User input:
--------------------------------------------------------------

$molecule
-1,2
C         -0.00209        0.00000        0.00680
C          0.00182        0.00000        1.31965
F          1.13207        0.00000       -0.70905
H         -0.88081        0.00000       -0.62956
H          0.92735        0.00000        1.88121
H         -0.93978        0.00000        1.85133
$end

$comment
negative
$end

$xc_functional
C PBE   1.00
X wPBE  1.00
$end

$rem
SYMMETRY_DECOMPOSITION	0
exchange 		general
LRC_DFT                 true
BASIS                   g3large
omega			370
mem_static              760
max_scf_cycles          200
scf_final_print         1
sym_ignore              true
$end

--------------------------------------------------------------
 Writing REM_CC_EA            6
 ----------------------------------------------------
       Standard Nuclear Orientation (Angstroms)
    I     Atom         X            Y            Z
 ----------------------------------------------------
    1      C      -0.002090     0.000000     0.006800
    2      C       0.001820     0.000000     1.319650
    3      F       1.132070     0.000000    -0.709050
    4      H      -0.880810     0.000000    -0.629560
    5      H       0.927350     0.000000     1.881210
    6      H      -0.939780     0.000000     1.851330
 ----------------------------------------------------
 Nuclear Repulsion Energy =    67.7640880342 hartrees
 There are       13 alpha and       12 beta electrons
 Requested basis set is G3large
 There are 48 shells and 156 basis functions

Total QAlloc Memory Limit   2000 MB
Mega-Array Size       743 MB
MEM_STATIC part       760 MB

                       Distance Matrix (Angstroms)
             C (  1)   C (  2)   F (  3)   H (  4)   H (  5)
   C (  2)  1.312856
   F (  3)  1.341179  2.322302
   H (  4)  1.084944  2.139733  2.014449
   H (  5)  2.092193  1.082569  2.598337  3.094093
   H (  6)  2.069191  1.081339  3.293647  2.481591  1.867369
 
 A cutoff of  1.0D-08 yielded   1115 shell pairs
 There are  11879 function pairs ( 14831 Cartesian)
Evaluating contribution to one-electron hamiltonian from nuclear
 Smallest overlap matrix eigenvalue = 1.04E-04
 Multipole matrices computed through 2nd order

  Scale SEOQF with 1.000000e-01/1.000000e-01/1.000000e-01

 Standard Electronic Orientation quadrupole field applied
 Nucleus-field energy     =    -0.0000000019 hartrees
 Guess from superposition of atomic densities
 Warning:  Energy on first SCF cycle will be non-variational
 Long-range K will be added via erf
 Coulomb attenuation parameter = 0.37 bohr**(-1)
 An unrestricted Kohn-Sham SCF calculation will be
 performed using Pulay DIIS extrapolation
 Exchange:  wPBE + LR-HF      Correlation:  PBE
 Using SG-1 standard quadrature grid
 SCF converges when DIIS error is below 1.0E-05
 Requested basis set is G3large
 There are 48 shells and 156 basis functions
 A cutoff of  1.0D-08 yielded   1115 shell pairs
 There are  11879 function pairs ( 14831 Cartesian)
 Warning!  Inaccurate integrated density:
   Number of electrons =    25
   Numerical integral  =    23.999812758972
   Relative error      =    -4.0007489641 %
 ---------------------------------------
  Cycle       Energy         DIIS Error
 ---------------------------------------
    1    -178.3170763398      3.48E-02
    2    -177.5621892323      5.73E-03
    3    -177.6184791731      4.90E-03
    4    -177.6811710225      3.82E-04
    5    -177.6832445852      2.56E-04
    6    -177.6845881072      1.89E-04
    7    -177.6856505873      1.53E-04
    8    -177.6879192396      1.84E-04
    9    -177.6845260220      1.83E-04
   10    -177.6827742611      2.43E-04
   11    -177.6827919312      2.48E-04
   12    -177.6832516760      1.78E-04
   13    -177.6836394131      7.45E-05
   14    -177.6842357768      8.39E-05
   15    -177.6844234313      8.66E-05
   16    -177.6835696078      7.97E-05
   17    -177.6832419990      6.90E-05
   18    -177.6833386867      2.34E-05
   19    -177.6834033019      2.05E-05
   20    -177.6834255261      2.08E-05
   21    -177.6833736101      1.88E-05
   22    -177.6832849038      1.66E-05
   23    -177.6832803868      1.70E-05
   24    -177.6832912844      9.52E-06 Convergence criterion met
 ---------------------------------------
 One-Electron    Energy =  -383.0657010151
 Total Coulomb   Energy =   160.1128697037
 Alpha Exchange  Energy =    -2.4022467514
 Beta  Exchange  Energy =    -2.2641938725
 DFT   Exchange  Energy =   -17.0180198862
 DFT Correlation Energy =    -0.8100874952
 Nuclear Repu.   Energy =    67.7640880323
 Nuclear Attr.   Energy =  -560.5283618662
 Kinetic         Energy =   177.4626608510
 <S^2> = 0.7555
 SCF time:  CPU 158.18 s  wall 160.38 s
 Final Alpha MO Eigenvalues
            1           2           3           4           5           6
    1 -24.2442898  -9.9067993  -9.8430601  -1.1170733  -0.6716142  -0.5140170
            7           8           9          10          11          12
    1  -0.4310361  -0.3765836  -0.3738607  -0.2980506  -0.2657856  -0.1698321
           13          14          15          16          17          18
    1   0.0684454   0.1711818   0.1792989   0.1861160   0.2495007   0.2677951
 Final Beta MO Eigenvalues
            1           2           3           4           5           6
    1 -24.2431893  -9.9000783  -9.8418132  -1.1140112  -0.6633596  -0.5026671
            7           8           9          10          11          12
    1  -0.4272960  -0.3711588  -0.3609417  -0.2962444  -0.2628572  -0.1334557
           13          14          15          16          17
    1   0.1725526   0.1835011   0.1871049   0.2508725   0.2675463
 Analysis of SCF Wavefunction
 
 --------------------------------------------------------------
                    Orbital Energies (a.u.)
 --------------------------------------------------------------
 
 Alpha MOs
 -- Occupied --
-24.244  -9.907  -9.843  -1.117  -0.672  -0.514  -0.431  -0.377
 -0.374  -0.298  -0.266  -0.170   0.068
 -- Virtual --
  0.171   0.179   0.186   0.250   0.268   0.281   0.309   0.322
  0.331   0.345   0.348   0.414   0.431   0.459   0.506   0.520
  0.586   0.608   0.624   0.683   0.755   0.766   0.801   0.807
  0.852   0.866   0.885   0.918   0.941   0.964   0.976   1.023
  1.071   1.104   1.204   1.224   1.303   1.323   1.373   1.455
  1.475   1.503   1.570   1.621   1.657   1.677   1.683   1.698
  1.740   1.803   1.826   1.936   2.039   2.249   2.378   2.489
  2.531   2.751   2.772   2.834   2.958   2.978   3.019   3.049
  3.075   3.117   3.165   3.210   3.304   3.397   3.424   3.435
  3.459   3.464   3.516   3.563   3.577   3.688   3.763   3.773
  3.885   3.898   3.949   4.028   4.077   4.084   4.294   4.326
  4.431   4.461   4.540   4.699   4.709   4.775   4.980   4.997
  5.420   5.540   5.637   5.874   6.222   6.476   6.599   6.907
  6.919   6.997   7.028   7.087   7.361   7.620   7.867   9.364
  9.417   9.744   9.921  10.205  24.188  25.025  27.435  27.630
 28.270  28.421  28.469  28.580  41.038  41.140  41.207  41.318
 41.322  41.391  41.469  41.477  41.528  41.583  50.312  50.332
 50.474  50.508  50.644  55.800  55.865  56.306  66.817
 
 Beta MOs
 -- Occupied --
-24.243  -9.900  -9.842  -1.114  -0.663  -0.503  -0.427  -0.371
 -0.361  -0.296  -0.263  -0.133
 -- Virtual --
  0.173   0.184   0.187   0.251   0.268   0.274   0.283   0.310
  0.337   0.348   0.359   0.386   0.417   0.434   0.467   0.510
  0.523   0.588   0.610   0.629   0.688   0.759   0.775   0.810
  0.820   0.864   0.871   0.908   0.925   0.946   0.984   0.989
  1.031   1.077   1.122   1.209   1.227   1.313   1.335   1.377
  1.459   1.494   1.508   1.573   1.629   1.662   1.680   1.688
  1.701   1.742   1.808   1.829   1.943   2.044   2.252   2.383
  2.494   2.540   2.756   2.779   2.838   2.984   2.987   3.030
  3.056   3.093   3.123   3.182   3.227   3.312   3.402   3.435
  3.445   3.467   3.483   3.524   3.571   3.601   3.701   3.768
  3.794   3.891   3.906   3.967   4.036   4.084   4.098   4.298
  4.333   4.437   4.462   4.545   4.707   4.711   4.779   4.980
  5.014   5.425   5.544   5.638   5.874   6.224   6.482   6.600
  6.910   6.921   6.998   7.030   7.089   7.365   7.621   7.869
  9.369   9.422   9.749   9.921  10.206  24.193  25.030  27.448
 27.641  28.274  28.422  28.472  28.582  41.044  41.152  41.210
 41.330  41.333  41.394  41.475  41.479  41.531  41.584  50.316
 50.336  50.477  50.507  50.644  55.804  55.866  56.307  66.818
 --------------------------------------------------------------
 
          Ground-State Mulliken Net Atomic Charges

     Atom                 Charge (a.u.)    Spin (a.u.)
  --------------------------------------------------------
      1 C                    -0.131114       0.330225
      2 C                    -0.884121       0.746022
      3 F                    -0.172146      -0.008452
      4 H                     0.061733      -0.045447
      5 H                     0.082418      -0.011158
      6 H                     0.043229      -0.011190
  --------------------------------------------------------
  Sum of atomic charges =    -1.000000
  Sum of spin   charges =     1.000000

 -----------------------------------------------------------------
                    Cartesian Multipole Moments
 -----------------------------------------------------------------
    Charge (ESU x 10^10)
                -4.8032
    Dipole Moment (Debye)
         X      -1.2537      Y      -0.1220      Z      -4.1764
       Tot       4.3622
    Quadrupole Moments (Debye-Ang)
        XX     -24.3511     XY       0.8319     YY     -31.1919
        XZ       1.2742     YZ       0.2332     ZZ     -34.7141
    Octapole Moments (Debye-Ang^2)
       XXX     -17.8540    XXY      -0.2093    XYY      -4.3447
       YYY      -0.8937    XXZ     -10.8423    XYZ       2.2396
       YYZ     -25.0336    XZZ      -5.5510    YZZ      -1.2845
       ZZZ     -55.5545
    Hexadecapole Moments (Debye-Ang^3)
      XXXX     -98.1689   XXXY       5.7864   XXYY     -32.5592
      XYYY       4.8848   YYYY     -98.0455   XXXZ      12.5205
      XXYZ       0.4603   XYYZ       2.8952   YYYZ       1.8282
      XXZZ     -56.8227   XYZZ       7.0701   YYZZ     -86.8840
      XZZZ      12.4859   YZZZ      -0.1044   ZZZZ    -270.3423
 -----------------------------------------------------------------
 Total job time:  160.56s(wall), 158.34s(cpu) 
 Thu Jul  4 19:26:00 2013

        *************************************************************
        *                                                           *
        *  Thank you very much for using Q-Chem.  Have a nice day.  *
        *                                                           *
        *************************************************************


0 sent ACK to 0 
now end server 0 ... 
 
**********************************************************************
Job 2 of 3 
**********************************************************************
 
Process 0 of 1 is on cl089.stfx.acenet.ca - thread support 1
initial socket setup ...start
initial socket setup ...done 
now start server 0 ... 

cmd = /usr/bin/ssh clhead /usr/local/qchem/bin/get_hostid 1984774972 > /scratch/tmp/6062033.1.short.q/qchem32441/lic.dat
                  Welcome to Q-Chem
     A Quantum Leap Into The Future Of Chemistry

 Y. Shao, L. Fusti-Molnar, Y. Jung, J. Kussmann, C. Ochsenfeld,
 S. T. Brown, A. T. B. Gilbert, L. V. Slipchenko,S. V. Levchenko,
 D. P. O'Neill, R. A. DiStasio Jr., R. C. Lochan, T. Wang,
 G. J. O. Beran, N. A. Besley, J. M. Herbert, C. Y. Lin,
 T. Van Voorhis, S. H. Chien, A. Sodt, R. P. Steele, 
 V. A. Rassolov, P. E. Maslen, P. P. Korambath, R. D. Adamson,
 B. Austin, J. Baker, E. F. C. Byrd, H. Dachsel, R. J. Doerksen,
 A. Dreuw, B. D. Dunietz, A. D. Dutoi, T. R. Furlani,
 S. R. Gwaltney, A. Heyden, S. Hirata, C.-P. Hsu, G. Kedziora,
 R. Z. Khaliullin, P. Klunzinger, A. M. Lee, M. S. Lee, W. Liang,
 I. Lotan, N. Nair, B. Peters, E. I. Proynov, P. A. Pieniazek, 
 Y. M. Rhee, J. Ritchie, E. Rosta, C. D. Sherrill, 
 A. C. Simmonett, J. E. Subotnik, H. L. Woodcock III,
 W. Zhang, A. T. Bell, A. K. Chakraborty, D. M. Chipman,
 F. J. Keil, A. Warshel, W. J. Hehre, H. F. Schaefer III,
 J. Kong, A. I. Krylov, P. M. W. Gill, M. Head-Gordon,
 Q-Chem, Version 3.1, Q-Chem, Inc., Pittsburgh, PA (2007).

 Additional authors for Version 3.1: 
 Z. Gan, Y. Zhao, N. E. Schultz, D. Truhlar, E. Epifanovsky and M. Oana.

 Additional authors for Version 3.2: 
 R. Baer, B. R. Brooks, D. Casanova, J.-D. Chai, C.-L. Cheng, 
 C. Cramer, D. Crittenden, A. Ghysels, G. Hawkins, E. G. Hohenstein, 
 C. Kelley, W. Kurlancheek, D. Liotard, E. Livshits, P. Manohar, 
 A. Marenich, D. Neuhauser, R. Olson, M. A. Rohrdanz, K. S. Thanthiriwatte, 
 A. J. W. Thom, V. Vanovschi, C. F. Williams, Q. Wu and Z.-Q. You. 


 Intel X86 Linux Version

 Q-chem begins on Thu Jul  4 19:26:03 2013  

 Parallel job on  1  processors
Processing $rem in /usr/local/qchem/config/preferences.

theFileMan(): MAXOPENFILES=974 MAX_SUB_FILE_NUM=16
Maximum size of a physical file is 2.0 GB, maximum size of a tmp-file is 32.0 GB


--------------------------------------------------------------
User input:
--------------------------------------------------------------

$molecule
0,1
C         -0.00209        0.00000        0.00680
C          0.00182        0.00000        1.31965
F          1.13207        0.00000       -0.70905
H         -0.88081        0.00000       -0.62956
H          0.92735        0.00000        1.88121
H         -0.93978        0.00000        1.85133
$end

$comment
neutral
$end

$xc_functional
C PBE   1.00
X wPBE  1.00
$end


$rem
SYMMETRY_DECOMPOSITION	0
LRC_DFT                 true
exchange 		general
BASIS                   g3large
omega			370
mem_static              760
max_scf_cycles          200
scf_final_print         1
sym_ignore              true
$end

--------------------------------------------------------------
 Writing REM_CC_EA            6
 ----------------------------------------------------
       Standard Nuclear Orientation (Angstroms)
    I     Atom         X            Y            Z
 ----------------------------------------------------
    1      C      -0.002090     0.000000     0.006800
    2      C       0.001820     0.000000     1.319650
    3      F       1.132070     0.000000    -0.709050
    4      H      -0.880810     0.000000    -0.629560
    5      H       0.927350     0.000000     1.881210
    6      H      -0.939780     0.000000     1.851330
 ----------------------------------------------------
 Nuclear Repulsion Energy =    67.7640880342 hartrees
 There are       12 alpha and       12 beta electrons
 Requested basis set is G3large
 There are 48 shells and 156 basis functions

Total QAlloc Memory Limit   2000 MB
Mega-Array Size       743 MB
MEM_STATIC part       760 MB

                       Distance Matrix (Angstroms)
             C (  1)   C (  2)   F (  3)   H (  4)   H (  5)
   C (  2)  1.312856
   F (  3)  1.341179  2.322302
   H (  4)  1.084944  2.139733  2.014449
   H (  5)  2.092193  1.082569  2.598337  3.094093
   H (  6)  2.069191  1.081339  3.293647  2.481591  1.867369
 
 A cutoff of  1.0D-08 yielded   1115 shell pairs
 There are  11879 function pairs ( 14831 Cartesian)
Evaluating contribution to one-electron hamiltonian from nuclear
 Smallest overlap matrix eigenvalue = 1.04E-04
 Multipole matrices computed through 2nd order

  Scale SEOQF with 1.000000e-01/1.000000e-01/1.000000e-01

 Standard Electronic Orientation quadrupole field applied
 Nucleus-field energy     =    -0.0000000019 hartrees
 Guess from superposition of atomic densities
 Warning:  Energy on first SCF cycle will be non-variational
 Long-range K will be added via erf
 Coulomb attenuation parameter = 0.37 bohr**(-1)
 A restricted Kohn-Sham SCF calculation will be
 performed using Pulay DIIS extrapolation
 Exchange:  wPBE + LR-HF      Correlation:  PBE
 Using SG-1 standard quadrature grid
 SCF converges when DIIS error is below 1.0E-05
 Requested basis set is G3large
 There are 48 shells and 156 basis functions
 A cutoff of  1.0D-08 yielded   1115 shell pairs
 There are  11879 function pairs ( 14831 Cartesian)
 ---------------------------------------
  Cycle       Energy         DIIS Error
 ---------------------------------------
    1    -178.3170763398      3.48E-02
    2    -177.7095550585      4.33E-03
    3    -177.7305452058      3.65E-03
    4    -177.7561660328      5.58E-04
    5    -177.7569981593      2.16E-04
    6    -177.7571681588      9.53E-05
    7    -177.7571960767      2.04E-05
    8    -177.7571960755      7.43E-06 Convergence criterion met
 ---------------------------------------
 One-Electron    Energy =  -377.5818480388
 Total Coulomb   Energy =   154.3376114589
 Alpha Exchange  Energy =    -2.2725834148
 Beta  Exchange  Energy =    -2.2725834148
 DFT   Exchange  Energy =   -16.9439805065
 DFT Correlation Energy =    -0.7879001918
 Nuclear Repu.   Energy =    67.7640880323
 Nuclear Attr.   Energy =  -554.7863516644
 Kinetic         Energy =   177.2045036256
 SCF time:  CPU 41.66 s  wall 42.33 s
 Final Alpha MO Eigenvalues
            1           2           3           4           5           6
    1 -24.4652780 -10.1748111 -10.0889646  -1.3371638  -0.9103585  -0.7383165
            7           8           9          10          11          12
    1  -0.6573794  -0.6068467  -0.5869828  -0.5272849  -0.4911009  -0.3856851
           13          14          15          16          17
    1   0.0435129   0.0566462   0.0656496   0.0795068   0.1120636
 Analysis of SCF Wavefunction
 
 --------------------------------------------------------------
                    Orbital Energies (a.u.)
 --------------------------------------------------------------
 
 Alpha MOs
 -- Occupied --
-24.465 -10.175 -10.089  -1.337  -0.910  -0.738  -0.657  -0.607
 -0.587  -0.527  -0.491  -0.386
 -- Virtual --
  0.044   0.057   0.066   0.080   0.112   0.116   0.135   0.169
  0.173   0.174   0.196   0.206   0.231   0.242   0.277   0.338
  0.353   0.415   0.432   0.450   0.492   0.552   0.563   0.593
  0.598   0.639   0.670   0.682   0.716   0.734   0.751   0.772
  0.813   0.865   0.888   0.994   1.013   1.093   1.110   1.162
  1.245   1.259   1.290   1.372   1.407   1.459   1.466   1.467
  1.497   1.532   1.589   1.613   1.719   1.826   2.042   2.165
  2.274   2.310   2.530   2.545   2.605   2.720   2.747   2.780
  2.819   2.837   2.893   2.929   2.974   3.067   3.161   3.190
  3.199   3.225   3.227   3.282   3.327   3.343   3.455   3.531
  3.542   3.652   3.664   3.708   3.792   3.843   3.849   4.066
  4.095   4.197   4.226   4.306   4.464   4.474   4.535   4.746
  4.754   5.180   5.304   5.401   5.640   5.985   6.264   6.386
  6.694   6.705   6.781   6.812   6.870   7.141   7.400   7.642
  9.150   9.203   9.528   9.705   9.988  23.934  24.770  27.178
 27.379  28.006  28.172  28.209  28.329  40.779  40.875  40.960
 41.053  41.060  41.144  41.216  41.217  41.273  41.330  50.093
 50.113  50.254  50.287  50.423  55.580  55.645  56.085  66.597
 --------------------------------------------------------------
 
          Ground-State Mulliken Net Atomic Charges

     Atom                 Charge (a.u.)
  ----------------------------------------
      1 C                    -0.076116
      2 C                    -0.143860
      3 F                    -0.116958
      4 H                     0.131450
      5 H                     0.119166
      6 H                     0.086318
  ----------------------------------------
  Sum of atomic charges =     0.000000

 -----------------------------------------------------------------
                    Cartesian Multipole Moments
 -----------------------------------------------------------------
    Charge (ESU x 10^10)
                 0.0000
    Dipole Moment (Debye)
         X      -1.2572      Y      -0.0002      Z       0.7180
       Tot       1.4478
    Quadrupole Moments (Debye-Ang)
        XX     -17.5418     XY       0.0002     YY     -19.1279
        XZ       1.3935     YZ      -0.0003     ZZ     -16.2204
    Octapole Moments (Debye-Ang^2)
       XXX     -16.8654    XXY       0.0001    XYY      -4.6535
       YYY      -0.0012    XXZ      -3.2591    XYZ      -0.0001
       YYZ      -7.4423    XZZ      -5.6829    YZZ      -0.0002
       ZZZ     -13.5224
    Hexadecapole Moments (Debye-Ang^3)
      XXXX     -64.7625   XXXY       0.0008   XXYY     -14.5776
      XYYY       0.0006   YYYY     -20.1726   XXXZ      11.9717
      XXYZ      -0.0005   XYYZ       3.7010   YYYZ      -0.0011
      XXZZ     -26.3424   XYZZ       0.0006   YYZZ     -25.0924
      XZZZ      11.9294   YZZZ      -0.0011   ZZZZ    -112.3453
 -----------------------------------------------------------------
 Total job time:  42.49s(wall), 41.82s(cpu) 
 Thu Jul  4 19:26:45 2013

        *************************************************************
        *                                                           *
        *  Thank you very much for using Q-Chem.  Have a nice day.  *
        *                                                           *
        *************************************************************


0 sent ACK to 0 
now end server 0 ... 
 
**********************************************************************
Job 3 of 3 
**********************************************************************
 
Process 0 of 1 is on cl089.stfx.acenet.ca - thread support 1
initial socket setup ...start
initial socket setup ...done 
now start server 0 ... 

cmd = /usr/bin/ssh clhead /usr/local/qchem/bin/get_hostid 1967197562 > /scratch/tmp/6062033.1.short.q/qchem32441/lic.dat
                  Welcome to Q-Chem
     A Quantum Leap Into The Future Of Chemistry

 Y. Shao, L. Fusti-Molnar, Y. Jung, J. Kussmann, C. Ochsenfeld,
 S. T. Brown, A. T. B. Gilbert, L. V. Slipchenko,S. V. Levchenko,
 D. P. O'Neill, R. A. DiStasio Jr., R. C. Lochan, T. Wang,
 G. J. O. Beran, N. A. Besley, J. M. Herbert, C. Y. Lin,
 T. Van Voorhis, S. H. Chien, A. Sodt, R. P. Steele, 
 V. A. Rassolov, P. E. Maslen, P. P. Korambath, R. D. Adamson,
 B. Austin, J. Baker, E. F. C. Byrd, H. Dachsel, R. J. Doerksen,
 A. Dreuw, B. D. Dunietz, A. D. Dutoi, T. R. Furlani,
 S. R. Gwaltney, A. Heyden, S. Hirata, C.-P. Hsu, G. Kedziora,
 R. Z. Khaliullin, P. Klunzinger, A. M. Lee, M. S. Lee, W. Liang,
 I. Lotan, N. Nair, B. Peters, E. I. Proynov, P. A. Pieniazek, 
 Y. M. Rhee, J. Ritchie, E. Rosta, C. D. Sherrill, 
 A. C. Simmonett, J. E. Subotnik, H. L. Woodcock III,
 W. Zhang, A. T. Bell, A. K. Chakraborty, D. M. Chipman,
 F. J. Keil, A. Warshel, W. J. Hehre, H. F. Schaefer III,
 J. Kong, A. I. Krylov, P. M. W. Gill, M. Head-Gordon,
 Q-Chem, Version 3.1, Q-Chem, Inc., Pittsburgh, PA (2007).

 Additional authors for Version 3.1: 
 Z. Gan, Y. Zhao, N. E. Schultz, D. Truhlar, E. Epifanovsky and M. Oana.

 Additional authors for Version 3.2: 
 R. Baer, B. R. Brooks, D. Casanova, J.-D. Chai, C.-L. Cheng, 
 C. Cramer, D. Crittenden, A. Ghysels, G. Hawkins, E. G. Hohenstein, 
 C. Kelley, W. Kurlancheek, D. Liotard, E. Livshits, P. Manohar, 
 A. Marenich, D. Neuhauser, R. Olson, M. A. Rohrdanz, K. S. Thanthiriwatte, 
 A. J. W. Thom, V. Vanovschi, C. F. Williams, Q. Wu and Z.-Q. You. 


 Intel X86 Linux Version

 Q-chem begins on Thu Jul  4 19:26:48 2013  

 Parallel job on  1  processors
Processing $rem in /usr/local/qchem/config/preferences.

theFileMan(): MAXOPENFILES=974 MAX_SUB_FILE_NUM=16
Maximum size of a physical file is 2.0 GB, maximum size of a tmp-file is 32.0 GB


--------------------------------------------------------------
User input:
--------------------------------------------------------------

$molecule
1,2
C         -0.00209        0.00000        0.00680
C          0.00182        0.00000        1.31965
F          1.13207        0.00000       -0.70905
H         -0.88081        0.00000       -0.62956
H          0.92735        0.00000        1.88121
H         -0.93978        0.00000        1.85133
$end

$comment
positive
$end

$xc_functional
C PBE   1.00
X wPBE  1.00
$end

$rem
SYMMETRY_DECOMPOSITION	0
LRC_DFT                 true
exchange 		general
BASIS                   g3large
omega			370
mem_static              760
max_scf_cycles          200
scf_final_print         1
sym_ignore              true
$end

--------------------------------------------------------------
 Writing REM_CC_EA            6
 ----------------------------------------------------
       Standard Nuclear Orientation (Angstroms)
    I     Atom         X            Y            Z
 ----------------------------------------------------
    1      C      -0.002090     0.000000     0.006800
    2      C       0.001820     0.000000     1.319650
    3      F       1.132070     0.000000    -0.709050
    4      H      -0.880810     0.000000    -0.629560
    5      H       0.927350     0.000000     1.881210
    6      H      -0.939780     0.000000     1.851330
 ----------------------------------------------------
 Nuclear Repulsion Energy =    67.7640880342 hartrees
 There are       12 alpha and       11 beta electrons
 Requested basis set is G3large
 There are 48 shells and 156 basis functions

Total QAlloc Memory Limit   2000 MB
Mega-Array Size       743 MB
MEM_STATIC part       760 MB

                       Distance Matrix (Angstroms)
             C (  1)   C (  2)   F (  3)   H (  4)   H (  5)
   C (  2)  1.312856
   F (  3)  1.341179  2.322302
   H (  4)  1.084944  2.139733  2.014449
   H (  5)  2.092193  1.082569  2.598337  3.094093
   H (  6)  2.069191  1.081339  3.293647  2.481591  1.867369
 
 A cutoff of  1.0D-08 yielded   1115 shell pairs
 There are  11879 function pairs ( 14831 Cartesian)
Evaluating contribution to one-electron hamiltonian from nuclear
 Smallest overlap matrix eigenvalue = 1.04E-04
 Multipole matrices computed through 2nd order

  Scale SEOQF with 1.000000e-01/1.000000e-01/1.000000e-01

 Standard Electronic Orientation quadrupole field applied
 Nucleus-field energy     =    -0.0000000019 hartrees
 Guess from superposition of atomic densities
 Warning:  Energy on first SCF cycle will be non-variational
 Long-range K will be added via erf
 Coulomb attenuation parameter = 0.37 bohr**(-1)
 An unrestricted Kohn-Sham SCF calculation will be
 performed using Pulay DIIS extrapolation
 Exchange:  wPBE + LR-HF      Correlation:  PBE
 Using SG-1 standard quadrature grid
 SCF converges when DIIS error is below 1.0E-05
 Requested basis set is G3large
 There are 48 shells and 156 basis functions
 A cutoff of  1.0D-08 yielded   1115 shell pairs
 There are  11879 function pairs ( 14831 Cartesian)
 Warning!  Inaccurate integrated density:
   Number of electrons =    23
   Numerical integral  =    23.999812758972
   Relative error      =     4.3470119955 %
 ---------------------------------------
  Cycle       Energy         DIIS Error
 ---------------------------------------
    1    -178.3170763398      3.48E-02
    2    -177.2932958949      4.44E-03
    3    -177.3265657477      4.40E-03
    4    -177.3650033545      1.12E-03
    5    -177.3684561135      2.75E-04
    6    -177.3695219431      1.08E-04
    7    -177.3699333308      5.89E-05
    8    -177.3701126126      2.69E-05
    9    -177.3701644933      1.03E-05
   10    -177.3701725496      3.45E-06 Convergence criterion met
 ---------------------------------------
 One-Electron    Energy =  -370.0947782581
 Total Coulomb   Energy =   146.9130716089
 Alpha Exchange  Energy =    -2.2849761521
 Beta  Exchange  Energy =    -2.1028891127
 DFT   Exchange  Energy =   -16.8164994467
 DFT Correlation Energy =    -0.7481892211
 Nuclear Repu.   Energy =    67.7640880323
 Nuclear Attr.   Energy =  -547.0432118919
 Kinetic         Energy =   176.9484336337
 <S^2> = 0.7533
 SCF time:  CPU 64.03 s  wall 65.02 s
 Final Alpha MO Eigenvalues
            1           2           3           4           5           6
    1 -24.7795398 -10.5220586 -10.4412643  -1.6395074  -1.2573861  -1.0388461
            7           8           9          10          11          12
    1  -0.9591364  -0.9178269  -0.8989882  -0.8266313  -0.7877284  -0.7358375
           13          14          15          16          17
    1  -0.2278480  -0.1184092  -0.0959452  -0.0881182  -0.0722783
 Final Beta MO Eigenvalues
            1           2           3           4           5           6
    1 -24.7749377 -10.5173680 -10.4328519  -1.6304811  -1.2199331  -1.0275208
            7           8           9          10          11          12
    1  -0.9530181  -0.9091127  -0.8573204  -0.8211704  -0.7824955  -0.3872889
           13          14          15          16
    1  -0.1606261  -0.1162051  -0.0937930  -0.0843275
 Analysis of SCF Wavefunction
 
 --------------------------------------------------------------
                    Orbital Energies (a.u.)
 --------------------------------------------------------------
 
 Alpha MOs
 -- Occupied --
-24.780 -10.522 -10.441  -1.640  -1.257  -1.039  -0.959  -0.918
 -0.899  -0.827  -0.788  -0.736
 -- Virtual --
 -0.228  -0.118  -0.096  -0.088  -0.072  -0.064  -0.035  -0.018
 -0.009   0.002   0.017   0.030   0.035   0.052   0.062   0.134
  0.146   0.185   0.234   0.254   0.264   0.309   0.316   0.319
  0.347   0.360   0.412   0.430   0.463   0.470   0.485   0.513
  0.554   0.599   0.613   0.743   0.751   0.835   0.844   0.903
  0.978   0.987   1.021   1.123   1.126   1.192   1.202   1.206
  1.244   1.279   1.324   1.354   1.446   1.554   1.770   1.874
  1.988   2.009   2.237   2.255   2.302   2.374   2.427   2.431
  2.492   2.515   2.595   2.598   2.647   2.737   2.844   2.866
  2.870   2.906   2.915   2.971   3.015   3.019   3.137   3.213
  3.224   3.343   3.365   3.370   3.473   3.515   3.537   3.771
  3.797   3.904   3.928   4.011   4.166   4.171   4.214   4.399
  4.449   4.855   5.004   5.095   5.342   5.681   5.957   6.095
  6.398   6.409   6.487   6.516   6.572   6.838   7.104   7.341
  8.841   8.894   9.218   9.409   9.689  23.587  24.421  26.821
 27.019  27.663  27.826  27.863  27.983  40.428  40.525  40.603
 40.702  40.707  40.786  40.860  40.871  40.925  40.984  49.775
 49.796  49.935  49.978  50.112  55.261  55.335  55.773  66.284
 
 Beta MOs
 -- Occupied --
-24.775 -10.517 -10.433  -1.630  -1.220  -1.028  -0.953  -0.909
 -0.857  -0.821  -0.782
 -- Virtual --
 -0.387  -0.161  -0.116  -0.094  -0.084  -0.070  -0.058  -0.033
 -0.011  -0.002   0.004   0.019   0.036   0.036   0.054   0.067
  0.137   0.152   0.193   0.236   0.256   0.267   0.316   0.322
  0.342   0.364   0.386   0.434   0.436   0.477   0.485   0.492
  0.525   0.563   0.618   0.619   0.747   0.758   0.844   0.855
  0.908   0.992   0.995   1.028   1.128   1.143   1.203   1.210
  1.213   1.247   1.283   1.331   1.359   1.457   1.561   1.777
  1.887   1.998   2.023   2.250   2.263   2.311   2.412   2.449
  2.470   2.533   2.535   2.604   2.626   2.672   2.773   2.861
  2.895   2.900   2.927   2.930   2.980   3.035   3.044   3.161
  3.235   3.239   3.352   3.373   3.406   3.493   3.544   3.550
  3.777   3.803   3.912   3.931   4.021   4.176   4.177   4.222
  4.440   4.452   4.871   5.009   5.099   5.345   5.685   5.979
  6.099   6.410   6.421   6.492   6.524   6.582   6.850   7.106
  7.345   8.860   8.914   9.237   9.412   9.696  23.595  24.430
 26.840  27.041  27.666  27.831  27.867  27.987  40.437  40.534
 40.621  40.713  40.718  40.803  40.873  40.875  40.930  40.987
 49.789  49.809  49.949  49.979  50.116  55.275  55.338  55.776
 66.289
 --------------------------------------------------------------
 
          Ground-State Mulliken Net Atomic Charges

     Atom                 Charge (a.u.)    Spin (a.u.)
  --------------------------------------------------------
      1 C                     0.147996       0.324045
      2 C                     0.186122       0.583647
      3 F                     0.075148       0.137643
      4 H                     0.221812      -0.011679
      5 H                     0.198773      -0.017755
      6 H                     0.170149      -0.015902
  --------------------------------------------------------
  Sum of atomic charges =     1.000000
  Sum of spin   charges =     1.000000

 -----------------------------------------------------------------
                    Cartesian Multipole Moments
 -----------------------------------------------------------------
    Charge (ESU x 10^10)
                 4.8032
    Dipole Moment (Debye)
         X      -0.7301      Y      -0.0002      Z       3.5298
       Tot       3.6045
    Quadrupole Moments (Debye-Ang)
        XX     -12.8040     XY       0.0003     YY     -15.0700
        XZ       0.6306     YZ      -0.0001     ZZ      -7.4366
    Octapole Moments (Debye-Ang^2)
       XXX     -14.7931    XXY      -0.0001    XYY      -4.5436
       YYY      -0.0004    XXZ      -1.8468    XYZ      -0.0006
       YYZ      -4.5924    XZZ      -4.9138    YZZ      -0.0008
       ZZZ      -0.6743
    Hexadecapole Moments (Debye-Ang^3)
      XXXX     -51.7689   XXXY       0.0007   XXYY     -11.4872
      XYYY       0.0002   YYYY     -11.8591   XXXZ       9.8639
      XXYZ      -0.0003   XYYZ       3.3021   YYYZ      -0.0002
      XXZZ     -16.6828   XYZZ      -0.0005   YYZZ     -18.4840
      XZZZ      10.6011   YZZZ      -0.0016   ZZZZ     -74.3335
 -----------------------------------------------------------------
 Total job time:  65.18s(wall), 64.19s(cpu) 
 Thu Jul  4 19:27:53 2013

        *************************************************************
        *                                                           *
        *  Thank you very much for using Q-Chem.  Have a nice day.  *
        *                                                           *
        *************************************************************


0 sent ACK to 0 
now end server 0 ... 
