Process 0 of 1 is on cl213.stfx.acenet.ca - thread support 1
initial socket setup ...start
initial socket setup ...done 
now start server 0 ... 

cmd = /usr/bin/ssh clhead /usr/local/qchem/bin/get_hostid 1593327223 > /scratch/tmp/4825491.1.medium.q/qchem16411/lic.dat
                  Welcome to Q-Chem
     A Quantum Leap Into The Future Of Chemistry

 Y. Shao, L. Fusti-Molnar, Y. Jung, J. Kussmann, C. Ochsenfeld,
 S. T. Brown, A. T. B. Gilbert, L. V. Slipchenko,S. V. Levchenko,
 D. P. O'Neill, R. A. DiStasio Jr., R. C. Lochan, T. Wang,
 G. J. O. Beran, N. A. Besley, J. M. Herbert, C. Y. Lin,
 T. Van Voorhis, S. H. Chien, A. Sodt, R. P. Steele, 
 V. A. Rassolov, P. E. Maslen, P. P. Korambath, R. D. Adamson,
 B. Austin, J. Baker, E. F. C. Byrd, H. Dachsel, R. J. Doerksen,
 A. Dreuw, B. D. Dunietz, A. D. Dutoi, T. R. Furlani,
 S. R. Gwaltney, A. Heyden, S. Hirata, C.-P. Hsu, G. Kedziora,
 R. Z. Khaliullin, P. Klunzinger, A. M. Lee, M. S. Lee, W. Liang,
 I. Lotan, N. Nair, B. Peters, E. I. Proynov, P. A. Pieniazek, 
 Y. M. Rhee, J. Ritchie, E. Rosta, C. D. Sherrill, 
 A. C. Simmonett, J. E. Subotnik, H. L. Woodcock III,
 W. Zhang, A. T. Bell, A. K. Chakraborty, D. M. Chipman,
 F. J. Keil, A. Warshel, W. J. Hehre, H. F. Schaefer III,
 J. Kong, A. I. Krylov, P. M. W. Gill, M. Head-Gordon,
 Q-Chem, Version 3.1, Q-Chem, Inc., Pittsburgh, PA (2007).

 Additional authors for Version 3.1: 
 Z. Gan, Y. Zhao, N. E. Schultz, D. Truhlar, E. Epifanovsky and M. Oana.

 Additional authors for Version 3.2: 
 R. Baer, B. R. Brooks, D. Casanova, J.-D. Chai, C.-L. Cheng, 
 C. Cramer, D. Crittenden, A. Ghysels, G. Hawkins, E. G. Hohenstein, 
 C. Kelley, W. Kurlancheek, D. Liotard, E. Livshits, P. Manohar, 
 A. Marenich, D. Neuhauser, R. Olson, M. A. Rohrdanz, K. S. Thanthiriwatte, 
 A. J. W. Thom, V. Vanovschi, C. F. Williams, Q. Wu and Z.-Q. You. 


 Intel X86 Linux Version

 Q-chem begins on Mon Nov 14 18:56:28 2011  

 Parallel job on  1  processors
Processing $rem in /usr/local/qchem/config/preferences.

theFileMan(): MAXOPENFILES=974 MAX_SUB_FILE_NUM=16
Maximum size of a physical file is 2.0 GB, maximum size of a tmp-file is 32.0 GB


--------------------------------------------------------------
User input:
--------------------------------------------------------------

$molecule
-1,1
Cl
O,1,R

R=1.61959205

$end

$comment
negative
$end

$xc_functional
   X HF 1.0
   X BNL 1.0
   C LYP 1.0
$end

$rem
SYMMETRY_DECOMPOSITION	0
exchange 		general
BASIS                   g3large
omega			450
separate_jk		true
mem_static              760
max_scf_cycles          200
scf_final_print         1
sym_ignore              true
$end

--------------------------------------------------------------
 Writing REM_CC_EA            2
 ----------------------------------------------------
       Standard Nuclear Orientation (Angstroms)
    I     Atom         X            Y            Z
 ----------------------------------------------------
    1      Cl      0.000000     0.000000     0.000000
    2      O       0.000000     0.000000     1.619592
 ----------------------------------------------------
 Nuclear Repulsion Energy =    44.4359434024 hartrees
 There are       13 alpha and       13 beta electrons
 Requested basis set is G3large
 There are 29 shells and 108 basis functions

Total QAlloc Memory Limit   2000 MB
Mega-Array Size       743 MB
MEM_STATIC part       760 MB

                       Distance Matrix (Angstroms)
             Cl(  1)
   O (  2)  1.619592
 
 A cutoff of  1.0D-08 yielded    413 shell pairs
 There are   5908 function pairs (  8221 Cartesian)
Evaluating contribution to one-electron hamiltonian from nuclear
 Smallest overlap matrix eigenvalue = 3.44E-03
 Multipole matrices computed through 2nd order

  Scale SEOQF with 1.000000e-01/1.000000e-01/1.000000e-01

 Standard Electronic Orientation quadrupole field applied
 Nucleus-field energy     =    -0.0000000022 hartrees
 Guess from superposition of atomic densities
 Warning:  Energy on first SCF cycle will be non-variational
 A restricted hybrid HF-DFT SCF calculation will be
 performed using Pulay DIIS extrapolation
 Exchange:     1.0000 Hartree-Fock + 1.0000 BNL
 Correlation:  1.0000 LYP
 Using SG-1 standard quadrature grid
 SCF converges when DIIS error is below 1.0E-05
 Warning!  Inaccurate integrated density:
   Number of electrons =    26
   Numerical integral  =    25.000136978023
   Relative error      =    -3.8456270076 %
 ---------------------------------------
  Cycle       Energy         DIIS Error
 ---------------------------------------
    1    -532.8434418440      3.28E-02
    2    -532.8154741517      8.55E-03
    3    -532.8079826185      1.01E-02
    4    -532.9107823940      1.05E-03
    5    -532.9122160257      3.12E-04
    6    -532.9126175734      1.35E-04
    7    -532.9127541108      5.87E-05
    8    -532.9127862368      2.43E-05
    9    -532.9127916478      9.39E-06 Convergence criterion met
 ---------------------------------------
 One-Electron    Energy =  -834.1314195452
 Total Coulomb   Energy =   291.2199119730
 Alpha Exchange  Energy =    -2.9603010127
 Beta  Exchange  Energy =    -2.9603010127
 DFT   Exchange  Energy =   -27.4909425515
 DFT Correlation Energy =    -1.0256828990
 Nuclear Repu.   Energy =    44.4359434002
 Nuclear Attr.   Energy = -1366.1196805567
 Kinetic         Energy =   531.9882610115
 SCF time:  CPU 21.67 s  wall 44.17 s
 Final Alpha MO Eigenvalues
            1           2           3           4           5           6
    1-100.2980355 -18.5222901  -9.1473601  -7.0007147  -6.9887688  -6.9887684
            7           8           9          10          11          12
    1  -0.8844765  -0.6184347  -0.2826077  -0.2715246  -0.2715222  -0.0981380
           13          14          15          16          17          18
    1  -0.0981333   0.2386793   0.2549942   0.2745205   0.2745208   0.3820376
 Analysis of SCF Wavefunction
 
 --------------------------------------------------------------
                    Orbital Energies (a.u.)
 --------------------------------------------------------------
 
 Alpha MOs
 -- Occupied --
******* -18.522  -9.147  -7.001  -6.989  -6.989  -0.884  -0.618
 -0.283  -0.272  -0.272  -0.098  -0.098
 -- Virtual --
  0.239   0.255   0.275   0.275   0.382   0.430   0.470   0.470
  0.575   0.599   0.600   0.674   0.674   0.752   0.798   0.798
  0.811   1.340   1.386   1.403   1.403   1.423   1.423   1.428
  1.428   1.466   1.466   1.483   1.483   1.485   1.602   1.602
  1.904   1.948   2.065   2.065   2.358   2.358   2.597   2.606
  2.606   3.024   4.624   4.666   4.666   4.701   4.701   4.703
  4.703   5.152   5.182   5.182   5.291   5.291   5.326   5.329
  5.489   5.489   5.517   5.518   5.601   5.847   5.847   6.503
  7.192   7.192   7.461   7.461   7.974  10.044  20.806  20.806
 21.063  27.374  27.480  27.514  27.514  27.659  37.133  37.133
 37.135  37.136  37.140  37.140  37.160  43.977  44.062  44.144
 44.144  44.176  46.009  46.009  46.228  50.340 216.426
 --------------------------------------------------------------
 
          Ground-State Mulliken Net Atomic Charges

     Atom                 Charge (a.u.)
  ----------------------------------------
      1 Cl                   -0.249137
      2 O                    -0.750863
  ----------------------------------------
  Sum of atomic charges =    -1.000000

 -----------------------------------------------------------------
                    Cartesian Multipole Moments
 -----------------------------------------------------------------
    Charge (ESU x 10^10)
                -4.8032
    Dipole Moment (Debye)
         X       0.0003      Y       0.0004      Z      -4.9912
       Tot       4.9912
    Quadrupole Moments (Debye-Ang)
        XX     -21.9517     XY      -0.0001     YY     -21.9517
        XZ       0.0007     YZ       0.0008     ZZ     -30.5725
    Octapole Moments (Debye-Ang^2)
       XXX       0.0001    XXY       0.0002    XYY       0.0000
       YYY       0.0005    XXZ     -11.0718    XYZ       0.0001
       YYZ     -11.0718    XZZ       0.0040    YZZ       0.0033
       ZZZ     -50.3020
    Hexadecapole Moments (Debye-Ang^3)
      XXXX     -29.2293   XXXY      -0.0003   XXYY      -9.7426
      XYYY      -0.0003   YYYY     -29.2293   XXXZ       0.0024
      XXYZ       0.0008   XYYZ       0.0008   YYYZ       0.0023
      XXZZ     -29.6297   XYZZ       0.0000   YYZZ     -29.6298
      XZZZ       0.0067   YZZZ       0.0063   ZZZZ    -160.8015
 -----------------------------------------------------------------
 Total job time:  45.65s(wall), 21.79s(cpu) 
 Mon Nov 14 18:57:13 2011

        *************************************************************
        *                                                           *
        *  Thank you very much for using Q-Chem.  Have a nice day.  *
        *                                                           *
        *************************************************************


0 sent ACK to 0 
now end server 0 ... 
 
**********************************************************************
Job 2 of 3 
**********************************************************************
 
Process 0 of 1 is on cl213.stfx.acenet.ca - thread support 1
initial socket setup ...start
initial socket setup ...done 
now start server 0 ... 

cmd = /usr/bin/ssh clhead /usr/local/qchem/bin/get_hostid 637806786 > /scratch/tmp/4825491.1.medium.q/qchem16411/lic.dat
                  Welcome to Q-Chem
     A Quantum Leap Into The Future Of Chemistry

 Y. Shao, L. Fusti-Molnar, Y. Jung, J. Kussmann, C. Ochsenfeld,
 S. T. Brown, A. T. B. Gilbert, L. V. Slipchenko,S. V. Levchenko,
 D. P. O'Neill, R. A. DiStasio Jr., R. C. Lochan, T. Wang,
 G. J. O. Beran, N. A. Besley, J. M. Herbert, C. Y. Lin,
 T. Van Voorhis, S. H. Chien, A. Sodt, R. P. Steele, 
 V. A. Rassolov, P. E. Maslen, P. P. Korambath, R. D. Adamson,
 B. Austin, J. Baker, E. F. C. Byrd, H. Dachsel, R. J. Doerksen,
 A. Dreuw, B. D. Dunietz, A. D. Dutoi, T. R. Furlani,
 S. R. Gwaltney, A. Heyden, S. Hirata, C.-P. Hsu, G. Kedziora,
 R. Z. Khaliullin, P. Klunzinger, A. M. Lee, M. S. Lee, W. Liang,
 I. Lotan, N. Nair, B. Peters, E. I. Proynov, P. A. Pieniazek, 
 Y. M. Rhee, J. Ritchie, E. Rosta, C. D. Sherrill, 
 A. C. Simmonett, J. E. Subotnik, H. L. Woodcock III,
 W. Zhang, A. T. Bell, A. K. Chakraborty, D. M. Chipman,
 F. J. Keil, A. Warshel, W. J. Hehre, H. F. Schaefer III,
 J. Kong, A. I. Krylov, P. M. W. Gill, M. Head-Gordon,
 Q-Chem, Version 3.1, Q-Chem, Inc., Pittsburgh, PA (2007).

 Additional authors for Version 3.1: 
 Z. Gan, Y. Zhao, N. E. Schultz, D. Truhlar, E. Epifanovsky and M. Oana.

 Additional authors for Version 3.2: 
 R. Baer, B. R. Brooks, D. Casanova, J.-D. Chai, C.-L. Cheng, 
 C. Cramer, D. Crittenden, A. Ghysels, G. Hawkins, E. G. Hohenstein, 
 C. Kelley, W. Kurlancheek, D. Liotard, E. Livshits, P. Manohar, 
 A. Marenich, D. Neuhauser, R. Olson, M. A. Rohrdanz, K. S. Thanthiriwatte, 
 A. J. W. Thom, V. Vanovschi, C. F. Williams, Q. Wu and Z.-Q. You. 


 Intel X86 Linux Version

 Q-chem begins on Mon Nov 14 18:57:17 2011  

 Parallel job on  1  processors
Processing $rem in /usr/local/qchem/config/preferences.

theFileMan(): MAXOPENFILES=974 MAX_SUB_FILE_NUM=16
Maximum size of a physical file is 2.0 GB, maximum size of a tmp-file is 32.0 GB


--------------------------------------------------------------
User input:
--------------------------------------------------------------

$molecule
0,2
Cl
O,1,R

R=1.61959205

$end

$comment
neutral
$end

$xc_functional
   X HF 1.0
   X BNL 1.0
   C LYP 1.0
$end

$rem
SYMMETRY_DECOMPOSITION	0
exchange 		general
BASIS                   g3large
omega			450
separate_jk		true
mem_static              760
max_scf_cycles          200
scf_final_print         1
sym_ignore              true
$end

--------------------------------------------------------------
 Writing REM_CC_EA            2
 ----------------------------------------------------
       Standard Nuclear Orientation (Angstroms)
    I     Atom         X            Y            Z
 ----------------------------------------------------
    1      Cl      0.000000     0.000000     0.000000
    2      O       0.000000     0.000000     1.619592
 ----------------------------------------------------
 Nuclear Repulsion Energy =    44.4359434024 hartrees
 There are       13 alpha and       12 beta electrons
 Requested basis set is G3large
 There are 29 shells and 108 basis functions

Total QAlloc Memory Limit   2000 MB
Mega-Array Size       743 MB
MEM_STATIC part       760 MB

                       Distance Matrix (Angstroms)
             Cl(  1)
   O (  2)  1.619592
 
 A cutoff of  1.0D-08 yielded    413 shell pairs
 There are   5908 function pairs (  8221 Cartesian)
Evaluating contribution to one-electron hamiltonian from nuclear
 Smallest overlap matrix eigenvalue = 3.44E-03
 Multipole matrices computed through 2nd order

  Scale SEOQF with 1.000000e-01/1.000000e-01/1.000000e-01

 Standard Electronic Orientation quadrupole field applied
 Nucleus-field energy     =    -0.0000000022 hartrees
 Guess from superposition of atomic densities
 Warning:  Energy on first SCF cycle will be non-variational
 An unrestricted hybrid HF-DFT SCF calculation will be
 performed using Pulay DIIS extrapolation
 Exchange:     1.0000 Hartree-Fock + 1.0000 BNL
 Correlation:  1.0000 LYP
 Using SG-1 standard quadrature grid
 SCF converges when DIIS error is below 1.0E-05
 ---------------------------------------
  Cycle       Energy         DIIS Error
 ---------------------------------------
    1    -532.8434418440      3.28E-02
    2    -532.7703456658      5.48E-03
    3    -532.7799572385      5.98E-03
    4    -532.8170400334      1.23E-03
    5    -532.8200650047      5.23E-04
    6    -532.8217822864      2.30E-04
    7    -532.8225261842      1.33E-04
    8    -532.8227851817      5.00E-05
    9    -532.8228281129      1.92E-05
   10    -532.8228324001      6.69E-06 Convergence criterion met
 ---------------------------------------
 One-Electron    Energy =  -825.9512200349
 Total Coulomb   Energy =   282.8039509809
 Alpha Exchange  Energy =    -2.9936590307
 Beta  Exchange  Energy =    -2.7484336816
 DFT   Exchange  Energy =   -27.3780504364
 DFT Correlation Energy =    -0.9913635975
 Nuclear Repu.   Energy =    44.4359434002
 Nuclear Attr.   Energy = -1357.6968334642
 Kinetic         Energy =   531.7456134293
 <S^2> = 0.7569
 SCF time:  CPU 27.04 s  wall 39.52 s
 Final Alpha MO Eigenvalues
            1           2           3           4           5           6
    1-100.6154141 -18.9282754  -9.4635417  -7.3176468  -7.3088543  -7.3015514
            7           8           9          10          11          12
    1  -1.2394264  -0.9520991  -0.6259071  -0.6220523  -0.5889423  -0.4675156
           13          14          15          16          17          18
    1  -0.4310325   0.0182453   0.0695953   0.1065377   0.1093549   0.1359625
 Final Beta MO Eigenvalues
            1           2           3           4           5           6
    1-100.6135433 -18.9062360  -9.4616047  -7.3168358  -7.3041042  -7.2999540
            7           8           9          10          11          12
    1  -1.2076281  -0.9168457  -0.6003154  -0.5765458  -0.5343112  -0.4138041
           13          14          15          16          17
    1  -0.0861042   0.0283076   0.0697253   0.1070488   0.1095927
 Analysis of SCF Wavefunction
 
 --------------------------------------------------------------
                    Orbital Energies (a.u.)
 --------------------------------------------------------------
 
 Alpha MOs
 -- Occupied --
******* -18.928  -9.464  -7.318  -7.309  -7.302  -1.239  -0.952
 -0.626  -0.622  -0.589  -0.468  -0.431
 -- Virtual --
  0.018   0.070   0.107   0.109   0.136   0.222   0.247   0.255
  0.333   0.333   0.348   0.398   0.410   0.516   0.542   0.549
  0.558   1.052   1.089   1.090   1.111   1.124   1.125   1.141
  1.141   1.154   1.174   1.209   1.209   1.209   1.292   1.309
  1.590   1.650   1.717   1.718   2.038   2.059   2.271   2.287
  2.307   2.720   4.302   4.343   4.358   4.389   4.389   4.392
  4.392   4.814   4.826   4.854   4.892   4.931   5.010   5.011
  5.096   5.096   5.142   5.147   5.242   5.484   5.511   6.155
  6.774   6.774   7.046   7.091   7.605   9.730  20.487  20.494
 20.748  27.057  27.164  27.194  27.200  27.342  36.817  36.818
 36.819  36.820  36.822  36.827  36.844  43.551  43.634  43.717
 43.748  43.772  45.584  45.614  45.832  49.934 216.110
 
 Beta MOs
 -- Occupied --
******* -18.906  -9.462  -7.317  -7.304  -7.300  -1.208  -0.917
 -0.600  -0.577  -0.534  -0.414
 -- Virtual --
 -0.086   0.028   0.070   0.107   0.110   0.141   0.223   0.259
  0.261   0.341   0.341   0.351   0.411   0.418   0.519   0.550
  0.558   0.560   1.061   1.098   1.115   1.117   1.138   1.138
  1.147   1.147   1.177   1.181   1.214   1.216   1.216   1.310
  1.313   1.614   1.661   1.752   1.752   2.062   2.066   2.284
  2.307   2.312   2.729   4.312   4.357   4.361   4.398   4.398
  4.406   4.406   4.828   4.861   4.864   4.951   4.954   5.019
  5.022   5.146   5.146   5.181   5.182   5.266   5.517   5.522
  6.175   6.847   6.848   7.118   7.119   7.638   9.735  20.493
 20.497  20.748  27.062  27.168  27.198  27.201  27.344  36.819
 36.819  36.821  36.821  36.824  36.828  36.845  43.607  43.692
 43.771  43.774  43.804  45.626  45.630  45.848  49.961 216.112
 --------------------------------------------------------------
 
          Ground-State Mulliken Net Atomic Charges

     Atom                 Charge (a.u.)    Spin (a.u.)
  --------------------------------------------------------
      1 Cl                    0.182606       0.232150
      2 O                    -0.182606       0.767850
  --------------------------------------------------------
  Sum of atomic charges =     0.000000
  Sum of spin   charges =     1.000000

 -----------------------------------------------------------------
                    Cartesian Multipole Moments
 -----------------------------------------------------------------
    Charge (ESU x 10^10)
                 0.0000
    Dipole Moment (Debye)
         X      -0.0002      Y      -0.0001      Z      -1.4393
       Tot       1.4393
    Quadrupole Moments (Debye-Ang)
        XX     -17.7416     XY      -0.6462     YY     -17.8934
        XZ      -0.0003     YZ       0.0003     ZZ     -19.1966
    Octapole Moments (Debye-Ang^2)
       XXX      -0.0001    XXY       0.0000    XYY       0.0000
       YYY      -0.0001    XXZ      -8.7389    XYZ      -0.5129
       YYZ      -8.8591    XZZ      -0.0016    YZZ      -0.0010
       ZZZ     -31.2380
    Hexadecapole Moments (Debye-Ang^3)
      XXXX     -18.1655   XXXY      -0.5307   XXYY      -6.0961
      XYYY      -0.5306   YYYY     -18.4147   XXXZ      -0.0004
      XXYZ       0.0000   XYYZ      -0.0001   YYYZ       0.0000
      XXZZ     -20.3682   XYZZ      -1.3444   YYZZ     -20.6835
      XZZZ      -0.0027   YZZZ      -0.0009   ZZZZ    -107.4784
 -----------------------------------------------------------------
 Total job time:  40.27s(wall), 27.16s(cpu) 
 Mon Nov 14 18:57:57 2011

        *************************************************************
        *                                                           *
        *  Thank you very much for using Q-Chem.  Have a nice day.  *
        *                                                           *
        *************************************************************


0 sent ACK to 0 
now end server 0 ... 
 
**********************************************************************
Job 3 of 3 
**********************************************************************
 
Process 0 of 1 is on cl213.stfx.acenet.ca - thread support 1
initial socket setup ...start
initial socket setup ...done 
now start server 0 ... 

cmd = /usr/bin/ssh clhead /usr/local/qchem/bin/get_hostid 135162152 > /scratch/tmp/4825491.1.medium.q/qchem16411/lic.dat
                  Welcome to Q-Chem
     A Quantum Leap Into The Future Of Chemistry

 Y. Shao, L. Fusti-Molnar, Y. Jung, J. Kussmann, C. Ochsenfeld,
 S. T. Brown, A. T. B. Gilbert, L. V. Slipchenko,S. V. Levchenko,
 D. P. O'Neill, R. A. DiStasio Jr., R. C. Lochan, T. Wang,
 G. J. O. Beran, N. A. Besley, J. M. Herbert, C. Y. Lin,
 T. Van Voorhis, S. H. Chien, A. Sodt, R. P. Steele, 
 V. A. Rassolov, P. E. Maslen, P. P. Korambath, R. D. Adamson,
 B. Austin, J. Baker, E. F. C. Byrd, H. Dachsel, R. J. Doerksen,
 A. Dreuw, B. D. Dunietz, A. D. Dutoi, T. R. Furlani,
 S. R. Gwaltney, A. Heyden, S. Hirata, C.-P. Hsu, G. Kedziora,
 R. Z. Khaliullin, P. Klunzinger, A. M. Lee, M. S. Lee, W. Liang,
 I. Lotan, N. Nair, B. Peters, E. I. Proynov, P. A. Pieniazek, 
 Y. M. Rhee, J. Ritchie, E. Rosta, C. D. Sherrill, 
 A. C. Simmonett, J. E. Subotnik, H. L. Woodcock III,
 W. Zhang, A. T. Bell, A. K. Chakraborty, D. M. Chipman,
 F. J. Keil, A. Warshel, W. J. Hehre, H. F. Schaefer III,
 J. Kong, A. I. Krylov, P. M. W. Gill, M. Head-Gordon,
 Q-Chem, Version 3.1, Q-Chem, Inc., Pittsburgh, PA (2007).

 Additional authors for Version 3.1: 
 Z. Gan, Y. Zhao, N. E. Schultz, D. Truhlar, E. Epifanovsky and M. Oana.

 Additional authors for Version 3.2: 
 R. Baer, B. R. Brooks, D. Casanova, J.-D. Chai, C.-L. Cheng, 
 C. Cramer, D. Crittenden, A. Ghysels, G. Hawkins, E. G. Hohenstein, 
 C. Kelley, W. Kurlancheek, D. Liotard, E. Livshits, P. Manohar, 
 A. Marenich, D. Neuhauser, R. Olson, M. A. Rohrdanz, K. S. Thanthiriwatte, 
 A. J. W. Thom, V. Vanovschi, C. F. Williams, Q. Wu and Z.-Q. You. 


 Intel X86 Linux Version

 Q-chem begins on Mon Nov 14 18:58:01 2011  

 Parallel job on  1  processors
Processing $rem in /usr/local/qchem/config/preferences.

theFileMan(): MAXOPENFILES=974 MAX_SUB_FILE_NUM=16
Maximum size of a physical file is 2.0 GB, maximum size of a tmp-file is 32.0 GB


--------------------------------------------------------------
User input:
--------------------------------------------------------------

$molecule
1,3
Cl
O,1,R

R=1.61959205

$end

$comment
positive
$end

$xc_functional
   X HF 1.0
   X BNL 1.0
   C LYP 1.0
$end

$rem
SYMMETRY_DECOMPOSITION	0
exchange 		general
BASIS                   g3large
omega			450
separate_jk		true
mem_static              760
max_scf_cycles          200
scf_final_print         1
sym_ignore              true
$end

--------------------------------------------------------------
 Writing REM_CC_EA            2
 ----------------------------------------------------
       Standard Nuclear Orientation (Angstroms)
    I     Atom         X            Y            Z
 ----------------------------------------------------
    1      Cl      0.000000     0.000000     0.000000
    2      O       0.000000     0.000000     1.619592
 ----------------------------------------------------
 Nuclear Repulsion Energy =    44.4359434024 hartrees
 There are       13 alpha and       11 beta electrons
 Requested basis set is G3large
 There are 29 shells and 108 basis functions

Total QAlloc Memory Limit   2000 MB
Mega-Array Size       743 MB
MEM_STATIC part       760 MB

                       Distance Matrix (Angstroms)
             Cl(  1)
   O (  2)  1.619592
 
 A cutoff of  1.0D-08 yielded    413 shell pairs
 There are   5908 function pairs (  8221 Cartesian)
Evaluating contribution to one-electron hamiltonian from nuclear
 Smallest overlap matrix eigenvalue = 3.44E-03
 Multipole matrices computed through 2nd order

  Scale SEOQF with 1.000000e-01/1.000000e-01/1.000000e-01

 Standard Electronic Orientation quadrupole field applied
 Nucleus-field energy     =    -0.0000000022 hartrees
 Guess from superposition of atomic densities
 Warning:  Energy on first SCF cycle will be non-variational
 An unrestricted hybrid HF-DFT SCF calculation will be
 performed using Pulay DIIS extrapolation
 Exchange:     1.0000 Hartree-Fock + 1.0000 BNL
 Correlation:  1.0000 LYP
 Using SG-1 standard quadrature grid
 SCF converges when DIIS error is below 1.0E-05
 Warning!  Inaccurate integrated density:
   Number of electrons =    24
   Numerical integral  =    25.000136978023
   Relative error      =     4.1672374084 %
 ---------------------------------------
  Cycle       Energy         DIIS Error
 ---------------------------------------
    1    -532.8434418440      3.28E-02
    2    -532.2995366261      7.57E-03
    3    -532.3831430132      4.02E-03
    4    -532.3961101913      1.21E-03
    5    -532.3981520994      8.72E-04
    6    -532.4000371583      2.77E-04
    7    -532.4008420436      1.62E-04
    8    -532.4011863657      4.85E-05
    9    -532.4012401329      2.38E-05
   10    -532.4012637764      1.56E-05
   11    -532.4012774428      1.06E-05
   12    -532.4012824252      3.74E-06 Convergence criterion met
 ---------------------------------------
 One-Electron    Energy =  -816.5849159412
 Total Coulomb   Energy =   273.4526520543
 Alpha Exchange  Energy =    -3.0169373486
 Beta  Exchange  Energy =    -2.5178866516
 DFT   Exchange  Energy =   -27.2161411770
 DFT Correlation Energy =    -0.9539967612
 Nuclear Repu.   Energy =    44.4359434002
 Nuclear Attr.   Energy = -1347.7474081062
 Kinetic         Energy =   531.1624921650
 <S^2> = 2.0168
 SCF time:  CPU 32.59 s  wall 44.23 s
 Final Alpha MO Eigenvalues
            1           2           3           4           5           6
    1-101.0108976 -19.3623721  -9.8519418  -7.7047926  -7.6963827  -7.6963651
            7           8           9          10          11          12
    1  -1.6240802  -1.3257589  -0.9913533  -0.9868676  -0.9868441  -0.8255719
           13          14          15          16          17          18
    1  -0.8255580  -0.3143942  -0.1283274  -0.0723499  -0.0723485  -0.0612650
 Final Beta MO Eigenvalues
            1           2           3           4           5           6
    1-101.0049302 -19.3215075  -9.8458164  -7.7015835  -7.6866556  -7.6866473
            7           8           9          10          11          12
    1  -1.5646727  -1.2501345  -0.9478063  -0.8704938  -0.8704921  -0.4304024
           13          14          15          16
    1  -0.4303677  -0.2847805  -0.1275023  -0.0714179
 Analysis of SCF Wavefunction
 
 --------------------------------------------------------------
                    Orbital Energies (a.u.)
 --------------------------------------------------------------
 
 Alpha MOs
 -- Occupied --
******* -19.362  -9.852  -7.705  -7.696  -7.696  -1.624  -1.326
 -0.991  -0.987  -0.987  -0.826  -0.826
 -- Virtual --
 -0.314  -0.128  -0.072  -0.072  -0.061   0.014   0.024   0.024
  0.029   0.029   0.111   0.111   0.123   0.245   0.274   0.294
  0.294   0.748   0.767   0.779   0.779   0.781   0.781   0.821
  0.821   0.849   0.849   0.899   0.899   0.913   0.969   0.969
  1.261   1.335   1.364   1.364   1.710   1.711   1.915   1.955
  1.955   2.388   3.936   3.984   3.984   4.014   4.014   4.017
  4.017   4.436   4.453   4.453   4.521   4.521   4.631   4.633
  4.699   4.699   4.763   4.763   4.856   5.118   5.118   5.769
  6.347   6.347   6.662   6.662   7.214   9.352  20.102  20.102
 20.364  26.666  26.772  26.809  26.809  26.955  36.429  36.429
 36.432  36.432  36.437  36.437  36.457  43.102  43.188  43.296
 43.296  43.337  45.162  45.162  45.407  49.502 215.716
 
 Beta MOs
 -- Occupied --
******* -19.322  -9.846  -7.702  -7.687  -7.687  -1.565  -1.250
 -0.948  -0.870  -0.870
 -- Virtual --
 -0.430  -0.430  -0.285  -0.128  -0.071  -0.071  -0.059   0.017
  0.043   0.043   0.054   0.054   0.126   0.129   0.129   0.259
  0.282   0.305   0.305   0.765   0.781   0.803   0.803   0.814
  0.814   0.836   0.836   0.880   0.880   0.917   0.917   0.923
  0.992   0.992   1.303   1.354   1.425   1.425   1.742   1.742
  1.939   1.982   1.982   2.405   3.959   4.005   4.005   4.044
  4.044   4.056   4.056   4.465   4.500   4.500   4.589   4.589
  4.654   4.657   4.789   4.789   4.824   4.824   4.906   5.158
  5.158   5.807   6.480   6.481   6.752   6.752   7.275   9.365
 20.115  20.115  20.367  26.679  26.785  26.816  26.816  26.961
 36.434  36.434  36.436  36.437  36.441  36.441  36.460  43.206
 43.291  43.370  43.370  43.401  45.217  45.217  45.437  49.552
215.722
 --------------------------------------------------------------
 
          Ground-State Mulliken Net Atomic Charges

     Atom                 Charge (a.u.)    Spin (a.u.)
  --------------------------------------------------------
      1 Cl                    0.716812       0.686737
      2 O                     0.283188       1.313263
  --------------------------------------------------------
  Sum of atomic charges =     1.000000
  Sum of spin   charges =     2.000000

 -----------------------------------------------------------------
                    Cartesian Multipole Moments
 -----------------------------------------------------------------
    Charge (ESU x 10^10)
                 4.8032
    Dipole Moment (Debye)
         X       0.0000      Y       0.0000      Z       1.4117
       Tot       1.4117
    Quadrupole Moments (Debye-Ang)
        XX     -14.7523     XY      -0.0002     YY     -14.7523
        XZ      -0.0007     YZ      -0.0002     ZZ     -10.5621
    Octapole Moments (Debye-Ang^2)
       XXX       0.0000    XXY       0.0000    XYY       0.0000
       YYY       0.0000    XXZ      -7.5559    XYZ       0.0005
       YYZ      -7.5560    XZZ      -0.0010    YZZ       0.0000
       ZZZ     -16.9931
    Hexadecapole Moments (Debye-Ang^3)
      XXXX     -12.6045   XXXY      -0.0002   XXYY      -4.2013
      XYYY      -0.0002   YYYY     -12.6044   XXXZ      -0.0006
      XXYZ      -0.0001   XYYZ      -0.0002   YYYZ      -0.0002
      XXZZ     -15.8303   XYZZ       0.0007   YYZZ     -15.8305
      XZZZ      -0.0026   YZZZ      -0.0004   ZZZZ     -71.7285
 -----------------------------------------------------------------
 Total job time:  44.59s(wall), 32.71s(cpu) 
 Mon Nov 14 18:58:45 2011

        *************************************************************
        *                                                           *
        *  Thank you very much for using Q-Chem.  Have a nice day.  *
        *                                                           *
        *************************************************************


0 sent ACK to 0 
now end server 0 ... 
