Process 0 of 1 is on cl144.stfx.acenet.ca - thread support 1
initial socket setup ...start
initial socket setup ...done 
now start server 0 ... 

cmd = /usr/bin/ssh clhead /usr/local/qchem/bin/get_hostid 2052865105 > /scratch/tmp/5998126.1.medium.q/qchem5267/lic.dat
                  Welcome to Q-Chem
     A Quantum Leap Into The Future Of Chemistry

 Y. Shao, L. Fusti-Molnar, Y. Jung, J. Kussmann, C. Ochsenfeld,
 S. T. Brown, A. T. B. Gilbert, L. V. Slipchenko,S. V. Levchenko,
 D. P. O'Neill, R. A. DiStasio Jr., R. C. Lochan, T. Wang,
 G. J. O. Beran, N. A. Besley, J. M. Herbert, C. Y. Lin,
 T. Van Voorhis, S. H. Chien, A. Sodt, R. P. Steele, 
 V. A. Rassolov, P. E. Maslen, P. P. Korambath, R. D. Adamson,
 B. Austin, J. Baker, E. F. C. Byrd, H. Dachsel, R. J. Doerksen,
 A. Dreuw, B. D. Dunietz, A. D. Dutoi, T. R. Furlani,
 S. R. Gwaltney, A. Heyden, S. Hirata, C.-P. Hsu, G. Kedziora,
 R. Z. Khaliullin, P. Klunzinger, A. M. Lee, M. S. Lee, W. Liang,
 I. Lotan, N. Nair, B. Peters, E. I. Proynov, P. A. Pieniazek, 
 Y. M. Rhee, J. Ritchie, E. Rosta, C. D. Sherrill, 
 A. C. Simmonett, J. E. Subotnik, H. L. Woodcock III,
 W. Zhang, A. T. Bell, A. K. Chakraborty, D. M. Chipman,
 F. J. Keil, A. Warshel, W. J. Hehre, H. F. Schaefer III,
 J. Kong, A. I. Krylov, P. M. W. Gill, M. Head-Gordon,
 Q-Chem, Version 3.1, Q-Chem, Inc., Pittsburgh, PA (2007).

 Additional authors for Version 3.1: 
 Z. Gan, Y. Zhao, N. E. Schultz, D. Truhlar, E. Epifanovsky and M. Oana.

 Additional authors for Version 3.2: 
 R. Baer, B. R. Brooks, D. Casanova, J.-D. Chai, C.-L. Cheng, 
 C. Cramer, D. Crittenden, A. Ghysels, G. Hawkins, E. G. Hohenstein, 
 C. Kelley, W. Kurlancheek, D. Liotard, E. Livshits, P. Manohar, 
 A. Marenich, D. Neuhauser, R. Olson, M. A. Rohrdanz, K. S. Thanthiriwatte, 
 A. J. W. Thom, V. Vanovschi, C. F. Williams, Q. Wu and Z.-Q. You. 


 Intel X86 Linux Version

 Q-chem begins on Wed May 22 11:20:36 2013  

 Parallel job on  1  processors
Processing $rem in /usr/local/qchem/config/preferences.

theFileMan(): MAXOPENFILES=974 MAX_SUB_FILE_NUM=16
Maximum size of a physical file is 2.0 GB, maximum size of a tmp-file is 32.0 GB


--------------------------------------------------------------
User input:
--------------------------------------------------------------

$molecule
-1,2
C          0.00603        0.00000        0.01516
C          0.00376        0.00000        1.53686
C          1.40583        0.00000        2.13270
C          1.40357        0.00000        3.65440
H         -1.01035        0.00000       -0.38749
H          2.41994        0.00000        4.05704
H          0.52099       -0.88291       -0.37699
H          0.52099        0.88291       -0.37699
H          0.88861       -0.88291        4.04655
H          0.88861        0.88291        4.04655
H         -0.54308        0.87669        1.90567
H         -0.54308       -0.87669        1.90567
H          1.95267        0.87669        1.76388
H          1.95267       -0.87669        1.76388
$end

$comment
negative
$end

$xc_functional
C PBE   1.00
X wPBE  1.00
$end

$rem
SYMMETRY_DECOMPOSITION	0
exchange 		general
LRC_DFT                 true
BASIS                   g3large
omega			400
mem_static              760
max_scf_cycles          200
scf_final_print         1
sym_ignore              true
$end

--------------------------------------------------------------
 Writing REM_CC_EA           14
 ----------------------------------------------------
       Standard Nuclear Orientation (Angstroms)
    I     Atom         X            Y            Z
 ----------------------------------------------------
    1      C       0.006030     0.000000     0.015160
    2      C       0.003760     0.000000     1.536860
    3      C       1.405830     0.000000     2.132700
    4      C       1.403570     0.000000     3.654400
    5      H      -1.010350     0.000000    -0.387490
    6      H       2.419940     0.000000     4.057040
    7      H       0.520990    -0.882910    -0.376990
    8      H       0.520990     0.882910    -0.376990
    9      H       0.888610    -0.882910     4.046550
   10      H       0.888610     0.882910     4.046550
   11      H      -0.543080     0.876690     1.905670
   12      H      -0.543080    -0.876690     1.905670
   13      H       1.952670     0.876690     1.763880
   14      H       1.952670    -0.876690     1.763880
 ----------------------------------------------------
 Nuclear Repulsion Energy =   130.9040890850 hartrees
 There are       18 alpha and       17 beta electrons
 Requested basis set is G3large
 There are 100 shells and 268 basis functions

Total QAlloc Memory Limit   2000 MB
Mega-Array Size       743 MB
MEM_STATIC part       760 MB

                       Distance Matrix (Angstroms)
             C (  1)   C (  2)   C (  3)   C (  4)   H (  5)   H (  6)
   C (  2)  1.521702
   C (  3)  2.538388  1.523426
   C (  4)  3.898357  2.538394  1.521702
   H (  5)  1.093232  2.175211  3.491315  4.707853
   H (  6)  4.707840  3.491308  2.175202  1.093219  5.614333
   H (  7)  1.094758  2.170226  2.803750  4.220259  1.767666  4.903689
   H (  8)  1.094758  2.170226  2.803750  4.220259  1.767666  4.903689
   H (  9)  4.220259  2.803753  2.170223  1.094758  4.903702  1.767657
   H ( 10)  4.220259  2.803753  2.170223  1.094758  4.903702  1.767657
   H ( 11)  2.155026  1.097105  2.149041  2.759726  2.499102  3.765165
   H ( 12)  2.155026  1.097105  2.149041  2.759726  2.499102  3.765165
   H ( 13)  2.759713  2.149040  1.097109  2.155032  3.765165  2.499102
   H ( 14)  2.759713  2.149040  1.097109  2.155032  3.765165  2.499102
             H (  7)   H (  8)   H (  9)   H ( 10)   H ( 11)   H ( 12)
   H (  8)  1.765820
   H (  9)  4.438789  4.777130
   H ( 10)  4.777130  4.438789  1.765820
   H ( 11)  3.072291  2.518496  3.119182  2.575489
   H ( 12)  2.518496  3.072291  2.575489  3.119182  1.753380
   H ( 13)  3.119170  2.575475  3.072295  2.518500  2.499774  3.053394
   H ( 14)  2.575475  3.119170  2.518500  3.072295  3.053394  2.499774
             H ( 13)
   H ( 14)  1.753380
 
 A cutoff of  1.0D-08 yielded   4572 shell pairs
 There are  32621 function pairs ( 38805 Cartesian)
Evaluating contribution to one-electron hamiltonian from nuclear
 Smallest overlap matrix eigenvalue = 2.06E-05

 Q-Chem warning in module mkSTV.C, line 194:

 Overlap eigenvalue is smaller than square root of threshold

 Multipole matrices computed through 2nd order

  Scale SEOQF with 1.000000e-01/1.000000e-01/1.000000e-01

 Standard Electronic Orientation quadrupole field applied
 Nucleus-field energy     =    -0.0000000179 hartrees
 Guess from superposition of atomic densities
 Warning:  Energy on first SCF cycle will be non-variational
 Long-range K will be added via erf
 Coulomb attenuation parameter = 0.4 bohr**(-1)
 An unrestricted Kohn-Sham SCF calculation will be
 performed using Pulay DIIS extrapolation
 Exchange:  wPBE + LR-HF      Correlation:  PBE
 Using SG-1 standard quadrature grid
 SCF converges when DIIS error is below 1.0E-05
 Requested basis set is G3large
 There are 100 shells and 268 basis functions
 A cutoff of  1.0D-08 yielded   4572 shell pairs
 There are  32621 function pairs ( 38805 Cartesian)
 Warning!  Inaccurate integrated density:
   Number of electrons =    35
   Numerical integral  =    33.999555018629
   Relative error      =    -2.8584142325 %
 ---------------------------------------
  Cycle       Energy         DIIS Error
 ---------------------------------------
    1    -159.5232260306      2.65E-02
    2    -158.2665801820      2.61E-03
    3    -158.3353197183      1.63E-03
    4    -158.3605166880      2.43E-04
    5    -158.3626899326      7.69E-05
    6    -158.3631467711      3.74E-05
    7    -158.3632757838      1.58E-05
    8    -158.3633513451      7.82E-06 Convergence criterion met
 ---------------------------------------
 One-Electron    Energy =  -474.7001898113
 Total Coulomb   Energy =   210.8826271660
 Alpha Exchange  Energy =    -3.3984131565
 Beta  Exchange  Energy =    -3.3414076637
 DFT   Exchange  Energy =   -17.6178082217
 DFT Correlation Energy =    -1.0922487251
 Nuclear Repu.   Energy =   130.9040890671
 Nuclear Attr.   Energy =  -632.2589595606
 Kinetic         Energy =   157.5587697493
 <S^2> = 0.7501
 SCF time:  CPU 269.87 s  wall 270.80 s
 Final Alpha MO Eigenvalues
            1           2           3           4           5           6
    1  -9.9656641  -9.9655449  -9.9612074  -9.9611978  -0.8221269  -0.7477682
            7           8           9          10          11          12
    1  -0.6464992  -0.5887246  -0.4756806  -0.4290560  -0.4220692  -0.4104888
           13          14          15          16          17          18
    1  -0.3634810  -0.3410980  -0.3250916  -0.3108393  -0.3081090   0.0338149
           19          20          21          22          23
    1   0.1185891   0.1308849   0.1321272   0.1591563   0.1618590
 Final Beta MO Eigenvalues
            1           2           3           4           5           6
    1  -9.9654406  -9.9653204  -9.9609827  -9.9609727  -0.8216856  -0.7472330
            7           8           9          10          11          12
    1  -0.6455206  -0.5874830  -0.4752121  -0.4285189  -0.4212877  -0.4102789
           13          14          15          16          17          18
    1  -0.3626941  -0.3409215  -0.3235856  -0.3103654  -0.3078558   0.1267541
           19          20          21          22
    1   0.1323282   0.1414306   0.1462563   0.1612955
 Analysis of SCF Wavefunction
 
 --------------------------------------------------------------
                    Orbital Energies (a.u.)
 --------------------------------------------------------------
 
 Alpha MOs
 -- Occupied --
 -9.966  -9.966  -9.961  -9.961  -0.822  -0.748  -0.646  -0.589
 -0.476  -0.429  -0.422  -0.410  -0.363  -0.341  -0.325  -0.311
 -0.308   0.034
 -- Virtual --
  0.119   0.131   0.132   0.159   0.162   0.167   0.174   0.191
  0.206   0.226   0.229   0.264   0.267   0.280   0.285   0.287
  0.298   0.305   0.309   0.316   0.327   0.328   0.333   0.350
  0.360   0.373   0.398   0.400   0.407   0.415   0.422   0.452
  0.469   0.486   0.496   0.504   0.515   0.532   0.630   0.637
  0.637   0.653   0.656   0.682   0.725   0.743   0.764   0.766
  0.769   0.789   0.794   0.796   0.802   0.824   0.826   0.840
  0.852   0.858   0.878   0.894   0.904   0.909   0.937   0.990
  1.004   1.016   1.066   1.068   1.085   1.094   1.123   1.152
  1.184   1.224   1.237   1.333   1.335   1.341   1.353   1.353
  1.371   1.414   1.415   1.439   1.442   1.447   1.474   1.481
  1.483   1.509   1.516   1.524   1.542   1.629   1.638   1.650
  1.652   1.661   1.683   1.692   1.694   1.702   1.764   1.781
  1.817   1.824   1.824   1.854   1.861   1.862   1.862   1.901
  1.946   1.955   2.592   2.704   2.719   2.728   2.793   2.831
  2.832   2.894   2.919   2.970   2.978   3.030   3.050   3.061
  3.068   3.116   3.126   3.138   3.178   3.190   3.243   3.261
  3.281   3.328   3.368   3.376   3.379   3.405   3.461   3.500
  3.509   3.513   3.569   3.595   3.596   3.604   3.615   3.638
  3.675   3.748   3.785   3.787   3.788   3.840   3.845   3.874
  3.897   3.957   3.959   3.998   4.009   4.025   4.084   4.123
  4.126   4.174   4.177   4.220   4.224   4.259   4.281   4.309
  4.335   4.381   4.391   4.425   4.439   4.454   4.504   4.506
  4.531   4.531   4.553   4.611   4.664   4.673   4.686   4.693
  4.794   4.798   4.803   4.804   4.829   4.865   4.916   4.924
  4.955   5.080   5.086   5.276   5.522   5.638   5.698   5.763
  5.877   5.880   5.924   5.953   5.976   5.985  24.232  24.347
 24.426  24.506  27.744  27.858  27.964  28.227  28.242  28.274
 28.301  28.313  28.405  28.532  28.570  28.677  41.067  41.096
 41.113  41.117  41.131  41.143  41.215  41.215  41.333  41.340
 41.345  41.353  41.365  41.380  41.394  41.416  41.421  41.423
 41.423  41.424
 
 Beta MOs
 -- Occupied --
 -9.965  -9.965  -9.961  -9.961  -0.822  -0.747  -0.646  -0.587
 -0.475  -0.429  -0.421  -0.410  -0.363  -0.341  -0.324  -0.310
 -0.308
 -- Virtual --
  0.127   0.132   0.141   0.146   0.161   0.163   0.168   0.174
  0.189   0.203   0.219   0.225   0.257   0.260   0.276   0.285
  0.287   0.297   0.301   0.303   0.312   0.320   0.324   0.326
  0.344   0.356   0.370   0.397   0.397   0.405   0.414   0.421
  0.449   0.466   0.486   0.493   0.502   0.507   0.526   0.628
  0.633   0.635   0.651   0.653   0.679   0.723   0.742   0.762
  0.764   0.767   0.787   0.792   0.794   0.802   0.822   0.825
  0.840   0.852   0.857   0.875   0.892   0.902   0.907   0.937
  0.990   1.004   1.016   1.066   1.068   1.085   1.093   1.124
  1.153   1.184   1.224   1.237   1.333   1.335   1.341   1.352
  1.353   1.371   1.414   1.414   1.439   1.442   1.447   1.474
  1.480   1.483   1.510   1.516   1.524   1.542   1.628   1.638
  1.650   1.651   1.660   1.683   1.692   1.694   1.702   1.763
  1.781   1.817   1.824   1.824   1.854   1.861   1.862   1.862
  1.901   1.946   1.955   2.592   2.704   2.719   2.728   2.793
  2.831   2.832   2.894   2.919   2.971   2.978   3.030   3.050
  3.062   3.068   3.116   3.127   3.138   3.178   3.190   3.243
  3.261   3.282   3.328   3.368   3.377   3.379   3.405   3.461
  3.501   3.509   3.513   3.569   3.596   3.597   3.605   3.615
  3.639   3.676   3.748   3.785   3.787   3.788   3.840   3.845
  3.874   3.897   3.958   3.959   3.998   4.009   4.025   4.085
  4.123   4.126   4.174   4.177   4.220   4.224   4.259   4.281
  4.309   4.335   4.381   4.391   4.425   4.439   4.454   4.504
  4.506   4.531   4.532   4.553   4.611   4.664   4.673   4.686
  4.693   4.794   4.798   4.803   4.804   4.829   4.865   4.916
  4.925   4.956   5.080   5.086   5.277   5.523   5.638   5.699
  5.763   5.877   5.880   5.925   5.953   5.976   5.986  24.232
 24.348  24.426  24.507  27.744  27.858  27.965  28.227  28.243
 28.274  28.301  28.313  28.405  28.533  28.571  28.677  41.067
 41.096  41.113  41.117  41.131  41.144  41.215  41.216  41.333
 41.340  41.345  41.353  41.366  41.381  41.394  41.416  41.422
 41.423  41.423  41.424
 --------------------------------------------------------------
 
          Ground-State Mulliken Net Atomic Charges

     Atom                 Charge (a.u.)    Spin (a.u.)
  --------------------------------------------------------
      1 C                     1.550036      -1.953431
      2 C                    -0.091388       0.091294
      3 C                    -0.090819       0.090688
      4 C                     1.550297      -1.953692
      5 H                    -0.670797       0.760598
      6 H                    -0.671615       0.761441
      7 H                    -0.368203       0.452125
      8 H                    -0.370291       0.454224
      9 H                    -0.370415       0.454333
     10 H                    -0.368144       0.452063
     11 H                    -0.278291       0.351324
     12 H                    -0.270645       0.343445
     13 H                    -0.271201       0.344024
     14 H                    -0.278525       0.351563
  --------------------------------------------------------
  Sum of atomic charges =    -1.000000
  Sum of spin   charges =     1.000000

 -----------------------------------------------------------------
                    Cartesian Multipole Moments
 -----------------------------------------------------------------
    Charge (ESU x 10^10)
                -4.8032
    Dipole Moment (Debye)
         X      -3.3899      Y      -0.0004      Z      -8.8145
       Tot       9.4439
    Quadrupole Moments (Debye-Ang)
        XX     -63.0530     XY       0.0700     YY     -59.8970
        XZ     -14.0163     YZ       0.0405     ZZ     -84.1917
    Octapole Moments (Debye-Ang^2)
       XXX    -130.0208    XXY       0.0947    XYY     -42.2375
       YYY      -0.0054    XXZ    -126.7008    XYZ       0.1568
       YYZ    -109.9051    XZZ     -87.9907    YZZ       0.1500
       ZZZ    -404.0964
    Hexadecapole Moments (Debye-Ang^3)
      XXXX    -826.8014   XXXY       0.8762   XXYY    -209.9515
      XYYY       0.7259   YYYY    -473.0628   XXXZ    -453.8618
      XXYZ       0.3659   XYYZ    -127.7954   YYYZ       0.4184
      XXZZ    -601.7074   XYZZ       0.6371   YYZZ    -466.6853
      XZZZ    -557.0482   YZZZ       1.0832   ZZZZ   -2552.5407
 -----------------------------------------------------------------
 Total job time:  271.18s(wall), 270.25s(cpu) 
 Wed May 22 11:25:08 2013

        *************************************************************
        *                                                           *
        *  Thank you very much for using Q-Chem.  Have a nice day.  *
        *                                                           *
        *************************************************************


0 sent ACK to 0 
now end server 0 ... 
 
**********************************************************************
Job 2 of 3 
**********************************************************************
 
Process 0 of 1 is on cl144.stfx.acenet.ca - thread support 1
initial socket setup ...start
initial socket setup ...done 
now start server 0 ... 

cmd = /usr/bin/ssh clhead /usr/local/qchem/bin/get_hostid 328129525 > /scratch/tmp/5998126.1.medium.q/qchem5267/lic.dat
                  Welcome to Q-Chem
     A Quantum Leap Into The Future Of Chemistry

 Y. Shao, L. Fusti-Molnar, Y. Jung, J. Kussmann, C. Ochsenfeld,
 S. T. Brown, A. T. B. Gilbert, L. V. Slipchenko,S. V. Levchenko,
 D. P. O'Neill, R. A. DiStasio Jr., R. C. Lochan, T. Wang,
 G. J. O. Beran, N. A. Besley, J. M. Herbert, C. Y. Lin,
 T. Van Voorhis, S. H. Chien, A. Sodt, R. P. Steele, 
 V. A. Rassolov, P. E. Maslen, P. P. Korambath, R. D. Adamson,
 B. Austin, J. Baker, E. F. C. Byrd, H. Dachsel, R. J. Doerksen,
 A. Dreuw, B. D. Dunietz, A. D. Dutoi, T. R. Furlani,
 S. R. Gwaltney, A. Heyden, S. Hirata, C.-P. Hsu, G. Kedziora,
 R. Z. Khaliullin, P. Klunzinger, A. M. Lee, M. S. Lee, W. Liang,
 I. Lotan, N. Nair, B. Peters, E. I. Proynov, P. A. Pieniazek, 
 Y. M. Rhee, J. Ritchie, E. Rosta, C. D. Sherrill, 
 A. C. Simmonett, J. E. Subotnik, H. L. Woodcock III,
 W. Zhang, A. T. Bell, A. K. Chakraborty, D. M. Chipman,
 F. J. Keil, A. Warshel, W. J. Hehre, H. F. Schaefer III,
 J. Kong, A. I. Krylov, P. M. W. Gill, M. Head-Gordon,
 Q-Chem, Version 3.1, Q-Chem, Inc., Pittsburgh, PA (2007).

 Additional authors for Version 3.1: 
 Z. Gan, Y. Zhao, N. E. Schultz, D. Truhlar, E. Epifanovsky and M. Oana.

 Additional authors for Version 3.2: 
 R. Baer, B. R. Brooks, D. Casanova, J.-D. Chai, C.-L. Cheng, 
 C. Cramer, D. Crittenden, A. Ghysels, G. Hawkins, E. G. Hohenstein, 
 C. Kelley, W. Kurlancheek, D. Liotard, E. Livshits, P. Manohar, 
 A. Marenich, D. Neuhauser, R. Olson, M. A. Rohrdanz, K. S. Thanthiriwatte, 
 A. J. W. Thom, V. Vanovschi, C. F. Williams, Q. Wu and Z.-Q. You. 


 Intel X86 Linux Version

 Q-chem begins on Wed May 22 11:25:10 2013  

 Parallel job on  1  processors
Processing $rem in /usr/local/qchem/config/preferences.

theFileMan(): MAXOPENFILES=974 MAX_SUB_FILE_NUM=16
Maximum size of a physical file is 2.0 GB, maximum size of a tmp-file is 32.0 GB


--------------------------------------------------------------
User input:
--------------------------------------------------------------

$molecule
0,1
C          0.00603        0.00000        0.01516
C          0.00376        0.00000        1.53686
C          1.40583        0.00000        2.13270
C          1.40357        0.00000        3.65440
H         -1.01035        0.00000       -0.38749
H          2.41994        0.00000        4.05704
H          0.52099       -0.88291       -0.37699
H          0.52099        0.88291       -0.37699
H          0.88861       -0.88291        4.04655
H          0.88861        0.88291        4.04655
H         -0.54308        0.87669        1.90567
H         -0.54308       -0.87669        1.90567
H          1.95267        0.87669        1.76388
H          1.95267       -0.87669        1.76388
$end

$comment
neutral
$end

$xc_functional
C PBE   1.00
X wPBE  1.00
$end


$rem
SYMMETRY_DECOMPOSITION	0
LRC_DFT                 true
exchange 		general
BASIS                   g3large
omega			400
mem_static              760
max_scf_cycles          200
scf_final_print         1
sym_ignore              true
$end

--------------------------------------------------------------
 Writing REM_CC_EA           14
 ----------------------------------------------------
       Standard Nuclear Orientation (Angstroms)
    I     Atom         X            Y            Z
 ----------------------------------------------------
    1      C       0.006030     0.000000     0.015160
    2      C       0.003760     0.000000     1.536860
    3      C       1.405830     0.000000     2.132700
    4      C       1.403570     0.000000     3.654400
    5      H      -1.010350     0.000000    -0.387490
    6      H       2.419940     0.000000     4.057040
    7      H       0.520990    -0.882910    -0.376990
    8      H       0.520990     0.882910    -0.376990
    9      H       0.888610    -0.882910     4.046550
   10      H       0.888610     0.882910     4.046550
   11      H      -0.543080     0.876690     1.905670
   12      H      -0.543080    -0.876690     1.905670
   13      H       1.952670     0.876690     1.763880
   14      H       1.952670    -0.876690     1.763880
 ----------------------------------------------------
 Nuclear Repulsion Energy =   130.9040890850 hartrees
 There are       17 alpha and       17 beta electrons
 Requested basis set is G3large
 There are 100 shells and 268 basis functions

Total QAlloc Memory Limit   2000 MB
Mega-Array Size       743 MB
MEM_STATIC part       760 MB

                       Distance Matrix (Angstroms)
             C (  1)   C (  2)   C (  3)   C (  4)   H (  5)   H (  6)
   C (  2)  1.521702
   C (  3)  2.538388  1.523426
   C (  4)  3.898357  2.538394  1.521702
   H (  5)  1.093232  2.175211  3.491315  4.707853
   H (  6)  4.707840  3.491308  2.175202  1.093219  5.614333
   H (  7)  1.094758  2.170226  2.803750  4.220259  1.767666  4.903689
   H (  8)  1.094758  2.170226  2.803750  4.220259  1.767666  4.903689
   H (  9)  4.220259  2.803753  2.170223  1.094758  4.903702  1.767657
   H ( 10)  4.220259  2.803753  2.170223  1.094758  4.903702  1.767657
   H ( 11)  2.155026  1.097105  2.149041  2.759726  2.499102  3.765165
   H ( 12)  2.155026  1.097105  2.149041  2.759726  2.499102  3.765165
   H ( 13)  2.759713  2.149040  1.097109  2.155032  3.765165  2.499102
   H ( 14)  2.759713  2.149040  1.097109  2.155032  3.765165  2.499102
             H (  7)   H (  8)   H (  9)   H ( 10)   H ( 11)   H ( 12)
   H (  8)  1.765820
   H (  9)  4.438789  4.777130
   H ( 10)  4.777130  4.438789  1.765820
   H ( 11)  3.072291  2.518496  3.119182  2.575489
   H ( 12)  2.518496  3.072291  2.575489  3.119182  1.753380
   H ( 13)  3.119170  2.575475  3.072295  2.518500  2.499774  3.053394
   H ( 14)  2.575475  3.119170  2.518500  3.072295  3.053394  2.499774
             H ( 13)
   H ( 14)  1.753380
 
 A cutoff of  1.0D-08 yielded   4572 shell pairs
 There are  32621 function pairs ( 38805 Cartesian)
Evaluating contribution to one-electron hamiltonian from nuclear
 Smallest overlap matrix eigenvalue = 2.06E-05

 Q-Chem warning in module mkSTV.C, line 194:

 Overlap eigenvalue is smaller than square root of threshold

 Multipole matrices computed through 2nd order

  Scale SEOQF with 1.000000e-01/1.000000e-01/1.000000e-01

 Standard Electronic Orientation quadrupole field applied
 Nucleus-field energy     =    -0.0000000179 hartrees
 Guess from superposition of atomic densities
 Warning:  Energy on first SCF cycle will be non-variational
 Long-range K will be added via erf
 Coulomb attenuation parameter = 0.4 bohr**(-1)
 A restricted Kohn-Sham SCF calculation will be
 performed using Pulay DIIS extrapolation
 Exchange:  wPBE + LR-HF      Correlation:  PBE
 Using SG-1 standard quadrature grid
 SCF converges when DIIS error is below 1.0E-05
 Requested basis set is G3large
 There are 100 shells and 268 basis functions
 A cutoff of  1.0D-08 yielded   4572 shell pairs
 There are  32621 function pairs ( 38805 Cartesian)
 ---------------------------------------
  Cycle       Energy         DIIS Error
 ---------------------------------------
    1    -159.5232260306      2.65E-02
    2    -158.3417092718      2.34E-03
    3    -158.3875467809      1.20E-03
    4    -158.3997290145      2.46E-04
    5    -158.4004333191      4.51E-05
    6    -158.4004600959      2.08E-05
    7    -158.4004657353      3.37E-06 Convergence criterion met
 ---------------------------------------
 One-Electron    Energy =  -470.5041195901
 Total Coulomb   Energy =   206.5839119838
 Alpha Exchange  Energy =    -3.3430086154
 Beta  Exchange  Energy =    -3.3430086154
 DFT   Exchange  Energy =   -17.6125609240
 DFT Correlation Energy =    -1.0857690414
 Nuclear Repu.   Energy =   130.9040890671
 Nuclear Attr.   Energy =  -628.0002684920
 Kinetic         Energy =   157.4961489019
 SCF time:  CPU 175.33 s  wall 176.92 s
 Final Alpha MO Eigenvalues
            1           2           3           4           5           6
    1 -10.0918873 -10.0917666 -10.0847450 -10.0847435  -0.9468096  -0.8710849
            7           8           9          10          11          12
    1  -0.7695636  -0.7131852  -0.6006289  -0.5525114  -0.5449280  -0.5342150
           13          14          15          16          17          18
    1  -0.4863460  -0.4650319  -0.4482284  -0.4346950  -0.4334268   0.0414537
           19          20          21          22
    1   0.0509212   0.0567002   0.0594980   0.0788008
 Analysis of SCF Wavefunction
 
 --------------------------------------------------------------
                    Orbital Energies (a.u.)
 --------------------------------------------------------------
 
 Alpha MOs
 -- Occupied --
-10.092 -10.092 -10.085 -10.085  -0.947  -0.871  -0.770  -0.713
 -0.601  -0.553  -0.545  -0.534  -0.486  -0.465  -0.448  -0.435
 -0.433
 -- Virtual --
  0.041   0.051   0.057   0.059   0.079   0.080   0.085   0.089
  0.107   0.119   0.128   0.135   0.165   0.167   0.181   0.187
  0.188   0.194   0.200   0.209   0.211   0.222   0.225   0.229
  0.246   0.252   0.258   0.281   0.287   0.295   0.298   0.304
  0.341   0.356   0.367   0.383   0.389   0.404   0.420   0.514
  0.518   0.521   0.538   0.538   0.564   0.609   0.624   0.647
  0.647   0.649   0.671   0.676   0.676   0.683   0.703   0.706
  0.721   0.728   0.738   0.757   0.775   0.786   0.789   0.816
  0.866   0.880   0.895   0.945   0.945   0.961   0.971   1.002
  1.029   1.063   1.101   1.116   1.211   1.213   1.220   1.230
  1.231   1.249   1.290   1.292   1.317   1.319   1.324   1.353
  1.357   1.361   1.385   1.395   1.402   1.421   1.507   1.516
  1.529   1.532   1.538   1.562   1.571   1.572   1.580   1.641
  1.659   1.694   1.703   1.703   1.731   1.738   1.739   1.740
  1.778   1.823   1.831   2.469   2.580   2.597   2.605   2.669
  2.708   2.710   2.770   2.795   2.847   2.854   2.906   2.925
  2.937   2.945   2.991   3.003   3.013   3.055   3.067   3.119
  3.136   3.158   3.204   3.244   3.252   3.255   3.282   3.338
  3.377   3.386   3.390   3.445   3.471   3.472   3.479   3.491
  3.515   3.552   3.625   3.661   3.664   3.665   3.717   3.721
  3.750   3.772   3.833   3.834   3.873   3.885   3.901   3.961
  3.998   4.003   4.051   4.053   4.095   4.100   4.135   4.157
  4.186   4.211   4.256   4.267   4.300   4.315   4.331   4.380
  4.383   4.407   4.407   4.429   4.487   4.541   4.549   4.561
  4.568   4.670   4.674   4.678   4.680   4.706   4.740   4.791
  4.800   4.832   4.955   4.962   5.152   5.398   5.514   5.574
  5.638   5.753   5.756   5.802   5.830   5.851   5.860  24.107
 24.223  24.302  24.381  27.619  27.733  27.839  28.103  28.118
 28.150  28.178  28.188  28.279  28.407  28.445  28.551  40.942
 40.971  40.989  40.993  41.006  41.017  41.090  41.090  41.209
 41.216  41.219  41.227  41.240  41.256  41.270  41.293  41.296
 41.297  41.297  41.300
 --------------------------------------------------------------
 
          Ground-State Mulliken Net Atomic Charges

     Atom                 Charge (a.u.)
  ----------------------------------------
      1 C                    -0.382902
      2 C                    -0.008042
      3 C                    -0.008066
      4 C                    -0.382828
      5 H                     0.090444
      6 H                     0.090448
      7 H                     0.081825
      8 H                     0.081898
      9 H                     0.081891
     10 H                     0.081821
     11 H                     0.068327
     12 H                     0.068434
     13 H                     0.068430
     14 H                     0.068322
  ----------------------------------------
  Sum of atomic charges =     0.000000

 -----------------------------------------------------------------
                    Cartesian Multipole Moments
 -----------------------------------------------------------------
    Charge (ESU x 10^10)
                 0.0000
    Dipole Moment (Debye)
         X       0.0000      Y       0.0000      Z       0.0000
       Tot       0.0000
    Quadrupole Moments (Debye-Ang)
        XX     -28.2717     XY       0.0012     YY     -27.7488
        XZ      -0.0151     YZ      -0.0009     ZZ     -29.2022
    Octapole Moments (Debye-Ang^2)
       XXX     -59.7775    XXY       0.0017    XYY     -19.5573
       YYY       0.0000    XXZ     -51.8937    XYZ       0.0016
       YYZ     -50.9130    XZZ     -20.6372    YZZ      -0.0031
       ZZZ    -160.7386
    Hexadecapole Moments (Debye-Ang^3)
      XXXX    -230.9967   XXXY       0.0064   XXYY     -48.2749
      XYYY       0.0042   YYYY     -58.1940   XXXZ    -171.6762
      XXYZ       0.0022   XYYZ     -60.8416   YYYZ      -0.0033
      XXZZ    -196.8442   XYZZ       0.0035   YYZZ    -165.4218
      XZZZ    -181.7126   YZZZ      -0.0138   ZZZZ    -987.9821
 -----------------------------------------------------------------
 Total job time:  177.28s(wall), 175.66s(cpu) 
 Wed May 22 11:28:08 2013

        *************************************************************
        *                                                           *
        *  Thank you very much for using Q-Chem.  Have a nice day.  *
        *                                                           *
        *************************************************************


0 sent ACK to 0 
now end server 0 ... 
 
**********************************************************************
Job 3 of 3 
**********************************************************************
 
Process 0 of 1 is on cl144.stfx.acenet.ca - thread support 1
initial socket setup ...start
initial socket setup ...done 
now start server 0 ... 

cmd = /usr/bin/ssh clhead /usr/local/qchem/bin/get_hostid 344136986 > /scratch/tmp/5998126.1.medium.q/qchem5267/lic.dat
                  Welcome to Q-Chem
     A Quantum Leap Into The Future Of Chemistry

 Y. Shao, L. Fusti-Molnar, Y. Jung, J. Kussmann, C. Ochsenfeld,
 S. T. Brown, A. T. B. Gilbert, L. V. Slipchenko,S. V. Levchenko,
 D. P. O'Neill, R. A. DiStasio Jr., R. C. Lochan, T. Wang,
 G. J. O. Beran, N. A. Besley, J. M. Herbert, C. Y. Lin,
 T. Van Voorhis, S. H. Chien, A. Sodt, R. P. Steele, 
 V. A. Rassolov, P. E. Maslen, P. P. Korambath, R. D. Adamson,
 B. Austin, J. Baker, E. F. C. Byrd, H. Dachsel, R. J. Doerksen,
 A. Dreuw, B. D. Dunietz, A. D. Dutoi, T. R. Furlani,
 S. R. Gwaltney, A. Heyden, S. Hirata, C.-P. Hsu, G. Kedziora,
 R. Z. Khaliullin, P. Klunzinger, A. M. Lee, M. S. Lee, W. Liang,
 I. Lotan, N. Nair, B. Peters, E. I. Proynov, P. A. Pieniazek, 
 Y. M. Rhee, J. Ritchie, E. Rosta, C. D. Sherrill, 
 A. C. Simmonett, J. E. Subotnik, H. L. Woodcock III,
 W. Zhang, A. T. Bell, A. K. Chakraborty, D. M. Chipman,
 F. J. Keil, A. Warshel, W. J. Hehre, H. F. Schaefer III,
 J. Kong, A. I. Krylov, P. M. W. Gill, M. Head-Gordon,
 Q-Chem, Version 3.1, Q-Chem, Inc., Pittsburgh, PA (2007).

 Additional authors for Version 3.1: 
 Z. Gan, Y. Zhao, N. E. Schultz, D. Truhlar, E. Epifanovsky and M. Oana.

 Additional authors for Version 3.2: 
 R. Baer, B. R. Brooks, D. Casanova, J.-D. Chai, C.-L. Cheng, 
 C. Cramer, D. Crittenden, A. Ghysels, G. Hawkins, E. G. Hohenstein, 
 C. Kelley, W. Kurlancheek, D. Liotard, E. Livshits, P. Manohar, 
 A. Marenich, D. Neuhauser, R. Olson, M. A. Rohrdanz, K. S. Thanthiriwatte, 
 A. J. W. Thom, V. Vanovschi, C. F. Williams, Q. Wu and Z.-Q. You. 


 Intel X86 Linux Version

 Q-chem begins on Wed May 22 11:28:11 2013  

 Parallel job on  1  processors
Processing $rem in /usr/local/qchem/config/preferences.

theFileMan(): MAXOPENFILES=974 MAX_SUB_FILE_NUM=16
Maximum size of a physical file is 2.0 GB, maximum size of a tmp-file is 32.0 GB


--------------------------------------------------------------
User input:
--------------------------------------------------------------

$molecule
1,2
C          0.00603        0.00000        0.01516
C          0.00376        0.00000        1.53686
C          1.40583        0.00000        2.13270
C          1.40357        0.00000        3.65440
H         -1.01035        0.00000       -0.38749
H          2.41994        0.00000        4.05704
H          0.52099       -0.88291       -0.37699
H          0.52099        0.88291       -0.37699
H          0.88861       -0.88291        4.04655
H          0.88861        0.88291        4.04655
H         -0.54308        0.87669        1.90567
H         -0.54308       -0.87669        1.90567
H          1.95267        0.87669        1.76388
H          1.95267       -0.87669        1.76388
$end

$comment
positive
$end

$xc_functional
C PBE   1.00
X wPBE  1.00
$end

$rem
SYMMETRY_DECOMPOSITION	0
LRC_DFT                 true
exchange 		general
BASIS                   g3large
omega			400
mem_static              760
max_scf_cycles          200
scf_final_print         1
sym_ignore              true
$end

--------------------------------------------------------------
 Writing REM_CC_EA           14
 ----------------------------------------------------
       Standard Nuclear Orientation (Angstroms)
    I     Atom         X            Y            Z
 ----------------------------------------------------
    1      C       0.006030     0.000000     0.015160
    2      C       0.003760     0.000000     1.536860
    3      C       1.405830     0.000000     2.132700
    4      C       1.403570     0.000000     3.654400
    5      H      -1.010350     0.000000    -0.387490
    6      H       2.419940     0.000000     4.057040
    7      H       0.520990    -0.882910    -0.376990
    8      H       0.520990     0.882910    -0.376990
    9      H       0.888610    -0.882910     4.046550
   10      H       0.888610     0.882910     4.046550
   11      H      -0.543080     0.876690     1.905670
   12      H      -0.543080    -0.876690     1.905670
   13      H       1.952670     0.876690     1.763880
   14      H       1.952670    -0.876690     1.763880
 ----------------------------------------------------
 Nuclear Repulsion Energy =   130.9040890850 hartrees
 There are       17 alpha and       16 beta electrons
 Requested basis set is G3large
 There are 100 shells and 268 basis functions

Total QAlloc Memory Limit   2000 MB
Mega-Array Size       743 MB
MEM_STATIC part       760 MB

                       Distance Matrix (Angstroms)
             C (  1)   C (  2)   C (  3)   C (  4)   H (  5)   H (  6)
   C (  2)  1.521702
   C (  3)  2.538388  1.523426
   C (  4)  3.898357  2.538394  1.521702
   H (  5)  1.093232  2.175211  3.491315  4.707853
   H (  6)  4.707840  3.491308  2.175202  1.093219  5.614333
   H (  7)  1.094758  2.170226  2.803750  4.220259  1.767666  4.903689
   H (  8)  1.094758  2.170226  2.803750  4.220259  1.767666  4.903689
   H (  9)  4.220259  2.803753  2.170223  1.094758  4.903702  1.767657
   H ( 10)  4.220259  2.803753  2.170223  1.094758  4.903702  1.767657
   H ( 11)  2.155026  1.097105  2.149041  2.759726  2.499102  3.765165
   H ( 12)  2.155026  1.097105  2.149041  2.759726  2.499102  3.765165
   H ( 13)  2.759713  2.149040  1.097109  2.155032  3.765165  2.499102
   H ( 14)  2.759713  2.149040  1.097109  2.155032  3.765165  2.499102
             H (  7)   H (  8)   H (  9)   H ( 10)   H ( 11)   H ( 12)
   H (  8)  1.765820
   H (  9)  4.438789  4.777130
   H ( 10)  4.777130  4.438789  1.765820
   H ( 11)  3.072291  2.518496  3.119182  2.575489
   H ( 12)  2.518496  3.072291  2.575489  3.119182  1.753380
   H ( 13)  3.119170  2.575475  3.072295  2.518500  2.499774  3.053394
   H ( 14)  2.575475  3.119170  2.518500  3.072295  3.053394  2.499774
             H ( 13)
   H ( 14)  1.753380
 
 A cutoff of  1.0D-08 yielded   4572 shell pairs
 There are  32621 function pairs ( 38805 Cartesian)
Evaluating contribution to one-electron hamiltonian from nuclear
 Smallest overlap matrix eigenvalue = 2.06E-05

 Q-Chem warning in module mkSTV.C, line 194:

 Overlap eigenvalue is smaller than square root of threshold

 Multipole matrices computed through 2nd order

  Scale SEOQF with 1.000000e-01/1.000000e-01/1.000000e-01

 Standard Electronic Orientation quadrupole field applied
 Nucleus-field energy     =    -0.0000000179 hartrees
 Guess from superposition of atomic densities
 Warning:  Energy on first SCF cycle will be non-variational
 Long-range K will be added via erf
 Coulomb attenuation parameter = 0.4 bohr**(-1)
 An unrestricted Kohn-Sham SCF calculation will be
 performed using Pulay DIIS extrapolation
 Exchange:  wPBE + LR-HF      Correlation:  PBE
 Using SG-1 standard quadrature grid
 SCF converges when DIIS error is below 1.0E-05
 Requested basis set is G3large
 There are 100 shells and 268 basis functions
 A cutoff of  1.0D-08 yielded   4572 shell pairs
 There are  32621 function pairs ( 38805 Cartesian)
 Warning!  Inaccurate integrated density:
   Number of electrons =    33
   Numerical integral  =    33.999555018629
   Relative error      =     3.0289546019 %
 ---------------------------------------
  Cycle       Energy         DIIS Error
 ---------------------------------------
    1    -159.5232260306      2.65E-02
    2    -157.9255815900      1.92E-03
    3    -157.9667821042      8.50E-04
    4    -157.9730067969      3.68E-04
    5    -157.9744088428      5.00E-05
    6    -157.9746261356      3.61E-05
    7    -157.9747322521      2.49E-05
    8    -157.9749513773      2.26E-05
    9    -157.9752136236      2.04E-05
   10    -157.9755387438      1.85E-05
   11    -157.9761073299      2.10E-05
   12    -157.9761502611      1.53E-05
   13    -157.9762779029      7.80E-06 Convergence criterion met
 ---------------------------------------
 One-Electron    Energy =  -462.4021741191
 Total Coulomb   Energy =   198.5364205165
 Alpha Exchange  Energy =    -3.3602018423
 Beta  Exchange  Energy =    -3.1305402585
 DFT   Exchange  Energy =   -17.4724274941
 DFT Correlation Energy =    -1.0514437726
 Nuclear Repu.   Energy =   130.9040890671
 Nuclear Attr.   Energy =  -619.6321547339
 Kinetic         Energy =   157.2299806148
 <S^2> = 0.7557
 SCF time:  CPU 424.84 s  wall 427.25 s
 Final Alpha MO Eigenvalues
            1           2           3           4           5           6
    1 -10.3659987 -10.3658685 -10.3107667 -10.3107615  -1.2068786  -1.1073077
            7           8           9          10          11          12
    1  -1.0052930  -0.9598938  -0.8491149  -0.7984832  -0.7844477  -0.7615323
           13          14          15          16          17          18
    1  -0.7127799  -0.6920732  -0.6891878  -0.6878612  -0.6712334  -0.0960664
           19          20          21          22
    1  -0.0755671  -0.0731146  -0.0719517  -0.0452562
 Final Beta MO Eigenvalues
            1           2           3           4           5           6
    1 -10.3618933 -10.3617485 -10.3092263 -10.3092202  -1.1895444  -1.0940520
            7           8           9          10          11          12
    1  -0.9849745  -0.9394643  -0.8290995  -0.7728017  -0.7573679  -0.7456359
           13          14          15          16          17          18
    1  -0.6989595  -0.6802567  -0.6696822  -0.6628927  -0.4145018  -0.0949208
           19          20          21
    1  -0.0739936  -0.0720766  -0.0712985
 Analysis of SCF Wavefunction
 
 --------------------------------------------------------------
                    Orbital Energies (a.u.)
 --------------------------------------------------------------
 
 Alpha MOs
 -- Occupied --
-10.366 -10.366 -10.311 -10.311  -1.207  -1.107  -1.005  -0.960
 -0.849  -0.798  -0.784  -0.762  -0.713  -0.692  -0.689  -0.688
 -0.671
 -- Virtual --
 -0.096  -0.076  -0.073  -0.072  -0.045  -0.040  -0.037  -0.031
 -0.023  -0.013  -0.003  -0.001   0.022   0.023   0.024   0.045
  0.046   0.048   0.054   0.062   0.069   0.072   0.079   0.080
  0.082   0.084   0.098   0.100   0.117   0.122   0.123   0.130
  0.144   0.170   0.172   0.194   0.209   0.238   0.253   0.317
  0.323   0.341   0.350   0.355   0.360   0.420   0.424   0.447
  0.451   0.458   0.469   0.481   0.486   0.490   0.499   0.506
  0.510   0.512   0.534   0.559   0.583   0.592   0.608   0.608
  0.661   0.667   0.691   0.732   0.745   0.756   0.762   0.809
  0.825   0.855   0.888   0.897   1.000   1.006   1.021   1.023
  1.024   1.046   1.072   1.078   1.105   1.112   1.118   1.138
  1.146   1.153   1.160   1.184   1.186   1.214   1.302   1.306
  1.315   1.319   1.331   1.356   1.365   1.376   1.378   1.421
  1.454   1.476   1.491   1.499   1.517   1.525   1.528   1.529
  1.559   1.602   1.608   2.247   2.341   2.369   2.382   2.443
  2.484   2.486   2.534   2.551   2.602   2.602   2.654   2.682
  2.690   2.709   2.738   2.762   2.765   2.837   2.850   2.875
  2.891   2.922   2.965   3.012   3.026   3.032   3.055   3.103
  3.141   3.147   3.162   3.215   3.219   3.233   3.241   3.255
  3.289   3.323   3.386   3.428   3.436   3.438   3.480   3.489
  3.510   3.512   3.577   3.588   3.632   3.638   3.669   3.726
  3.747   3.771   3.820   3.823   3.845   3.857   3.904   3.921
  3.945   3.984   4.010   4.034   4.056   4.073   4.106   4.149
  4.154   4.172   4.176   4.205   4.252   4.311   4.315   4.320
  4.326   4.430   4.436   4.444   4.452   4.476   4.496   4.553
  4.554   4.596   4.704   4.722   4.908   5.161   5.266   5.324
  5.382   5.520   5.531   5.576   5.605   5.613   5.616  23.844
 23.981  24.067  24.124  27.352  27.482  27.577  27.864  27.867
 27.924  27.944  27.952  28.017  28.145  28.196  28.290  40.679
 40.703  40.735  40.755  40.766  40.768  40.841  40.843  40.941
 40.948  40.969  40.981  40.988  41.006  41.025  41.026  41.037
 41.041  41.068  41.075
 
 Beta MOs
 -- Occupied --
-10.362 -10.362 -10.309 -10.309  -1.190  -1.094  -0.985  -0.939
 -0.829  -0.773  -0.757  -0.746  -0.699  -0.680  -0.670  -0.663
 -- Virtual --
 -0.415  -0.095  -0.074  -0.072  -0.071  -0.044  -0.039  -0.036
 -0.031  -0.023  -0.011  -0.002   0.000   0.023   0.024   0.027
  0.047   0.048   0.050   0.055   0.064   0.070   0.078   0.081
  0.085   0.086   0.089   0.100   0.102   0.121   0.125   0.126
  0.133   0.160   0.174   0.176   0.201   0.212   0.241   0.256
  0.323   0.326   0.343   0.357   0.358   0.372   0.425   0.432
  0.451   0.455   0.461   0.477   0.486   0.490   0.494   0.502
  0.513   0.518   0.519   0.542   0.565   0.589   0.596   0.611
  0.612   0.665   0.673   0.694   0.738   0.747   0.759   0.764
  0.812   0.831   0.860   0.890   0.901   1.006   1.011   1.025
  1.027   1.029   1.050   1.078   1.083   1.111   1.117   1.122
  1.144   1.151   1.157   1.167   1.190   1.193   1.220   1.306
  1.312   1.320   1.326   1.338   1.361   1.368   1.378   1.381
  1.428   1.458   1.482   1.496   1.503   1.522   1.530   1.532
  1.533   1.564   1.611   1.613   2.254   2.351   2.380   2.392
  2.450   2.490   2.492   2.542   2.562   2.614   2.617   2.667
  2.692   2.702   2.717   2.753   2.772   2.775   2.842   2.855
  2.887   2.897   2.933   2.974   3.019   3.032   3.037   3.059
  3.113   3.150   3.157   3.171   3.222   3.234   3.242   3.247
  3.264   3.296   3.331   3.397   3.437   3.441   3.442   3.487
  3.498   3.520   3.528   3.594   3.594   3.641   3.648   3.674
  3.735   3.758   3.779   3.828   3.832   3.859   3.867   3.912
  3.931   3.959   3.992   4.022   4.043   4.068   4.084   4.115
  4.159   4.163   4.180   4.185   4.212   4.265   4.322   4.328
  4.329   4.330   4.441   4.447   4.454   4.457   4.484   4.505
  4.562   4.565   4.608   4.717   4.732   4.922   5.171   5.280
  5.337   5.398   5.529   5.538   5.588   5.617   5.621   5.625
 23.848  23.984  24.069  24.128  27.361  27.485  27.581  27.868
 27.869  27.926  27.946  27.954  28.021  28.149  28.199  28.298
 40.686  40.708  40.740  40.760  40.767  40.770  40.846  40.847
 40.950  40.956  40.976  40.985  40.992  41.013  41.028  41.030
 41.040  41.045  41.069  41.075
 --------------------------------------------------------------
 
          Ground-State Mulliken Net Atomic Charges

     Atom                 Charge (a.u.)    Spin (a.u.)
  --------------------------------------------------------
      1 C                    -0.296642       0.082928
      2 C                     0.021997       0.206167
      3 C                     0.022195       0.206228
      4 C                    -0.296224       0.082874
      5 H                     0.171279       0.067501
      6 H                     0.171355       0.067499
      7 H                     0.139528       0.027328
      8 H                     0.129716       0.002053
      9 H                     0.129736       0.002059
     10 H                     0.139484       0.027340
     11 H                     0.180757       0.090088
     12 H                     0.153100       0.023919
     13 H                     0.153033       0.023920
     14 H                     0.180685       0.090096
  --------------------------------------------------------
  Sum of atomic charges =     1.000000
  Sum of spin   charges =     1.000000

 -----------------------------------------------------------------
                    Cartesian Multipole Moments
 -----------------------------------------------------------------
    Charge (ESU x 10^10)
                 4.8032
    Dipole Moment (Debye)
         X       3.3854      Y      -0.0001      Z       8.8129
       Tot       9.4407
    Quadrupole Moments (Debye-Ang)
        XX     -16.5138     XY      -0.6943     YY     -22.7312
        XZ      11.1691     YZ       0.0831     ZZ       2.4282
    Octapole Moments (Debye-Ang^2)
       XXX     -38.2800    XXY      -0.9788    XYY     -16.0209
       YYY      -0.0001    XXZ     -23.3110    XYZ      -1.2152
       YYZ     -41.7068    XZZ      19.9039    YZZ       0.3050
       ZZZ     -45.9703
    Hexadecapole Moments (Debye-Ang^3)
      XXXX    -164.8684   XXXY      -2.8385   XXYY     -37.2392
      XYYY      -0.7656   YYYY     -45.2566   XXXZ    -105.6521
      XXYZ      -2.1337   XYYZ     -52.3796   YYYZ       0.3405
      XXZZ     -94.9480   XYZZ      -2.9841   YYZZ    -134.2328
      XZZZ     -15.2462   YZZZ       1.0323   ZZZZ    -505.3925
 -----------------------------------------------------------------
 Total job time:  427.62s(wall), 425.19s(cpu) 
 Wed May 22 11:35:18 2013

        *************************************************************
        *                                                           *
        *  Thank you very much for using Q-Chem.  Have a nice day.  *
        *                                                           *
        *************************************************************


0 sent ACK to 0 
now end server 0 ... 
