Process 0 of 1 is on cl153.stfx.acenet.ca - thread support 1
initial socket setup ...start
initial socket setup ...done 
now start server 0 ... 

cmd = /usr/bin/ssh clhead /usr/local/qchem/bin/get_hostid 1120651594 > /globalscratch/itamblyn/bnl/g297_b3lyp_neut_g03Large_worked/g2g71032/omega620/qchem12239/lic.dat
                  Welcome to Q-Chem
     A Quantum Leap Into The Future Of Chemistry

 Y. Shao, L. Fusti-Molnar, Y. Jung, J. Kussmann, C. Ochsenfeld,
 S. T. Brown, A. T. B. Gilbert, L. V. Slipchenko,S. V. Levchenko,
 D. P. O'Neill, R. A. DiStasio Jr., R. C. Lochan, T. Wang,
 G. J. O. Beran, N. A. Besley, J. M. Herbert, C. Y. Lin,
 T. Van Voorhis, S. H. Chien, A. Sodt, R. P. Steele, 
 V. A. Rassolov, P. E. Maslen, P. P. Korambath, R. D. Adamson,
 B. Austin, J. Baker, E. F. C. Byrd, H. Dachsel, R. J. Doerksen,
 A. Dreuw, B. D. Dunietz, A. D. Dutoi, T. R. Furlani,
 S. R. Gwaltney, A. Heyden, S. Hirata, C.-P. Hsu, G. Kedziora,
 R. Z. Khaliullin, P. Klunzinger, A. M. Lee, M. S. Lee, W. Liang,
 I. Lotan, N. Nair, B. Peters, E. I. Proynov, P. A. Pieniazek, 
 Y. M. Rhee, J. Ritchie, E. Rosta, C. D. Sherrill, 
 A. C. Simmonett, J. E. Subotnik, H. L. Woodcock III,
 W. Zhang, A. T. Bell, A. K. Chakraborty, D. M. Chipman,
 F. J. Keil, A. Warshel, W. J. Hehre, H. F. Schaefer III,
 J. Kong, A. I. Krylov, P. M. W. Gill, M. Head-Gordon,
 Q-Chem, Version 3.1, Q-Chem, Inc., Pittsburgh, PA (2007).

 Additional authors for Version 3.1: 
 Z. Gan, Y. Zhao, N. E. Schultz, D. Truhlar, E. Epifanovsky and M. Oana.

 Additional authors for Version 3.2: 
 R. Baer, B. R. Brooks, D. Casanova, J.-D. Chai, C.-L. Cheng, 
 C. Cramer, D. Crittenden, A. Ghysels, G. Hawkins, E. G. Hohenstein, 
 C. Kelley, W. Kurlancheek, D. Liotard, E. Livshits, P. Manohar, 
 A. Marenich, D. Neuhauser, R. Olson, M. A. Rohrdanz, K. S. Thanthiriwatte, 
 A. J. W. Thom, V. Vanovschi, C. F. Williams, Q. Wu and Z.-Q. You. 


 Intel X86 Linux Version

 Q-chem begins on Fri Apr 15 15:27:02 2011  

 Parallel job on  1  processors
Processing $rem in /usr/local/qchem/config/preferences.

theFileMan(): MAXOPENFILES=974 MAX_SUB_FILE_NUM=16
Maximum size of a physical file is 2.0 GB, maximum size of a tmp-file is 32.0 GB


--------------------------------------------------------------
User input:
--------------------------------------------------------------

$molecule
-1,2
N
N,1,NN

NN=1.10549853

$end

$comment
negative
$end

$xc_functional
   X HF 1.0
   X BNL 1.0
   C LYP 1.0
$end

$rem
SYMMETRY_DECOMPOSITION	0
exchange 		general
BASIS                   g3large
omega			620
separate_jk		true
mem_static              760
max_scf_cycles          200
scf_final_print         1
sym_ignore              true
$end

--------------------------------------------------------------
 Writing REM_CC_EA            2
 ----------------------------------------------------
       Standard Nuclear Orientation (Angstroms)
    I     Atom         X            Y            Z
 ----------------------------------------------------
    1      N       0.000000     0.000000     0.000000
    2      N       0.000000     0.000000     1.105499
 ----------------------------------------------------
 Nuclear Repulsion Energy =    23.4551947610 hartrees
 There are        8 alpha and        7 beta electrons
 Requested basis set is G3large
 There are 20 shells and 84 basis functions

Total QAlloc Memory Limit   2000 MB
Mega-Array Size       743 MB
MEM_STATIC part       760 MB

                       Distance Matrix (Angstroms)
             N (  1)
   N (  2)  1.105499
 
 A cutoff of  1.0D-08 yielded    206 shell pairs
 There are   3662 function pairs (  4809 Cartesian)
Evaluating contribution to one-electron hamiltonian from nuclear
 Smallest overlap matrix eigenvalue = 2.03E-04
 Multipole matrices computed through 2nd order

  Scale SEOQF with 1.000000e-01/1.000000e-01/1.000000e-01

 Standard Electronic Orientation quadrupole field applied
 Nucleus-field energy     =    -0.0000000009 hartrees
 Guess from superposition of atomic densities
 Warning:  Energy on first SCF cycle will be non-variational
 An unrestricted hybrid HF-DFT SCF calculation will be
 performed using Pulay DIIS extrapolation
 Exchange:     1.0000 Hartree-Fock + 1.0000 BNL
 Correlation:  1.0000 LYP
 Using SG-1 standard quadrature grid
 SCF converges when DIIS error is below 1.0E-05
 Warning!  Inaccurate integrated density:
   Number of electrons =    15
   Numerical integral  =    13.999994582429
   Relative error      =    -6.6667027838 %
 ---------------------------------------
  Cycle       Energy         DIIS Error
 ---------------------------------------
    1    -108.5817010660      5.32E-02
    2    -108.4343843630      5.96E-03
    3    -108.4676067524      4.18E-03
    4    -108.4797523793      4.03E-04
    5    -108.4799343675      1.07E-04
    6    -108.4799534537      2.39E-05
    7    -108.4799571888      8.16E-06 Convergence criterion met
 ---------------------------------------
 One-Electron    Energy =  -198.9165212514
 Total Coulomb   Energy =    79.9237129058
 Alpha Exchange  Energy =    -2.2279596250
 Beta  Exchange  Energy =    -1.9668613327
 DFT   Exchange  Energy =    -8.2381362128
 DFT Correlation Energy =    -0.5093864330
 Nuclear Repu.   Energy =    23.4551947601
 Nuclear Attr.   Energy =  -307.2877895303
 Kinetic         Energy =   108.3712682790
 <S^2> = 0.7527
 SCF time:  CPU 7.54 s  wall 27.63 s
 Final Alpha MO Eigenvalues
            1           2           3           4           5           6
    1 -13.9034253 -13.9020350  -0.9894921  -0.4181786  -0.3345061  -0.2946731
            7           8           9          10          11          12
    1  -0.2806404   0.0537355   0.3028453   0.3306053   0.3363852   0.3456159
           13
    1   0.3505707
 Final Beta MO Eigenvalues
            1           2           3           4           5           6
    1 -13.8939203 -13.8922640  -0.9722703  -0.3750061  -0.2847980  -0.2599356
            7           8           9          10          11          12
    1  -0.2551414   0.2983531   0.3272668   0.3360649   0.3430402   0.3432652
 Analysis of SCF Wavefunction
 
 --------------------------------------------------------------
                    Orbital Energies (a.u.)
 --------------------------------------------------------------
 
 Alpha MOs
 -- Occupied --
-13.903 -13.902  -0.989  -0.418  -0.335  -0.295  -0.281   0.054
 -- Virtual --
  0.303   0.331   0.336   0.346   0.351   0.414   0.419   0.481
  0.513   0.865   1.057   1.107   1.113   1.198   1.204   1.272
  1.272   1.309   1.319   1.546   1.561   1.592   1.700   1.701
  2.185   2.187   2.275   2.456   3.701   3.749   3.749   3.802
  3.802   4.083   4.085   4.116   4.123   4.124   4.128   4.287
  4.287   4.785   4.847   5.060   5.060   5.063   5.086   5.087
  5.155   5.155   5.287   5.287   5.621   5.626   6.420   6.825
  6.830   7.246  35.750  36.758  37.737  37.739  38.122  38.124
 38.709  38.963  40.739  40.802  40.846  40.944  40.948  40.949
 40.988  41.285  41.286  41.867
 
 Beta MOs
 -- Occupied --
-13.894 -13.892  -0.972  -0.375  -0.285  -0.260  -0.255
 -- Virtual --
  0.298   0.327   0.336   0.343   0.343   0.348   0.411   0.489
  0.512   0.513   0.872   1.060   1.111   1.129   1.210   1.230
  1.285   1.286   1.326   1.329   1.566   1.589   1.604   1.729
  1.730   2.189   2.209   2.286   2.465   3.710   3.763   3.766
  3.822   3.822   4.092   4.115   4.125   4.133   4.150   4.161
  4.312   4.312   4.797   4.864   5.068   5.072   5.091   5.106
  5.109   5.189   5.189   5.320   5.320   5.631   5.656   6.429
  6.834   6.857   7.260  35.762  36.770  37.743  37.757  38.128
 38.142  38.717  38.970  40.750  40.825  40.867  40.956  40.966
 40.970  41.010  41.293  41.307  41.876
 --------------------------------------------------------------
 
          Ground-State Mulliken Net Atomic Charges

     Atom                 Charge (a.u.)    Spin (a.u.)
  --------------------------------------------------------
      1 N                    -0.500024       0.499992
      2 N                    -0.499976       0.500008
  --------------------------------------------------------
  Sum of atomic charges =    -1.000000
  Sum of spin   charges =     1.000000

 -----------------------------------------------------------------
                    Cartesian Multipole Moments
 -----------------------------------------------------------------
    Charge (ESU x 10^10)
                -4.8032
    Dipole Moment (Debye)
         X       0.0000      Y       0.0000      Z      -2.6550
       Tot       2.6550
    Quadrupole Moments (Debye-Ang)
        XX     -13.3757     XY      -0.0013     YY     -16.1197
        XZ       0.0000     YZ       0.0000     ZZ     -20.7303
    Octapole Moments (Debye-Ang^2)
       XXX       0.0000    XXY       0.0000    XYY       0.0000
       YYY       0.0001    XXZ      -7.3934    XYZ      -0.0007
       YYZ      -8.9101    XZZ       0.0000    YZZ       0.0001
       ZZZ     -32.7536
    Hexadecapole Moments (Debye-Ang^3)
      XXXX     -16.3531   XXXY      -0.0026   XXYY      -7.2807
      XYYY      -0.0026   YYYY     -27.3312   XXXZ       0.0000
      XXYZ       0.0000   XYYZ       0.0000   YYYZ       0.0001
      XXZZ     -15.9875   XYZZ      -0.0032   YYZZ     -22.8085
      XZZZ       0.0000   YZZZ       0.0001   ZZZZ     -95.2307
 -----------------------------------------------------------------
 Total job time:  30.94s(wall), 7.64s(cpu) 
 Fri Apr 15 15:27:33 2011

        *************************************************************
        *                                                           *
        *  Thank you very much for using Q-Chem.  Have a nice day.  *
        *                                                           *
        *************************************************************


0 sent ACK to 0 
now end server 0 ... 
 
**********************************************************************
Job 2 of 3 
**********************************************************************
 
Process 0 of 1 is on cl153.stfx.acenet.ca - thread support 1
initial socket setup ...start
initial socket setup ...done 
now start server 0 ... 

cmd = /usr/bin/ssh clhead /usr/local/qchem/bin/get_hostid 1507365443 > /globalscratch/itamblyn/bnl/g297_b3lyp_neut_g03Large_worked/g2g71032/omega620/qchem12239/lic.dat
                  Welcome to Q-Chem
     A Quantum Leap Into The Future Of Chemistry

 Y. Shao, L. Fusti-Molnar, Y. Jung, J. Kussmann, C. Ochsenfeld,
 S. T. Brown, A. T. B. Gilbert, L. V. Slipchenko,S. V. Levchenko,
 D. P. O'Neill, R. A. DiStasio Jr., R. C. Lochan, T. Wang,
 G. J. O. Beran, N. A. Besley, J. M. Herbert, C. Y. Lin,
 T. Van Voorhis, S. H. Chien, A. Sodt, R. P. Steele, 
 V. A. Rassolov, P. E. Maslen, P. P. Korambath, R. D. Adamson,
 B. Austin, J. Baker, E. F. C. Byrd, H. Dachsel, R. J. Doerksen,
 A. Dreuw, B. D. Dunietz, A. D. Dutoi, T. R. Furlani,
 S. R. Gwaltney, A. Heyden, S. Hirata, C.-P. Hsu, G. Kedziora,
 R. Z. Khaliullin, P. Klunzinger, A. M. Lee, M. S. Lee, W. Liang,
 I. Lotan, N. Nair, B. Peters, E. I. Proynov, P. A. Pieniazek, 
 Y. M. Rhee, J. Ritchie, E. Rosta, C. D. Sherrill, 
 A. C. Simmonett, J. E. Subotnik, H. L. Woodcock III,
 W. Zhang, A. T. Bell, A. K. Chakraborty, D. M. Chipman,
 F. J. Keil, A. Warshel, W. J. Hehre, H. F. Schaefer III,
 J. Kong, A. I. Krylov, P. M. W. Gill, M. Head-Gordon,
 Q-Chem, Version 3.1, Q-Chem, Inc., Pittsburgh, PA (2007).

 Additional authors for Version 3.1: 
 Z. Gan, Y. Zhao, N. E. Schultz, D. Truhlar, E. Epifanovsky and M. Oana.

 Additional authors for Version 3.2: 
 R. Baer, B. R. Brooks, D. Casanova, J.-D. Chai, C.-L. Cheng, 
 C. Cramer, D. Crittenden, A. Ghysels, G. Hawkins, E. G. Hohenstein, 
 C. Kelley, W. Kurlancheek, D. Liotard, E. Livshits, P. Manohar, 
 A. Marenich, D. Neuhauser, R. Olson, M. A. Rohrdanz, K. S. Thanthiriwatte, 
 A. J. W. Thom, V. Vanovschi, C. F. Williams, Q. Wu and Z.-Q. You. 


 Intel X86 Linux Version

 Q-chem begins on Fri Apr 15 15:27:37 2011  

 Parallel job on  1  processors
Processing $rem in /usr/local/qchem/config/preferences.

theFileMan(): MAXOPENFILES=974 MAX_SUB_FILE_NUM=16
Maximum size of a physical file is 2.0 GB, maximum size of a tmp-file is 32.0 GB


--------------------------------------------------------------
User input:
--------------------------------------------------------------

$molecule
0,1
N
N,1,NN

NN=1.10549853

$end

$comment
neutral
$end

$xc_functional
   X HF 1.0
   X BNL 1.0
   C LYP 1.0
$end

$rem
SYMMETRY_DECOMPOSITION	0
exchange 		general
BASIS                   g3large
omega			620
separate_jk		true
mem_static              760
max_scf_cycles          200
scf_final_print         1
sym_ignore              true
$end

--------------------------------------------------------------
 Writing REM_CC_EA            2
 ----------------------------------------------------
       Standard Nuclear Orientation (Angstroms)
    I     Atom         X            Y            Z
 ----------------------------------------------------
    1      N       0.000000     0.000000     0.000000
    2      N       0.000000     0.000000     1.105499
 ----------------------------------------------------
 Nuclear Repulsion Energy =    23.4551947610 hartrees
 There are        7 alpha and        7 beta electrons
 Requested basis set is G3large
 There are 20 shells and 84 basis functions

Total QAlloc Memory Limit   2000 MB
Mega-Array Size       743 MB
MEM_STATIC part       760 MB

                       Distance Matrix (Angstroms)
             N (  1)
   N (  2)  1.105499
 
 A cutoff of  1.0D-08 yielded    206 shell pairs
 There are   3662 function pairs (  4809 Cartesian)
Evaluating contribution to one-electron hamiltonian from nuclear
 Smallest overlap matrix eigenvalue = 2.03E-04
 Multipole matrices computed through 2nd order

  Scale SEOQF with 1.000000e-01/1.000000e-01/1.000000e-01

 Standard Electronic Orientation quadrupole field applied
 Nucleus-field energy     =    -0.0000000009 hartrees
 Guess from superposition of atomic densities
 Warning:  Energy on first SCF cycle will be non-variational
 A restricted hybrid HF-DFT SCF calculation will be
 performed using Pulay DIIS extrapolation
 Exchange:     1.0000 Hartree-Fock + 1.0000 BNL
 Correlation:  1.0000 LYP
 Using SG-1 standard quadrature grid
 SCF converges when DIIS error is below 1.0E-05
 ---------------------------------------
  Cycle       Energy         DIIS Error
 ---------------------------------------
    1    -108.5817010660      5.32E-02
    2    -108.5412273506      2.86E-03
    3    -108.5477076321      9.82E-04
    4    -108.5481911965      1.60E-04
    5    -108.5482058996      2.59E-05
    6    -108.5482103977      5.40E-06 Convergence criterion met
 ---------------------------------------
 One-Electron    Energy =  -194.0869132575
 Total Coulomb   Energy =    74.7058042623
 Alpha Exchange  Energy =    -1.9984036173
 Beta  Exchange  Energy =    -1.9984036173
 DFT   Exchange  Energy =    -8.1420143231
 DFT Correlation Energy =    -0.4834746049
 Nuclear Repu.   Energy =    23.4551947601
 Nuclear Attr.   Energy =  -302.0528189477
 Kinetic         Energy =   107.9659056901
 SCF time:  CPU 5.69 s  wall 20.32 s
 Final Alpha MO Eigenvalues
            1           2           3           4           5           6
    1 -14.2822259 -14.2804972  -1.3398895  -0.7341151  -0.6324739  -0.6324738
            7           8           9          10          11          12
    1  -0.6115385   0.0779366   0.0779370   0.1264794   0.1266794   0.1455166
 Analysis of SCF Wavefunction
 
 --------------------------------------------------------------
                    Orbital Energies (a.u.)
 --------------------------------------------------------------
 
 Alpha MOs
 -- Occupied --
-14.282 -14.280  -1.340  -0.734  -0.632  -0.632  -0.612
 -- Virtual --
  0.078   0.078   0.126   0.127   0.146   0.146   0.200   0.234
  0.234   0.315   0.602   0.778   0.823   0.823   0.921   0.921
  0.956   0.956   0.988   1.017   1.242   1.242   1.302   1.399
  1.399   1.884   1.884   1.967   2.141   3.364   3.411   3.411
  3.465   3.465   3.738   3.738   3.780   3.780   3.786   3.786
  3.952   3.952   4.455   4.501   4.723   4.727   4.727   4.752
  4.752   4.808   4.808   4.940   4.941   5.281   5.281   6.078
  6.481   6.481   6.897  35.376  36.383  37.360  37.360  37.745
 37.745  38.335  38.587  40.364  40.427  40.471  40.569  40.574
 40.574  40.613  40.911  40.911  41.493
 --------------------------------------------------------------
 
          Ground-State Mulliken Net Atomic Charges

     Atom                 Charge (a.u.)
  ----------------------------------------
      1 N                    -0.000001
      2 N                     0.000001
  ----------------------------------------
  Sum of atomic charges =     0.000000

 -----------------------------------------------------------------
                    Cartesian Multipole Moments
 -----------------------------------------------------------------
    Charge (ESU x 10^10)
                 0.0000
    Dipole Moment (Debye)
         X       0.0000      Y       0.0000      Z       0.0000
       Tot       0.0000
    Quadrupole Moments (Debye-Ang)
        XX     -10.4050     XY       0.0000     YY     -10.4050
        XZ       0.0000     YZ       0.0000     ZZ     -11.8746
    Octapole Moments (Debye-Ang^2)
       XXX       0.0000    XXY       0.0000    XYY       0.0000
       YYY       0.0000    XXZ      -5.7514    XYZ       0.0000
       YYZ      -5.7513    XZZ       0.0000    YZZ       0.0000
       ZZZ     -19.6910
    Hexadecapole Moments (Debye-Ang^3)
      XXXX      -9.1892   XXXY       0.0000   XXYY      -3.0631
      XYYY       0.0000   YYYY      -9.1892   XXXZ       0.0000
      XXYZ       0.0000   XYYZ       0.0000   YYYZ       0.0000
      XXZZ      -9.7373   XYZZ       0.0000   YYZZ      -9.7373
      XZZZ       0.0000   YZZZ       0.0000   ZZZZ     -54.6471
 -----------------------------------------------------------------
 Total job time:  23.36s(wall), 5.80s(cpu) 
 Fri Apr 15 15:28:00 2011

        *************************************************************
        *                                                           *
        *  Thank you very much for using Q-Chem.  Have a nice day.  *
        *                                                           *
        *************************************************************


0 sent ACK to 0 
now end server 0 ... 
 
**********************************************************************
Job 3 of 3 
**********************************************************************
 
Process 0 of 1 is on cl153.stfx.acenet.ca - thread support 1
initial socket setup ...start
initial socket setup ...done 
now start server 0 ... 

cmd = /usr/bin/ssh clhead /usr/local/qchem/bin/get_hostid 511818919 > /globalscratch/itamblyn/bnl/g297_b3lyp_neut_g03Large_worked/g2g71032/omega620/qchem12239/lic.dat
                  Welcome to Q-Chem
     A Quantum Leap Into The Future Of Chemistry

 Y. Shao, L. Fusti-Molnar, Y. Jung, J. Kussmann, C. Ochsenfeld,
 S. T. Brown, A. T. B. Gilbert, L. V. Slipchenko,S. V. Levchenko,
 D. P. O'Neill, R. A. DiStasio Jr., R. C. Lochan, T. Wang,
 G. J. O. Beran, N. A. Besley, J. M. Herbert, C. Y. Lin,
 T. Van Voorhis, S. H. Chien, A. Sodt, R. P. Steele, 
 V. A. Rassolov, P. E. Maslen, P. P. Korambath, R. D. Adamson,
 B. Austin, J. Baker, E. F. C. Byrd, H. Dachsel, R. J. Doerksen,
 A. Dreuw, B. D. Dunietz, A. D. Dutoi, T. R. Furlani,
 S. R. Gwaltney, A. Heyden, S. Hirata, C.-P. Hsu, G. Kedziora,
 R. Z. Khaliullin, P. Klunzinger, A. M. Lee, M. S. Lee, W. Liang,
 I. Lotan, N. Nair, B. Peters, E. I. Proynov, P. A. Pieniazek, 
 Y. M. Rhee, J. Ritchie, E. Rosta, C. D. Sherrill, 
 A. C. Simmonett, J. E. Subotnik, H. L. Woodcock III,
 W. Zhang, A. T. Bell, A. K. Chakraborty, D. M. Chipman,
 F. J. Keil, A. Warshel, W. J. Hehre, H. F. Schaefer III,
 J. Kong, A. I. Krylov, P. M. W. Gill, M. Head-Gordon,
 Q-Chem, Version 3.1, Q-Chem, Inc., Pittsburgh, PA (2007).

 Additional authors for Version 3.1: 
 Z. Gan, Y. Zhao, N. E. Schultz, D. Truhlar, E. Epifanovsky and M. Oana.

 Additional authors for Version 3.2: 
 R. Baer, B. R. Brooks, D. Casanova, J.-D. Chai, C.-L. Cheng, 
 C. Cramer, D. Crittenden, A. Ghysels, G. Hawkins, E. G. Hohenstein, 
 C. Kelley, W. Kurlancheek, D. Liotard, E. Livshits, P. Manohar, 
 A. Marenich, D. Neuhauser, R. Olson, M. A. Rohrdanz, K. S. Thanthiriwatte, 
 A. J. W. Thom, V. Vanovschi, C. F. Williams, Q. Wu and Z.-Q. You. 


 Intel X86 Linux Version

 Q-chem begins on Fri Apr 15 15:28:06 2011  

 Parallel job on  1  processors
Processing $rem in /usr/local/qchem/config/preferences.

theFileMan(): MAXOPENFILES=974 MAX_SUB_FILE_NUM=16
Maximum size of a physical file is 2.0 GB, maximum size of a tmp-file is 32.0 GB


--------------------------------------------------------------
User input:
--------------------------------------------------------------

$molecule
1,2
N
N,1,NN

NN=1.10549853

$end

$comment
positive
$end

$xc_functional
   X HF 1.0
   X BNL 1.0
   C LYP 1.0
$end

$rem
SYMMETRY_DECOMPOSITION	0
exchange 		general
BASIS                   g3large
omega			620
separate_jk		true
mem_static              760
max_scf_cycles          200
scf_final_print         1
sym_ignore              true
$end

--------------------------------------------------------------
 Writing REM_CC_EA            2
 ----------------------------------------------------
       Standard Nuclear Orientation (Angstroms)
    I     Atom         X            Y            Z
 ----------------------------------------------------
    1      N       0.000000     0.000000     0.000000
    2      N       0.000000     0.000000     1.105499
 ----------------------------------------------------
 Nuclear Repulsion Energy =    23.4551947610 hartrees
 There are        7 alpha and        6 beta electrons
 Requested basis set is G3large
 There are 20 shells and 84 basis functions

Total QAlloc Memory Limit   2000 MB
Mega-Array Size       743 MB
MEM_STATIC part       760 MB

                       Distance Matrix (Angstroms)
             N (  1)
   N (  2)  1.105499
 
 A cutoff of  1.0D-08 yielded    206 shell pairs
 There are   3662 function pairs (  4809 Cartesian)
Evaluating contribution to one-electron hamiltonian from nuclear
 Smallest overlap matrix eigenvalue = 2.03E-04
 Multipole matrices computed through 2nd order

  Scale SEOQF with 1.000000e-01/1.000000e-01/1.000000e-01

 Standard Electronic Orientation quadrupole field applied
 Nucleus-field energy     =    -0.0000000009 hartrees
 Guess from superposition of atomic densities
 Warning:  Energy on first SCF cycle will be non-variational
 An unrestricted hybrid HF-DFT SCF calculation will be
 performed using Pulay DIIS extrapolation
 Exchange:     1.0000 Hartree-Fock + 1.0000 BNL
 Correlation:  1.0000 LYP
 Using SG-1 standard quadrature grid
 SCF converges when DIIS error is below 1.0E-05
 Warning!  Inaccurate integrated density:
   Number of electrons =    13
   Numerical integral  =    13.999994582429
   Relative error      =     7.6922660187 %
 ---------------------------------------
  Cycle       Energy         DIIS Error
 ---------------------------------------
    1    -108.5817010660      5.32E-02
    2    -107.8620647132      8.58E-03
    3    -107.9339013963      3.32E-03
    4    -107.9397448633      2.89E-04
    5    -107.9399557538      4.32E-05
    6    -107.9399663317      9.47E-06 Convergence criterion met
 ---------------------------------------
 One-Electron    Energy =  -187.8595281496
 Total Coulomb   Energy =    68.6463528693
 Alpha Exchange  Energy =    -2.0296760933
 Beta  Exchange  Energy =    -1.7041981249
 DFT   Exchange  Energy =    -8.0023296561
 DFT Correlation Energy =    -0.4457819372
 Nuclear Repu.   Energy =    23.4551947601
 Nuclear Attr.   Energy =  -295.3673201483
 Kinetic         Energy =   107.5077919987
 <S^2> = 0.7562
 SCF time:  CPU 6.17 s  wall 21.03 s
 Final Alpha MO Eigenvalues
            1           2           3           4           5           6
    1 -14.7753243 -14.7735348  -1.7870789  -1.1932677  -1.0877068  -1.0531994
            7           8           9          10          11          12
    1  -1.0531987  -0.3163174  -0.3163164  -0.1066563  -0.0698390  -0.0679579
 Final Beta MO Eigenvalues
            1           2           3           4           5           6
    1 -14.7612970 -14.7597378  -1.7556679  -1.0507404  -1.0362091  -1.0362083
            7           8           9          10          11
    1  -0.6078978  -0.2912381  -0.2912370  -0.0978618  -0.0701294
 Analysis of SCF Wavefunction
 
 --------------------------------------------------------------
                    Orbital Energies (a.u.)
 --------------------------------------------------------------
 
 Alpha MOs
 -- Occupied --
-14.775 -14.774  -1.787  -1.193  -1.088  -1.053  -1.053
 -- Virtual --
 -0.316  -0.316  -0.107  -0.070  -0.068  -0.068  -0.015   0.019
  0.019   0.109   0.272   0.460   0.502   0.502   0.581   0.593
  0.593   0.599   0.599   0.659   0.844   0.844   0.965   1.034
  1.034   1.513   1.513   1.579   1.743   2.935   2.995   2.995
  3.069   3.069   3.291   3.291   3.359   3.359   3.363   3.363
  3.554   3.554   4.013   4.017   4.274   4.274   4.278   4.328
  4.328   4.368   4.368   4.507   4.507   4.818   4.818   5.607
  6.027   6.027   6.402  34.886  35.896  36.876  36.876  37.262
 37.262  37.836  38.085  39.856  39.943  39.987  40.072  40.072
 40.086  40.130  40.410  40.410  40.980
 
 Beta MOs
 -- Occupied --
-14.761 -14.760  -1.756  -1.051  -1.036  -1.036
 -- Virtual --
 -0.608  -0.291  -0.291  -0.098  -0.070  -0.067  -0.067  -0.014
  0.020   0.020   0.112   0.295   0.479   0.509   0.509   0.597
  0.597   0.605   0.605   0.631   0.684   0.876   0.876   0.975
  1.043   1.043   1.534   1.534   1.609   1.771   2.967   3.014
  3.014   3.076   3.076   3.318   3.318   3.379   3.379   3.382
  3.382   3.563   3.563   4.060   4.078   4.317   4.324   4.324
  4.358   4.359   4.388   4.389   4.520   4.520   4.870   4.870
  5.661   6.061   6.061   6.468  34.904  35.910  36.885  36.885
 37.271  37.271  37.861  38.110  39.892  39.954  39.998  40.097
 40.101  40.101  40.140  40.438  40.438  41.021
 --------------------------------------------------------------
 
          Ground-State Mulliken Net Atomic Charges

     Atom                 Charge (a.u.)    Spin (a.u.)
  --------------------------------------------------------
      1 N                     0.500013       0.499971
      2 N                     0.499987       0.500029
  --------------------------------------------------------
  Sum of atomic charges =     1.000000
  Sum of spin   charges =     1.000000

 -----------------------------------------------------------------
                    Cartesian Multipole Moments
 -----------------------------------------------------------------
    Charge (ESU x 10^10)
                 4.8032
    Dipole Moment (Debye)
         X       0.0000      Y       0.0000      Z       2.6550
       Tot       2.6550
    Quadrupole Moments (Debye-Ang)
        XX      -8.3904     XY       0.0000     YY      -8.3904
        XZ       0.0000     YZ       0.0000     ZZ      -4.4173
    Octapole Moments (Debye-Ang^2)
       XXX       0.0000    XXY       0.0000    XYY       0.0000
       YYY       0.0000    XXZ      -4.6378    XYZ       0.0000
       YYZ      -4.6378    XZZ       0.0000    YZZ       0.0000
       ZZZ      -8.9473
    Hexadecapole Moments (Debye-Ang^3)
      XXXX      -6.0356   XXXY       0.0000   XXYY      -2.0118
      XYYY       0.0000   YYYY      -6.0356   XXXZ       0.0000
      XXYZ       0.0000   XYYZ       0.0000   YYYZ       0.0000
      XXZZ      -6.8298   XYZZ       0.0000   YYZZ      -6.8298
      XZZZ       0.0000   YZZZ       0.0000   ZZZZ     -29.8320
 -----------------------------------------------------------------
 Total job time:  38.62s(wall), 6.26s(cpu) 
 Fri Apr 15 15:28:44 2011

        *************************************************************
        *                                                           *
        *  Thank you very much for using Q-Chem.  Have a nice day.  *
        *                                                           *
        *************************************************************


0 sent ACK to 0 
now end server 0 ... 
