Process 0 of 1 is on cl087.stfx.acenet.ca - thread support 1
initial socket setup ...start
initial socket setup ...done 
now start server 0 ... 

cmd = /usr/bin/ssh clhead /usr/local/qchem/bin/get_hostid 946799149 > /scratch/tmp/5954480.1.short.q/qchem2349/lic.dat
                  Welcome to Q-Chem
     A Quantum Leap Into The Future Of Chemistry

 Y. Shao, L. Fusti-Molnar, Y. Jung, J. Kussmann, C. Ochsenfeld,
 S. T. Brown, A. T. B. Gilbert, L. V. Slipchenko,S. V. Levchenko,
 D. P. O'Neill, R. A. DiStasio Jr., R. C. Lochan, T. Wang,
 G. J. O. Beran, N. A. Besley, J. M. Herbert, C. Y. Lin,
 T. Van Voorhis, S. H. Chien, A. Sodt, R. P. Steele, 
 V. A. Rassolov, P. E. Maslen, P. P. Korambath, R. D. Adamson,
 B. Austin, J. Baker, E. F. C. Byrd, H. Dachsel, R. J. Doerksen,
 A. Dreuw, B. D. Dunietz, A. D. Dutoi, T. R. Furlani,
 S. R. Gwaltney, A. Heyden, S. Hirata, C.-P. Hsu, G. Kedziora,
 R. Z. Khaliullin, P. Klunzinger, A. M. Lee, M. S. Lee, W. Liang,
 I. Lotan, N. Nair, B. Peters, E. I. Proynov, P. A. Pieniazek, 
 Y. M. Rhee, J. Ritchie, E. Rosta, C. D. Sherrill, 
 A. C. Simmonett, J. E. Subotnik, H. L. Woodcock III,
 W. Zhang, A. T. Bell, A. K. Chakraborty, D. M. Chipman,
 F. J. Keil, A. Warshel, W. J. Hehre, H. F. Schaefer III,
 J. Kong, A. I. Krylov, P. M. W. Gill, M. Head-Gordon,
 Q-Chem, Version 3.1, Q-Chem, Inc., Pittsburgh, PA (2007).

 Additional authors for Version 3.1: 
 Z. Gan, Y. Zhao, N. E. Schultz, D. Truhlar, E. Epifanovsky and M. Oana.

 Additional authors for Version 3.2: 
 R. Baer, B. R. Brooks, D. Casanova, J.-D. Chai, C.-L. Cheng, 
 C. Cramer, D. Crittenden, A. Ghysels, G. Hawkins, E. G. Hohenstein, 
 C. Kelley, W. Kurlancheek, D. Liotard, E. Livshits, P. Manohar, 
 A. Marenich, D. Neuhauser, R. Olson, M. A. Rohrdanz, K. S. Thanthiriwatte, 
 A. J. W. Thom, V. Vanovschi, C. F. Williams, Q. Wu and Z.-Q. You. 


 Intel X86 Linux Version

 Q-chem begins on Wed Apr 24 15:07:19 2013  

 Parallel job on  1  processors
Processing $rem in /usr/local/qchem/config/preferences.

theFileMan(): MAXOPENFILES=974 MAX_SUB_FILE_NUM=16
Maximum size of a physical file is 2.0 GB, maximum size of a tmp-file is 32.0 GB


--------------------------------------------------------------
User input:
--------------------------------------------------------------

$molecule
-1,2
O
C,1,C-O
X,2,1.,1,90.
S,2,C-S,3,90.,1,180.,0

 C-O=1.16492344
 C-S=1.57427936

$end

$comment
negative
$end

$xc_functional
C PBE   1.00
X wPBE  1.00
$end

$rem
SYMMETRY_DECOMPOSITION	0
exchange 		general
LRC_DFT                 true
BASIS                   g3large
omega			200
mem_static              760
max_scf_cycles          200
scf_final_print         1
sym_ignore              true
$end

--------------------------------------------------------------
 Writing REM_CC_EA            3
 ----------------------------------------------------
       Standard Nuclear Orientation (Angstroms)
    I     Atom         X            Y            Z
 ----------------------------------------------------
    1      O       0.000000     0.000000     0.000000
    2      C       0.000000     0.000000     1.164923
    3      S       0.000000     0.000000     2.739203
 ----------------------------------------------------
 Nuclear Repulsion Energy =    78.8017000018 hartrees
 There are       16 alpha and       15 beta electrons
 Requested basis set is G3large
 There are 39 shells and 150 basis functions

Total QAlloc Memory Limit   2000 MB
Mega-Array Size       743 MB
MEM_STATIC part       760 MB

                       Distance Matrix (Angstroms)
             O (  1)   C (  2)
   C (  2)  1.164923
   S (  3)  2.739203  1.574279
 
 A cutoff of  1.0D-08 yielded    702 shell pairs
 There are  10607 function pairs ( 14447 Cartesian)
Evaluating contribution to one-electron hamiltonian from nuclear
 Smallest overlap matrix eigenvalue = 2.27E-04
 Multipole matrices computed through 2nd order

  Scale SEOQF with 1.000000e-01/1.000000e-01/1.000000e-01

 Standard Electronic Orientation quadrupole field applied
 Nucleus-field energy     =    -0.0000000137 hartrees
 Guess from superposition of atomic densities
 Warning:  Energy on first SCF cycle will be non-variational
 Long-range K will be added via erf
 Coulomb attenuation parameter = 0.2 bohr**(-1)
 An unrestricted Kohn-Sham SCF calculation will be
 performed using Pulay DIIS extrapolation
 Exchange:  wPBE + LR-HF      Correlation:  PBE
 Using SG-1 standard quadrature grid
 SCF converges when DIIS error is below 1.0E-05
 Requested basis set is G3large
 There are 39 shells and 150 basis functions
 A cutoff of  1.0D-08 yielded    702 shell pairs
 There are  10607 function pairs ( 14447 Cartesian)
 Warning!  Inaccurate integrated density:
   Number of electrons =    31
   Numerical integral  =    30.000036715512
   Relative error      =    -3.2256880145 %
 ---------------------------------------
  Cycle       Energy         DIIS Error
 ---------------------------------------
    1    -511.7629830232      3.57E-02
    2    -511.1858660089      5.94E-03
    3    -511.1188906439      9.12E-03
    4    -511.2875049704      1.20E-03
    5    -511.2916905062      3.43E-04
    6    -511.2924549568      1.02E-04
    7    -511.2927864084      5.22E-05
    8    -511.2930028689      3.64E-05
    9    -511.2931061061      2.88E-05
   10    -511.2932156605      2.67E-05
   11    -511.2932718141      2.58E-05
   12    -511.2932058383      2.51E-05
   13    -511.2930348556      2.04E-05
   14    -511.2930090267      5.27E-06 Convergence criterion met
 ---------------------------------------
 One-Electron    Energy =  -867.8944830026
 Total Coulomb   Energy =   317.4534965529
 Alpha Exchange  Energy =    -1.7350234564
 Beta  Exchange  Energy =    -1.6366442424
 DFT   Exchange  Energy =   -35.1734881473
 DFT Correlation Energy =    -1.1085667190
 Nuclear Repu.   Energy =    78.8016999880
 Nuclear Attr.   Energy = -1378.6954904144
 Kinetic         Energy =   510.8010074118
 <S^2> = 0.7552
 SCF time:  CPU 88.16 s  wall 91.45 s
 Final Alpha MO Eigenvalues
            1           2           3           4           5           6
    1 -87.9391009 -18.6734966  -9.8531821  -7.5721569  -5.5927586  -5.5876162
            7           8           9          10          11          12
    1  -5.5860746  -0.9065229  -0.6141992  -0.3606933  -0.2936266  -0.2906536
           13          14          15          16          17          18
    1  -0.2851298  -0.1372121  -0.1315701   0.0669662   0.1878911   0.2130357
           19          20          21
    1   0.2320290   0.2475524   0.2552801
 Final Beta MO Eigenvalues
            1           2           3           4           5           6
    1 -87.9393020 -18.6688077  -9.8446367  -7.5721810  -5.5930276  -5.5878859
            7           8           9          10          11          12
    1  -5.5858483  -0.8975235  -0.6064373  -0.3481580  -0.2845338  -0.2748656
           13          14          15          16          17          18
    1  -0.2637284  -0.1307749  -0.1183007   0.1914049   0.2170205   0.2367331
           19          20
    1   0.2419529   0.2577717
 Analysis of SCF Wavefunction
 
 --------------------------------------------------------------
                    Orbital Energies (a.u.)
 --------------------------------------------------------------
 
 Alpha MOs
 -- Occupied --
-87.939 -18.673  -9.853  -7.572  -5.593  -5.588  -5.586  -0.907
 -0.614  -0.361  -0.294  -0.291  -0.285  -0.137  -0.132   0.067
 -- Virtual --
  0.188   0.213   0.232   0.248   0.255   0.267   0.274   0.285
  0.329   0.363   0.451   0.467   0.467   0.485   0.486   0.528
  0.547   0.604   0.611   0.622   0.658   0.660   0.829   0.831
  0.904   0.906   0.931   0.977   1.004   1.132   1.132   1.137
  1.137   1.223   1.224   1.246   1.266   1.267   1.284   1.285
  1.312   1.386   1.387   1.395   1.554   1.666   1.669   1.860
  1.861   1.879   2.055   2.058   2.278   2.438   2.535   2.535
  2.803   2.956   2.965   3.019   3.020   3.208   3.209   3.219
  3.220   3.321   3.463   3.467   3.527   3.718   3.718   3.737
  3.739   3.770   3.770   4.318   4.319   4.319   4.756   4.759
  5.001   5.073   5.075   5.233   5.233   5.253   5.254   5.389
  5.635   5.635   6.045   6.866   6.867   6.959   6.959   7.401
  7.435   7.437   7.887   8.961  17.246  17.247  17.882  23.552
 23.644  23.766  23.767  23.869  24.659  27.406  27.409  28.856
 31.015  31.015  31.019  31.019  31.054  31.055  31.152  40.892
 41.173  41.227  41.308  41.309  43.749  43.816  43.963  43.965
 44.080  45.864  45.865  46.738  50.390 189.347
 
 Beta MOs
 -- Occupied --
-87.939 -18.669  -9.845  -7.572  -5.593  -5.588  -5.586  -0.898
 -0.606  -0.348  -0.285  -0.275  -0.264  -0.131  -0.118
 -- Virtual --
  0.191   0.217   0.237   0.242   0.258   0.266   0.270   0.290
  0.307   0.333   0.371   0.453   0.468   0.472   0.492   0.492
  0.530   0.554   0.613   0.623   0.631   0.660   0.672   0.836
  0.852   0.925   0.926   0.943   0.984   1.009   1.135   1.141
  1.141   1.146   1.227   1.227   1.249   1.273   1.273   1.287
  1.299   1.317   1.388   1.399   1.401   1.563   1.668   1.681
  1.873   1.874   1.890   2.056   2.066   2.284   2.448   2.538
  2.552   2.813   2.976   3.004   3.059   3.060   3.222   3.228
  3.229   3.239   3.333   3.507   3.509   3.535   3.719   3.719
  3.743   3.762   3.775   3.775   4.320   4.330   4.334   4.757
  4.759   5.009   5.074   5.082   5.245   5.246   5.260   5.276
  5.395   5.646   5.646   6.049   6.870   6.887   6.980   6.980
  7.405   7.439   7.455   7.894   8.963  17.246  17.248  17.882
 23.552  23.644  23.765  23.767  23.868  24.669  27.415  27.430
 28.861  31.015  31.015  31.019  31.019  31.054  31.056  31.152
 40.911  41.189  41.235  41.313  41.325  43.762  43.828  43.965
 43.975  44.084  45.868  45.878  46.741  50.394 189.347
 --------------------------------------------------------------
 
          Ground-State Mulliken Net Atomic Charges

     Atom                 Charge (a.u.)    Spin (a.u.)
  --------------------------------------------------------
      1 O                    -0.407021       0.164564
      2 C                     0.276016       0.409874
      3 S                    -0.868995       0.425563
  --------------------------------------------------------
  Sum of atomic charges =    -1.000000
  Sum of spin   charges =     1.000000

 -----------------------------------------------------------------
                    Cartesian Multipole Moments
 -----------------------------------------------------------------
    Charge (ESU x 10^10)
                -4.8032
    Dipole Moment (Debye)
         X       0.0294      Y       0.0295      Z      -9.6620
       Tot       9.6621
    Quadrupole Moments (Debye-Ang)
        XX     -30.7729     XY      -2.5480     YY     -30.8203
        XZ       0.1332     YZ       0.1338     ZZ     -59.7911
    Octapole Moments (Debye-Ang^2)
       XXX       0.1996    XXY       0.0671    XYY       0.0665
       YYY       0.2012    XXZ     -63.9137    XYZ      -8.2556
       YYZ     -64.0671    XZZ       0.6159    YZZ       0.6198
       ZZZ    -255.7176
    Hexadecapole Moments (Debye-Ang^3)
      XXXX     -68.8713   XXXY     -10.8217   XXYY     -23.0235
      XYYY     -10.8216   YYYY     -69.2734   XXXZ       0.8396
      XXYZ       0.2821   XYYZ       0.2797   YYYZ       0.8468
      XXZZ    -197.1389   XYZZ     -32.1206   YYZZ    -197.7357
      XZZZ       2.9537   YZZZ       2.9753   ZZZZ   -1169.7955
 -----------------------------------------------------------------
 Total job time:  91.64s(wall), 88.33s(cpu) 
 Wed Apr 24 15:08:50 2013

        *************************************************************
        *                                                           *
        *  Thank you very much for using Q-Chem.  Have a nice day.  *
        *                                                           *
        *************************************************************


0 sent ACK to 0 
now end server 0 ... 
 
**********************************************************************
Job 2 of 3 
**********************************************************************
 
Process 0 of 1 is on cl087.stfx.acenet.ca - thread support 1
initial socket setup ...start
initial socket setup ...done 
now start server 0 ... 

cmd = /usr/bin/ssh clhead /usr/local/qchem/bin/get_hostid 1043569845 > /scratch/tmp/5954480.1.short.q/qchem2349/lic.dat
                  Welcome to Q-Chem
     A Quantum Leap Into The Future Of Chemistry

 Y. Shao, L. Fusti-Molnar, Y. Jung, J. Kussmann, C. Ochsenfeld,
 S. T. Brown, A. T. B. Gilbert, L. V. Slipchenko,S. V. Levchenko,
 D. P. O'Neill, R. A. DiStasio Jr., R. C. Lochan, T. Wang,
 G. J. O. Beran, N. A. Besley, J. M. Herbert, C. Y. Lin,
 T. Van Voorhis, S. H. Chien, A. Sodt, R. P. Steele, 
 V. A. Rassolov, P. E. Maslen, P. P. Korambath, R. D. Adamson,
 B. Austin, J. Baker, E. F. C. Byrd, H. Dachsel, R. J. Doerksen,
 A. Dreuw, B. D. Dunietz, A. D. Dutoi, T. R. Furlani,
 S. R. Gwaltney, A. Heyden, S. Hirata, C.-P. Hsu, G. Kedziora,
 R. Z. Khaliullin, P. Klunzinger, A. M. Lee, M. S. Lee, W. Liang,
 I. Lotan, N. Nair, B. Peters, E. I. Proynov, P. A. Pieniazek, 
 Y. M. Rhee, J. Ritchie, E. Rosta, C. D. Sherrill, 
 A. C. Simmonett, J. E. Subotnik, H. L. Woodcock III,
 W. Zhang, A. T. Bell, A. K. Chakraborty, D. M. Chipman,
 F. J. Keil, A. Warshel, W. J. Hehre, H. F. Schaefer III,
 J. Kong, A. I. Krylov, P. M. W. Gill, M. Head-Gordon,
 Q-Chem, Version 3.1, Q-Chem, Inc., Pittsburgh, PA (2007).

 Additional authors for Version 3.1: 
 Z. Gan, Y. Zhao, N. E. Schultz, D. Truhlar, E. Epifanovsky and M. Oana.

 Additional authors for Version 3.2: 
 R. Baer, B. R. Brooks, D. Casanova, J.-D. Chai, C.-L. Cheng, 
 C. Cramer, D. Crittenden, A. Ghysels, G. Hawkins, E. G. Hohenstein, 
 C. Kelley, W. Kurlancheek, D. Liotard, E. Livshits, P. Manohar, 
 A. Marenich, D. Neuhauser, R. Olson, M. A. Rohrdanz, K. S. Thanthiriwatte, 
 A. J. W. Thom, V. Vanovschi, C. F. Williams, Q. Wu and Z.-Q. You. 


 Intel X86 Linux Version

 Q-chem begins on Wed Apr 24 15:08:53 2013  

 Parallel job on  1  processors
Processing $rem in /usr/local/qchem/config/preferences.

theFileMan(): MAXOPENFILES=974 MAX_SUB_FILE_NUM=16
Maximum size of a physical file is 2.0 GB, maximum size of a tmp-file is 32.0 GB


--------------------------------------------------------------
User input:
--------------------------------------------------------------

$molecule
0,1
O
C,1,C-O
X,2,1.,1,90.
S,2,C-S,3,90.,1,180.,0

 C-O=1.16492344
 C-S=1.57427936

$end

$comment
neutral
$end

$xc_functional
C PBE   1.00
X wPBE  1.00
$end


$rem
SYMMETRY_DECOMPOSITION	0
LRC_DFT                 true
exchange 		general
BASIS                   g3large
omega			200
mem_static              760
max_scf_cycles          200
scf_final_print         1
sym_ignore              true
$end

--------------------------------------------------------------
 Writing REM_CC_EA            3
 ----------------------------------------------------
       Standard Nuclear Orientation (Angstroms)
    I     Atom         X            Y            Z
 ----------------------------------------------------
    1      O       0.000000     0.000000     0.000000
    2      C       0.000000     0.000000     1.164923
    3      S       0.000000     0.000000     2.739203
 ----------------------------------------------------
 Nuclear Repulsion Energy =    78.8017000018 hartrees
 There are       15 alpha and       15 beta electrons
 Requested basis set is G3large
 There are 39 shells and 150 basis functions

Total QAlloc Memory Limit   2000 MB
Mega-Array Size       743 MB
MEM_STATIC part       760 MB

                       Distance Matrix (Angstroms)
             O (  1)   C (  2)
   C (  2)  1.164923
   S (  3)  2.739203  1.574279
 
 A cutoff of  1.0D-08 yielded    702 shell pairs
 There are  10607 function pairs ( 14447 Cartesian)
Evaluating contribution to one-electron hamiltonian from nuclear
 Smallest overlap matrix eigenvalue = 2.27E-04
 Multipole matrices computed through 2nd order

  Scale SEOQF with 1.000000e-01/1.000000e-01/1.000000e-01

 Standard Electronic Orientation quadrupole field applied
 Nucleus-field energy     =    -0.0000000137 hartrees
 Guess from superposition of atomic densities
 Warning:  Energy on first SCF cycle will be non-variational
 Long-range K will be added via erf
 Coulomb attenuation parameter = 0.2 bohr**(-1)
 A restricted Kohn-Sham SCF calculation will be
 performed using Pulay DIIS extrapolation
 Exchange:  wPBE + LR-HF      Correlation:  PBE
 Using SG-1 standard quadrature grid
 SCF converges when DIIS error is below 1.0E-05
 Requested basis set is G3large
 There are 39 shells and 150 basis functions
 A cutoff of  1.0D-08 yielded    702 shell pairs
 There are  10607 function pairs ( 14447 Cartesian)
 ---------------------------------------
  Cycle       Energy         DIIS Error
 ---------------------------------------
    1    -511.7629830232      3.57E-02
    2    -511.2703666316      5.23E-03
    3    -511.1295257112      1.03E-02
    4    -511.3333848845      8.38E-04
    5    -511.3345513883      6.44E-04
    6    -511.3357456634      1.01E-04
    7    -511.3358260823      3.56E-05
    8    -511.3358348895      1.24E-05
    9    -511.3358369352      2.51E-06 Convergence criterion met
 ---------------------------------------
 One-Electron    Energy =  -860.3368057175
 Total Coulomb   Energy =   309.5751452096
 Alpha Exchange  Energy =    -1.6391482363
 Beta  Exchange  Energy =    -1.6391482363
 DFT   Exchange  Energy =   -35.0150052610
 DFT Correlation Energy =    -1.0825746817
 Nuclear Repu.   Energy =    78.8016999880
 Nuclear Attr.   Energy = -1370.8215232688
 Kinetic         Energy =   510.4847175513
 SCF time:  CPU 48.40 s  wall 49.79 s
 Final Alpha MO Eigenvalues
            1           2           3           4           5           6
    1 -88.1864371 -18.9440322 -10.1537878  -7.8217527  -5.8426598  -5.8360757
            7           8           9          10          11          12
    1  -5.8360728  -1.1663357  -0.8676001  -0.6045795  -0.5393271  -0.5393234
           13          14          15          16          17          18
    1  -0.5315493  -0.3697617  -0.3697589   0.0125706   0.0125711   0.0411132
           19          20
    1   0.0706005   0.0972201
 Analysis of SCF Wavefunction
 
 --------------------------------------------------------------
                    Orbital Energies (a.u.)
 --------------------------------------------------------------
 
 Alpha MOs
 -- Occupied --
-88.186 -18.944 -10.154  -7.822  -5.843  -5.836  -5.836  -1.166
 -0.868  -0.605  -0.539  -0.539  -0.532  -0.370  -0.370
 -- Virtual --
  0.013   0.013   0.041   0.071   0.097   0.097   0.104   0.133
  0.133   0.146   0.183   0.269   0.269   0.288   0.307   0.307
  0.358   0.371   0.395   0.395   0.420   0.455   0.455   0.623
  0.623   0.680   0.680   0.710   0.744   0.798   0.910   0.910
  0.916   0.916   0.991   0.991   1.035   1.038   1.038   1.070
  1.070   1.109   1.156   1.161   1.161   1.332   1.437   1.437
  1.627   1.627   1.654   1.822   1.822   2.046   2.201   2.301
  2.301   2.562   2.707   2.707   2.774   2.774   2.957   2.957
  2.968   2.968   3.067   3.211   3.212   3.279   3.471   3.471
  3.480   3.480   3.521   3.521   4.063   4.068   4.068   4.508
  4.511   4.743   4.824   4.824   4.986   4.986   5.005   5.005
  5.140   5.384   5.384   5.789   6.610   6.610   6.708   6.708
  7.147   7.185   7.185   7.632   8.711  16.999  16.999  17.632
 23.303  23.395  23.517  23.517  23.617  24.366  27.112  27.112
 28.559  30.766  30.766  30.769  30.770  30.805  30.805  30.901
 40.595  40.874  40.927  41.009  41.009  43.483  43.549  43.696
 43.696  43.811  45.597  45.597  46.468  50.121 189.099
 --------------------------------------------------------------
 
          Ground-State Mulliken Net Atomic Charges

     Atom                 Charge (a.u.)
  ----------------------------------------
      1 O                    -0.177097
      2 C                     0.365334
      3 S                    -0.188237
  ----------------------------------------
  Sum of atomic charges =     0.000000

 -----------------------------------------------------------------
                    Cartesian Multipole Moments
 -----------------------------------------------------------------
    Charge (ESU x 10^10)
                 0.0000
    Dipole Moment (Debye)
         X      -0.0001      Y      -0.0001      Z       0.7323
       Tot       0.7323
    Quadrupole Moments (Debye-Ang)
        XX     -23.3534     XY       0.0001     YY     -23.3534
        XZ      -0.0003     YZ      -0.0002     ZZ     -21.7891
    Octapole Moments (Debye-Ang^2)
       XXX      -0.0001    XXY       0.0000    XYY       0.0000
       YYY      -0.0001    XXZ     -42.0915    XYZ       0.0005
       YYZ     -42.0915    XZZ      -0.0009    YZZ      -0.0006
       ZZZ    -112.9024
    Hexadecapole Moments (Debye-Ang^3)
      XXXX     -27.2266   XXXY       0.0002   XXYY      -9.0756
      XYYY       0.0002   YYYY     -27.2266   XXXZ      -0.0003
      XXYZ      -0.0001   XYYZ      -0.0001   YYYZ      -0.0002
      XXZZ    -114.7095   XYZZ       0.0016   YYZZ    -114.7094
      XZZZ      -0.0027   YZZZ      -0.0015   ZZZZ    -581.9279
 -----------------------------------------------------------------
 Total job time:  49.97s(wall), 48.56s(cpu) 
 Wed Apr 24 15:09:43 2013

        *************************************************************
        *                                                           *
        *  Thank you very much for using Q-Chem.  Have a nice day.  *
        *                                                           *
        *************************************************************


0 sent ACK to 0 
now end server 0 ... 
 
**********************************************************************
Job 3 of 3 
**********************************************************************
 
Process 0 of 1 is on cl087.stfx.acenet.ca - thread support 1
initial socket setup ...start
initial socket setup ...done 
now start server 0 ... 

cmd = /usr/bin/ssh clhead /usr/local/qchem/bin/get_hostid 1021345839 > /scratch/tmp/5954480.1.short.q/qchem2349/lic.dat
                  Welcome to Q-Chem
     A Quantum Leap Into The Future Of Chemistry

 Y. Shao, L. Fusti-Molnar, Y. Jung, J. Kussmann, C. Ochsenfeld,
 S. T. Brown, A. T. B. Gilbert, L. V. Slipchenko,S. V. Levchenko,
 D. P. O'Neill, R. A. DiStasio Jr., R. C. Lochan, T. Wang,
 G. J. O. Beran, N. A. Besley, J. M. Herbert, C. Y. Lin,
 T. Van Voorhis, S. H. Chien, A. Sodt, R. P. Steele, 
 V. A. Rassolov, P. E. Maslen, P. P. Korambath, R. D. Adamson,
 B. Austin, J. Baker, E. F. C. Byrd, H. Dachsel, R. J. Doerksen,
 A. Dreuw, B. D. Dunietz, A. D. Dutoi, T. R. Furlani,
 S. R. Gwaltney, A. Heyden, S. Hirata, C.-P. Hsu, G. Kedziora,
 R. Z. Khaliullin, P. Klunzinger, A. M. Lee, M. S. Lee, W. Liang,
 I. Lotan, N. Nair, B. Peters, E. I. Proynov, P. A. Pieniazek, 
 Y. M. Rhee, J. Ritchie, E. Rosta, C. D. Sherrill, 
 A. C. Simmonett, J. E. Subotnik, H. L. Woodcock III,
 W. Zhang, A. T. Bell, A. K. Chakraborty, D. M. Chipman,
 F. J. Keil, A. Warshel, W. J. Hehre, H. F. Schaefer III,
 J. Kong, A. I. Krylov, P. M. W. Gill, M. Head-Gordon,
 Q-Chem, Version 3.1, Q-Chem, Inc., Pittsburgh, PA (2007).

 Additional authors for Version 3.1: 
 Z. Gan, Y. Zhao, N. E. Schultz, D. Truhlar, E. Epifanovsky and M. Oana.

 Additional authors for Version 3.2: 
 R. Baer, B. R. Brooks, D. Casanova, J.-D. Chai, C.-L. Cheng, 
 C. Cramer, D. Crittenden, A. Ghysels, G. Hawkins, E. G. Hohenstein, 
 C. Kelley, W. Kurlancheek, D. Liotard, E. Livshits, P. Manohar, 
 A. Marenich, D. Neuhauser, R. Olson, M. A. Rohrdanz, K. S. Thanthiriwatte, 
 A. J. W. Thom, V. Vanovschi, C. F. Williams, Q. Wu and Z.-Q. You. 


 Intel X86 Linux Version

 Q-chem begins on Wed Apr 24 15:09:46 2013  

 Parallel job on  1  processors
Processing $rem in /usr/local/qchem/config/preferences.

theFileMan(): MAXOPENFILES=974 MAX_SUB_FILE_NUM=16
Maximum size of a physical file is 2.0 GB, maximum size of a tmp-file is 32.0 GB


--------------------------------------------------------------
User input:
--------------------------------------------------------------

$molecule
1,2
O
C,1,C-O
X,2,1.,1,90.
S,2,C-S,3,90.,1,180.,0

 C-O=1.16492344
 C-S=1.57427936

$end

$comment
positive
$end

$xc_functional
C PBE   1.00
X wPBE  1.00
$end

$rem
SYMMETRY_DECOMPOSITION	0
LRC_DFT                 true
exchange 		general
BASIS                   g3large
omega			200
mem_static              760
max_scf_cycles          200
scf_final_print         1
sym_ignore              true
$end

--------------------------------------------------------------
 Writing REM_CC_EA            3
 ----------------------------------------------------
       Standard Nuclear Orientation (Angstroms)
    I     Atom         X            Y            Z
 ----------------------------------------------------
    1      O       0.000000     0.000000     0.000000
    2      C       0.000000     0.000000     1.164923
    3      S       0.000000     0.000000     2.739203
 ----------------------------------------------------
 Nuclear Repulsion Energy =    78.8017000018 hartrees
 There are       15 alpha and       14 beta electrons
 Requested basis set is G3large
 There are 39 shells and 150 basis functions

Total QAlloc Memory Limit   2000 MB
Mega-Array Size       743 MB
MEM_STATIC part       760 MB

                       Distance Matrix (Angstroms)
             O (  1)   C (  2)
   C (  2)  1.164923
   S (  3)  2.739203  1.574279
 
 A cutoff of  1.0D-08 yielded    702 shell pairs
 There are  10607 function pairs ( 14447 Cartesian)
Evaluating contribution to one-electron hamiltonian from nuclear
 Smallest overlap matrix eigenvalue = 2.27E-04
 Multipole matrices computed through 2nd order

  Scale SEOQF with 1.000000e-01/1.000000e-01/1.000000e-01

 Standard Electronic Orientation quadrupole field applied
 Nucleus-field energy     =    -0.0000000137 hartrees
 Guess from superposition of atomic densities
 Warning:  Energy on first SCF cycle will be non-variational
 Long-range K will be added via erf
 Coulomb attenuation parameter = 0.2 bohr**(-1)
 An unrestricted Kohn-Sham SCF calculation will be
 performed using Pulay DIIS extrapolation
 Exchange:  wPBE + LR-HF      Correlation:  PBE
 Using SG-1 standard quadrature grid
 SCF converges when DIIS error is below 1.0E-05
 Requested basis set is G3large
 There are 39 shells and 150 basis functions
 A cutoff of  1.0D-08 yielded    702 shell pairs
 There are  10607 function pairs ( 14447 Cartesian)
 Warning!  Inaccurate integrated density:
   Number of electrons =    29
   Numerical integral  =    30.000036715512
   Relative error      =     3.4484024673 %
 ---------------------------------------
  Cycle       Energy         DIIS Error
 ---------------------------------------
    1    -511.7629830232      3.57E-02
    2    -510.8261652082      5.36E-03
    3    -510.6235838853      1.18E-02
    4    -510.9185742162      1.05E-03
    5    -510.9210034781      4.64E-04
    6    -510.9217814210      1.85E-04
    7    -510.9219832905      4.38E-05
    8    -510.9220316534      1.42E-05
    9    -510.9220424449      3.91E-06 Convergence criterion met
 ---------------------------------------
 One-Electron    Energy =  -850.8924785553
 Total Coulomb   Energy =   300.2142672673
 Alpha Exchange  Energy =    -1.6433771026
 Beta  Exchange  Energy =    -1.5353177366
 DFT   Exchange  Energy =   -34.8253403746
 DFT Correlation Energy =    -1.0414959311
 Nuclear Repu.   Energy =    78.8016999880
 Nuclear Attr.   Energy = -1361.0481730355
 Kinetic         Energy =   510.1556944801
 <S^2> = 0.7599
 SCF time:  CPU 57.45 s  wall 58.67 s
 Final Alpha MO Eigenvalues
            1           2           3           4           5           6
    1 -88.5408601 -19.2584411 -10.4461710  -8.1711880  -6.1966880  -6.1894249
            7           8           9          10          11          12
    1  -6.1809412  -1.4599120  -1.1969346  -0.8930733  -0.8377205  -0.8333545
           13          14          15          16          17          18
    1  -0.8209974  -0.7063054  -0.6693555  -0.2828315  -0.2660946  -0.1915868
           19          20
    1  -0.1381497  -0.0740249
 Final Beta MO Eigenvalues
            1           2           3           4           5           6
    1 -88.5365648 -19.2523134 -10.4479603  -8.1671332  -6.1872529  -6.1849161
            7           8           9          10          11          12
    1  -6.1778302  -1.4501996  -1.1718018  -0.8816391  -0.8212373  -0.8180989
           13          14          15          16          17          18
    1  -0.8107087  -0.6574640  -0.4567463  -0.2646226  -0.2534135  -0.1792328
           19
    1  -0.1316241
 Analysis of SCF Wavefunction
 
 --------------------------------------------------------------
                    Orbital Energies (a.u.)
 --------------------------------------------------------------
 
 Alpha MOs
 -- Occupied --
-88.541 -19.258 -10.446  -8.171  -6.197  -6.189  -6.181  -1.460
 -1.197  -0.893  -0.838  -0.833  -0.821  -0.706  -0.669
 -- Virtual --
 -0.283  -0.266  -0.192  -0.138  -0.074  -0.074  -0.068  -0.027
 -0.026  -0.023  -0.011  -0.010   0.018   0.099   0.106   0.122
  0.142   0.150   0.162   0.185   0.208   0.216   0.231   0.389
  0.396   0.412   0.413   0.447   0.478   0.578   0.630   0.639
  0.640   0.649   0.678   0.679   0.765   0.765   0.787   0.806
  0.823   0.855   0.889   0.895   0.903   1.071   1.155   1.173
  1.356   1.357   1.397   1.507   1.534   1.768   1.919   2.021
  2.035   2.286   2.426   2.432   2.494   2.494   2.655   2.663
  2.663   2.673   2.782   2.930   2.930   2.974   3.118   3.118
  3.183   3.183   3.184   3.194   3.740   3.757   3.761   4.164
  4.166   4.427   4.480   4.503   4.690   4.693   4.703   4.719
  4.841   5.095   5.095   5.475   6.305   6.319   6.401   6.401
  6.860   6.884   6.901   7.334   8.380  16.638  16.656  17.287
 22.949  23.041  23.162  23.174  23.273  24.074  26.820  26.820
 28.264  30.414  30.415  30.421  30.421  30.453  30.463  30.556
 40.303  40.583  40.635  40.717  40.717  43.164  43.230  43.377
 43.388  43.499  45.275  45.286  46.158  49.809 188.747
 
 Beta MOs
 -- Occupied --
-88.537 -19.252 -10.448  -8.167  -6.187  -6.185  -6.178  -1.450
 -1.172  -0.882  -0.821  -0.818  -0.811  -0.657
 -- Virtual --
 -0.457  -0.265  -0.253  -0.179  -0.132  -0.072  -0.069  -0.067
 -0.024  -0.024  -0.022   0.018   0.019   0.023   0.102   0.125
  0.126   0.152   0.154   0.166   0.187   0.212   0.235   0.235
  0.391   0.396   0.417   0.418   0.457   0.486   0.580   0.651
  0.652   0.669   0.669   0.709   0.714   0.780   0.782   0.794
  0.826   0.829   0.869   0.899   0.905   0.907   1.082   1.177
  1.179   1.369   1.370   1.401   1.541   1.546   1.777   1.926
  2.036   2.036   2.291   2.422   2.428   2.488   2.488   2.667
  2.667   2.673   2.674   2.785   2.923   2.923   2.986   3.169
  3.169   3.192   3.193   3.213   3.216   3.762   3.762   3.763
  4.178   4.183   4.430   4.502   4.505   4.714   4.714   4.724
  4.728   4.852   5.107   5.107   5.489   6.321   6.322   6.429
  6.430   6.865   6.904   6.908   7.343   8.387  16.659  16.662
 17.291  22.959  23.051  23.171  23.175  23.276  24.072  26.817
 26.818  28.263  30.418  30.419  30.424  30.424  30.457  30.464
 30.558  40.300  40.580  40.633  40.714  40.715  43.180  43.246
 43.389  43.392  43.505  45.290  45.293  46.162  49.815 188.751
 --------------------------------------------------------------
 
          Ground-State Mulliken Net Atomic Charges

     Atom                 Charge (a.u.)    Spin (a.u.)
  --------------------------------------------------------
      1 O                     0.090403       0.242117
      2 C                     0.526881      -0.076697
      3 S                     0.382716       0.834580
  --------------------------------------------------------
  Sum of atomic charges =     1.000000
  Sum of spin   charges =     1.000000

 -----------------------------------------------------------------
                    Cartesian Multipole Moments
 -----------------------------------------------------------------
    Charge (ESU x 10^10)
                 4.8032
    Dipole Moment (Debye)
         X      -0.0004      Y      -0.0004      Z       9.8733
       Tot       9.8733
    Quadrupole Moments (Debye-Ang)
        XX     -19.4799     XY       0.9157     YY     -19.5170
        XZ      -0.0011     YZ      -0.0010     ZZ       5.9964
    Octapole Moments (Debye-Ang^2)
       XXX      -0.0004    XXY      -0.0001    XYY      -0.0001
       YYY      -0.0004    XXZ     -33.6821    XYZ       2.1134
       YYZ     -33.7678    XZZ      -0.0034    YZZ      -0.0032
       ZZZ     -27.8020
    Hexadecapole Moments (Debye-Ang^3)
      XXXX     -18.4663   XXXY       0.8652   XXYY      -6.1702
      XYYY       0.8654   YYYY     -18.5365   XXXZ      -0.0010
      XXYZ      -0.0003   XYYZ      -0.0003   YYYZ      -0.0010
      XXZZ     -89.7043   XYZZ       5.8185   YYZZ     -89.9400
      XZZZ      -0.0110   YZZZ      -0.0101   ZZZZ    -298.9572
 -----------------------------------------------------------------
 Total job time:  58.84s(wall), 57.62s(cpu) 
 Wed Apr 24 15:10:45 2013

        *************************************************************
        *                                                           *
        *  Thank you very much for using Q-Chem.  Have a nice day.  *
        *                                                           *
        *************************************************************


0 sent ACK to 0 
now end server 0 ... 
