Process 0 of 1 is on cl219.stfx.acenet.ca - thread support 1
initial socket setup ...start
initial socket setup ...done 
now start server 0 ... 

cmd = /usr/bin/ssh clhead /usr/local/qchem/bin/get_hostid 511818919 > /globalscratch/itamblyn/bnl/g297_b3lyp_neut_g03Large_worked/g2g71037/omega710/qchem9019/lic.dat
                  Welcome to Q-Chem
     A Quantum Leap Into The Future Of Chemistry

 Y. Shao, L. Fusti-Molnar, Y. Jung, J. Kussmann, C. Ochsenfeld,
 S. T. Brown, A. T. B. Gilbert, L. V. Slipchenko,S. V. Levchenko,
 D. P. O'Neill, R. A. DiStasio Jr., R. C. Lochan, T. Wang,
 G. J. O. Beran, N. A. Besley, J. M. Herbert, C. Y. Lin,
 T. Van Voorhis, S. H. Chien, A. Sodt, R. P. Steele, 
 V. A. Rassolov, P. E. Maslen, P. P. Korambath, R. D. Adamson,
 B. Austin, J. Baker, E. F. C. Byrd, H. Dachsel, R. J. Doerksen,
 A. Dreuw, B. D. Dunietz, A. D. Dutoi, T. R. Furlani,
 S. R. Gwaltney, A. Heyden, S. Hirata, C.-P. Hsu, G. Kedziora,
 R. Z. Khaliullin, P. Klunzinger, A. M. Lee, M. S. Lee, W. Liang,
 I. Lotan, N. Nair, B. Peters, E. I. Proynov, P. A. Pieniazek, 
 Y. M. Rhee, J. Ritchie, E. Rosta, C. D. Sherrill, 
 A. C. Simmonett, J. E. Subotnik, H. L. Woodcock III,
 W. Zhang, A. T. Bell, A. K. Chakraborty, D. M. Chipman,
 F. J. Keil, A. Warshel, W. J. Hehre, H. F. Schaefer III,
 J. Kong, A. I. Krylov, P. M. W. Gill, M. Head-Gordon,
 Q-Chem, Version 3.1, Q-Chem, Inc., Pittsburgh, PA (2007).

 Additional authors for Version 3.1: 
 Z. Gan, Y. Zhao, N. E. Schultz, D. Truhlar, E. Epifanovsky and M. Oana.

 Additional authors for Version 3.2: 
 R. Baer, B. R. Brooks, D. Casanova, J.-D. Chai, C.-L. Cheng, 
 C. Cramer, D. Crittenden, A. Ghysels, G. Hawkins, E. G. Hohenstein, 
 C. Kelley, W. Kurlancheek, D. Liotard, E. Livshits, P. Manohar, 
 A. Marenich, D. Neuhauser, R. Olson, M. A. Rohrdanz, K. S. Thanthiriwatte, 
 A. J. W. Thom, V. Vanovschi, C. F. Williams, Q. Wu and Z.-Q. You. 


 Intel X86 Linux Version

 Q-chem begins on Fri Apr 15 15:28:08 2011  

 Parallel job on  1  processors
Processing $rem in /usr/local/qchem/config/preferences.

theFileMan(): MAXOPENFILES=974 MAX_SUB_FILE_NUM=16
Maximum size of a physical file is 2.0 GB, maximum size of a tmp-file is 32.0 GB


--------------------------------------------------------------
User input:
--------------------------------------------------------------

$molecule
-1,2
F
F,1,FF

FF=1.40325215

$end

$comment
negative
$end

$xc_functional
   X HF 1.0
   X BNL 1.0
   C LYP 1.0
$end

$rem
SYMMETRY_DECOMPOSITION	0
exchange 		general
BASIS                   g3large
omega			710
separate_jk		true
mem_static              760
max_scf_cycles          200
scf_final_print         1
sym_ignore              true
$end

--------------------------------------------------------------
 Writing REM_CC_EA            2
 ----------------------------------------------------
       Standard Nuclear Orientation (Angstroms)
    I     Atom         X            Y            Z
 ----------------------------------------------------
    1      F       0.000000     0.000000     0.000000
    2      F       0.000000     0.000000     1.403252
 ----------------------------------------------------
 Nuclear Repulsion Energy =    30.5457248541 hartrees
 There are       10 alpha and        9 beta electrons
 Requested basis set is G3large
 There are 20 shells and 84 basis functions

Total QAlloc Memory Limit   2000 MB
Mega-Array Size       743 MB
MEM_STATIC part       760 MB

                       Distance Matrix (Angstroms)
             F (  1)
   F (  2)  1.403252
 
 A cutoff of  1.0D-08 yielded    202 shell pairs
 There are   3646 function pairs (  4791 Cartesian)
Evaluating contribution to one-electron hamiltonian from nuclear
 Smallest overlap matrix eigenvalue = 3.28E-03
 Multipole matrices computed through 2nd order

  Scale SEOQF with 1.000000e+00/1.000000e+00/1.000000e-01

 Standard Electronic Orientation quadrupole field applied
 Nucleus-field energy     =    -0.0000000019 hartrees
 Guess from superposition of atomic densities
 Warning:  Energy on first SCF cycle will be non-variational
 An unrestricted hybrid HF-DFT SCF calculation will be
 performed using Pulay DIIS extrapolation
 Exchange:     1.0000 Hartree-Fock + 1.0000 BNL
 Correlation:  1.0000 LYP
 Using SG-1 standard quadrature grid
 SCF converges when DIIS error is below 1.0E-05
 Warning!  Inaccurate integrated density:
   Number of electrons =    19
   Numerical integral  =    17.999963435575
   Relative error      =    -5.2633503391 %
 ---------------------------------------
  Cycle       Energy         DIIS Error
 ---------------------------------------
    1    -198.2066449964      3.18E-02
    2    -198.1832242352      9.81E-03
    3    -198.2220752893      7.73E-03
    4    -198.2483703012      5.60E-04
    5    -198.2486658316      1.58E-04
    6    -198.2487231436      4.31E-05
    7    -198.2487337299      1.50E-05
    8    -198.2487355821      3.41E-06 Convergence criterion met
 ---------------------------------------
 One-Electron    Energy =  -346.5037766161
 Total Coulomb   Energy =   137.5224641628
 Alpha Exchange  Energy =    -3.3349869170
 Beta  Exchange  Energy =    -2.9612173403
 DFT   Exchange  Energy =   -12.8086554462
 DFT Correlation Energy =    -0.7082882775
 Nuclear Repu.   Energy =    30.5457248522
 Nuclear Attr.   Energy =  -545.0731537998
 Kinetic         Energy =   198.5693771837
 <S^2> = 0.7530
 SCF time:  CPU 7.97 s  wall 17.42 s
 Final Alpha MO Eigenvalues
            1           2           3           4           5           6
    1 -24.0721247 -24.0720027  -1.1894335  -0.9414436  -0.4536079  -0.3551085
            7           8           9          10          11          12
    1  -0.3551051  -0.2087862  -0.2087822  -0.0592585   0.4520929   0.4656202
           13          14          15
    1   0.5063297   0.5063321   0.5660574
 Final Beta MO Eigenvalues
            1           2           3           4           5           6
    1 -24.0513934 -24.0512829  -1.1419435  -0.8925654  -0.3340948  -0.3340906
            7           8           9          10          11          12
    1  -0.3233039  -0.1840997  -0.1840946   0.3853694   0.4533023   0.5097914
           13          14
    1   0.5097924   0.5565307
 Analysis of SCF Wavefunction
 
 --------------------------------------------------------------
                    Orbital Energies (a.u.)
 --------------------------------------------------------------
 
 Alpha MOs
 -- Occupied --
-24.072 -24.072  -1.189  -0.941  -0.454  -0.355  -0.355  -0.209
 -0.209  -0.059
 -- Virtual --
  0.452   0.466   0.506   0.506   0.566   0.566   0.592   0.753
  1.666   1.682   1.682   1.799   1.805   1.805   2.095   2.228
  2.228   2.387   2.406   2.406   2.630   2.630   2.648   3.118
  3.118   3.951   6.151   6.530   6.530   6.689   6.689   6.693
  6.849   6.849   7.019   7.020   7.191   7.191   7.225   7.225
  7.256   7.350   7.350   7.821   7.821   8.449   9.499   9.499
  9.537   9.537   9.672   9.672  10.033  10.105  10.105  11.063
 50.519  50.542  50.542  50.574  50.581  50.636  50.682  50.768
 50.768  50.956  56.187  56.187  56.191  56.231  56.231  56.608
 67.344  67.457
 
 Beta MOs
 -- Occupied --
-24.051 -24.051  -1.142  -0.893  -0.334  -0.334  -0.323  -0.184
 -0.184
 -- Virtual --
  0.385   0.453   0.510   0.510   0.557   0.568   0.568   0.594
  0.752   1.693   1.693   1.698   1.817   1.817   1.823   2.123
  2.249   2.249   2.410   2.413   2.413   2.637   2.637   2.697
  3.149   3.149   3.986   6.202   6.557   6.557   6.711   6.711
  6.741   6.874   6.874   7.044   7.044   7.203   7.203   7.236
  7.236   7.295   7.378   7.378   7.864   7.864   8.510   9.558
  9.558   9.563   9.563   9.696   9.696  10.099  10.155  10.155
 11.119  50.540  50.590  50.590  50.595  50.601  50.656  50.739
 50.816  50.816  51.013  56.203  56.203  56.229  56.246  56.246
 56.645  67.369  67.482
 --------------------------------------------------------------
 
          Ground-State Mulliken Net Atomic Charges

     Atom                 Charge (a.u.)    Spin (a.u.)
  --------------------------------------------------------
      1 F                    -0.499998       0.500004
      2 F                    -0.500002       0.499996
  --------------------------------------------------------
  Sum of atomic charges =    -1.000000
  Sum of spin   charges =     1.000000

 -----------------------------------------------------------------
                    Cartesian Multipole Moments
 -----------------------------------------------------------------
    Charge (ESU x 10^10)
                -4.8032
    Dipole Moment (Debye)
         X       0.0000      Y       0.0000      Z      -3.3701
       Tot       3.3701
    Quadrupole Moments (Debye-Ang)
        XX     -11.8895     XY       0.0001     YY     -11.8895
        XZ       0.0001     YZ       0.0001     ZZ     -18.4631
    Octapole Moments (Debye-Ang^2)
       XXX       0.0000    XXY       0.0000    XYY       0.0000
       YYY       0.0000    XXZ      -8.3420    XYZ       0.0001
       YYZ      -8.3420    XZZ       0.0002    YZZ       0.0002
       ZZZ     -35.5444
    Hexadecapole Moments (Debye-Ang^3)
      XXXX      -9.5678   XXXY       0.0001   XXYY      -3.1893
      XYYY       0.0001   YYYY      -9.5678   XXXZ       0.0002
      XXYZ       0.0001   XYYZ       0.0001   YYYZ       0.0002
      XXZZ     -16.0155   XYZZ       0.0002   YYZZ     -16.0155
      XZZZ       0.0006   YZZZ       0.0007   ZZZZ    -100.7645
 -----------------------------------------------------------------
 Total job time:  37.31s(wall), 8.07s(cpu) 
 Fri Apr 15 15:28:46 2011

        *************************************************************
        *                                                           *
        *  Thank you very much for using Q-Chem.  Have a nice day.  *
        *                                                           *
        *************************************************************


0 sent ACK to 0 
now end server 0 ... 
 
**********************************************************************
Job 2 of 3 
**********************************************************************
 
Process 0 of 1 is on cl219.stfx.acenet.ca - thread support 1
initial socket setup ...start
initial socket setup ...done 
now start server 0 ... 

cmd = /usr/bin/ssh clhead /usr/local/qchem/bin/get_hostid 1098990086 > /globalscratch/itamblyn/bnl/g297_b3lyp_neut_g03Large_worked/g2g71037/omega710/qchem9019/lic.dat
                  Welcome to Q-Chem
     A Quantum Leap Into The Future Of Chemistry

 Y. Shao, L. Fusti-Molnar, Y. Jung, J. Kussmann, C. Ochsenfeld,
 S. T. Brown, A. T. B. Gilbert, L. V. Slipchenko,S. V. Levchenko,
 D. P. O'Neill, R. A. DiStasio Jr., R. C. Lochan, T. Wang,
 G. J. O. Beran, N. A. Besley, J. M. Herbert, C. Y. Lin,
 T. Van Voorhis, S. H. Chien, A. Sodt, R. P. Steele, 
 V. A. Rassolov, P. E. Maslen, P. P. Korambath, R. D. Adamson,
 B. Austin, J. Baker, E. F. C. Byrd, H. Dachsel, R. J. Doerksen,
 A. Dreuw, B. D. Dunietz, A. D. Dutoi, T. R. Furlani,
 S. R. Gwaltney, A. Heyden, S. Hirata, C.-P. Hsu, G. Kedziora,
 R. Z. Khaliullin, P. Klunzinger, A. M. Lee, M. S. Lee, W. Liang,
 I. Lotan, N. Nair, B. Peters, E. I. Proynov, P. A. Pieniazek, 
 Y. M. Rhee, J. Ritchie, E. Rosta, C. D. Sherrill, 
 A. C. Simmonett, J. E. Subotnik, H. L. Woodcock III,
 W. Zhang, A. T. Bell, A. K. Chakraborty, D. M. Chipman,
 F. J. Keil, A. Warshel, W. J. Hehre, H. F. Schaefer III,
 J. Kong, A. I. Krylov, P. M. W. Gill, M. Head-Gordon,
 Q-Chem, Version 3.1, Q-Chem, Inc., Pittsburgh, PA (2007).

 Additional authors for Version 3.1: 
 Z. Gan, Y. Zhao, N. E. Schultz, D. Truhlar, E. Epifanovsky and M. Oana.

 Additional authors for Version 3.2: 
 R. Baer, B. R. Brooks, D. Casanova, J.-D. Chai, C.-L. Cheng, 
 C. Cramer, D. Crittenden, A. Ghysels, G. Hawkins, E. G. Hohenstein, 
 C. Kelley, W. Kurlancheek, D. Liotard, E. Livshits, P. Manohar, 
 A. Marenich, D. Neuhauser, R. Olson, M. A. Rohrdanz, K. S. Thanthiriwatte, 
 A. J. W. Thom, V. Vanovschi, C. F. Williams, Q. Wu and Z.-Q. You. 


 Intel X86 Linux Version

 Q-chem begins on Fri Apr 15 15:28:49 2011  

 Parallel job on  1  processors
Processing $rem in /usr/local/qchem/config/preferences.

theFileMan(): MAXOPENFILES=974 MAX_SUB_FILE_NUM=16
Maximum size of a physical file is 2.0 GB, maximum size of a tmp-file is 32.0 GB


--------------------------------------------------------------
User input:
--------------------------------------------------------------

$molecule
0,1
F
F,1,FF

FF=1.40325215

$end

$comment
neutral
$end

$xc_functional
   X HF 1.0
   X BNL 1.0
   C LYP 1.0
$end

$rem
SYMMETRY_DECOMPOSITION	0
exchange 		general
BASIS                   g3large
omega			710
separate_jk		true
mem_static              760
max_scf_cycles          200
scf_final_print         1
sym_ignore              true
$end

--------------------------------------------------------------
 Writing REM_CC_EA            2
 ----------------------------------------------------
       Standard Nuclear Orientation (Angstroms)
    I     Atom         X            Y            Z
 ----------------------------------------------------
    1      F       0.000000     0.000000     0.000000
    2      F       0.000000     0.000000     1.403252
 ----------------------------------------------------
 Nuclear Repulsion Energy =    30.5457248541 hartrees
 There are        9 alpha and        9 beta electrons
 Requested basis set is G3large
 There are 20 shells and 84 basis functions

Total QAlloc Memory Limit   2000 MB
Mega-Array Size       743 MB
MEM_STATIC part       760 MB

                       Distance Matrix (Angstroms)
             F (  1)
   F (  2)  1.403252
 
 A cutoff of  1.0D-08 yielded    202 shell pairs
 There are   3646 function pairs (  4791 Cartesian)
Evaluating contribution to one-electron hamiltonian from nuclear
 Smallest overlap matrix eigenvalue = 3.28E-03
 Multipole matrices computed through 2nd order

  Scale SEOQF with 1.000000e+00/1.000000e+00/1.000000e-01

 Standard Electronic Orientation quadrupole field applied
 Nucleus-field energy     =    -0.0000000019 hartrees
 Guess from superposition of atomic densities
 Warning:  Energy on first SCF cycle will be non-variational
 A restricted hybrid HF-DFT SCF calculation will be
 performed using Pulay DIIS extrapolation
 Exchange:     1.0000 Hartree-Fock + 1.0000 BNL
 Correlation:  1.0000 LYP
 Using SG-1 standard quadrature grid
 SCF converges when DIIS error is below 1.0E-05
 ---------------------------------------
  Cycle       Energy         DIIS Error
 ---------------------------------------
    1    -198.2066449964      3.18E-02
    2    -198.1844651510      7.77E-03
    3    -198.2079539074      3.31E-03
    4    -198.2117631419      5.13E-04
    5    -198.2119535530      1.83E-04
    6    -198.2120001786      5.98E-05
    7    -198.2120132842      1.51E-05
    8    -198.2120142093      1.70E-06 Convergence criterion met
 ---------------------------------------
 One-Electron    Energy =  -338.6672030038
 Total Coulomb   Energy =   129.2409237334
 Alpha Exchange  Energy =    -3.0163352615
 Beta  Exchange  Energy =    -3.0163352615
 DFT   Exchange  Energy =   -12.6234302985
 DFT Correlation Energy =    -0.6753589696
 Nuclear Repu.   Energy =    30.5457248522
 Nuclear Attr.   Energy =  -536.2007796284
 Kinetic         Energy =   197.5335766246
 SCF time:  CPU 6.89 s  wall 21.28 s
 Final Alpha MO Eigenvalues
            1           2           3           4           5           6
    1 -24.5568280 -24.5566993  -1.6146822  -1.3380679  -0.7890376  -0.7693114
            7           8           9          10          11          12
    1  -0.7693095  -0.6247500  -0.6247484  -0.0201184   0.1948814   0.2334161
           13          14
    1   0.2521533   0.2521535
 Analysis of SCF Wavefunction
 
 --------------------------------------------------------------
                    Orbital Energies (a.u.)
 --------------------------------------------------------------
 
 Alpha MOs
 -- Occupied --
-24.557 -24.557  -1.615  -1.338  -0.789  -0.769  -0.769  -0.625
 -0.625
 -- Virtual --
 -0.020   0.195   0.233   0.252   0.252   0.328   0.328   0.330
  0.501   1.317   1.317   1.338   1.451   1.460   1.460   1.720
  1.830   1.830   2.016   2.016   2.021   2.243   2.243   2.245
  2.730   2.730   3.568   5.714   6.100   6.100   6.267   6.267
  6.267   6.431   6.431   6.601   6.601   6.784   6.784   6.818
  6.818   6.834   6.931   6.931   7.389   7.389   7.999   9.061
  9.061   9.108   9.108   9.245   9.245   9.596   9.675   9.675
 10.633  50.053  50.072  50.072  50.108  50.114  50.169  50.211
 50.299  50.299  50.489  55.709  55.710  55.710  55.754  55.754
 56.122  66.864  66.977
 --------------------------------------------------------------
 
          Ground-State Mulliken Net Atomic Charges

     Atom                 Charge (a.u.)
  ----------------------------------------
      1 F                    -0.000011
      2 F                     0.000011
  ----------------------------------------
  Sum of atomic charges =     0.000000

 -----------------------------------------------------------------
                    Cartesian Multipole Moments
 -----------------------------------------------------------------
    Charge (ESU x 10^10)
                 0.0000
    Dipole Moment (Debye)
         X       0.0000      Y       0.0000      Z       0.0001
       Tot       0.0001
    Quadrupole Moments (Debye-Ang)
        XX      -9.7583     XY       0.0000     YY      -9.7583
        XZ       0.0000     YZ       0.0000     ZZ      -9.0604
    Octapole Moments (Debye-Ang^2)
       XXX       0.0000    XXY       0.0000    XYY       0.0000
       YYY       0.0000    XXZ      -6.8467    XYZ       0.0000
       YYZ      -6.8467    XZZ       0.0000    YZZ       0.0000
       ZZZ     -19.0710
    Hexadecapole Moments (Debye-Ang^3)
      XXXX      -5.9662   XXXY       0.0000   XXYY      -1.9887
      XYYY       0.0000   YYYY      -5.9662   XXXZ       0.0000
      XXYZ       0.0000   XYYZ       0.0000   YYYZ       0.0000
      XXZZ     -11.6224   XYZZ       0.0000   YYZZ     -11.6224
      XZZZ       0.0000   YZZZ       0.0000   ZZZZ     -56.9578
 -----------------------------------------------------------------
 Total job time:  23.57s(wall), 6.98s(cpu) 
 Fri Apr 15 15:29:12 2011

        *************************************************************
        *                                                           *
        *  Thank you very much for using Q-Chem.  Have a nice day.  *
        *                                                           *
        *************************************************************


0 sent ACK to 0 
now end server 0 ... 
 
**********************************************************************
Job 3 of 3 
**********************************************************************
 
Process 0 of 1 is on cl219.stfx.acenet.ca - thread support 1
initial socket setup ...start
initial socket setup ...done 
now start server 0 ... 

cmd = /usr/bin/ssh clhead /usr/local/qchem/bin/get_hostid 88381023 > /globalscratch/itamblyn/bnl/g297_b3lyp_neut_g03Large_worked/g2g71037/omega710/qchem9019/lic.dat
                  Welcome to Q-Chem
     A Quantum Leap Into The Future Of Chemistry

 Y. Shao, L. Fusti-Molnar, Y. Jung, J. Kussmann, C. Ochsenfeld,
 S. T. Brown, A. T. B. Gilbert, L. V. Slipchenko,S. V. Levchenko,
 D. P. O'Neill, R. A. DiStasio Jr., R. C. Lochan, T. Wang,
 G. J. O. Beran, N. A. Besley, J. M. Herbert, C. Y. Lin,
 T. Van Voorhis, S. H. Chien, A. Sodt, R. P. Steele, 
 V. A. Rassolov, P. E. Maslen, P. P. Korambath, R. D. Adamson,
 B. Austin, J. Baker, E. F. C. Byrd, H. Dachsel, R. J. Doerksen,
 A. Dreuw, B. D. Dunietz, A. D. Dutoi, T. R. Furlani,
 S. R. Gwaltney, A. Heyden, S. Hirata, C.-P. Hsu, G. Kedziora,
 R. Z. Khaliullin, P. Klunzinger, A. M. Lee, M. S. Lee, W. Liang,
 I. Lotan, N. Nair, B. Peters, E. I. Proynov, P. A. Pieniazek, 
 Y. M. Rhee, J. Ritchie, E. Rosta, C. D. Sherrill, 
 A. C. Simmonett, J. E. Subotnik, H. L. Woodcock III,
 W. Zhang, A. T. Bell, A. K. Chakraborty, D. M. Chipman,
 F. J. Keil, A. Warshel, W. J. Hehre, H. F. Schaefer III,
 J. Kong, A. I. Krylov, P. M. W. Gill, M. Head-Gordon,
 Q-Chem, Version 3.1, Q-Chem, Inc., Pittsburgh, PA (2007).

 Additional authors for Version 3.1: 
 Z. Gan, Y. Zhao, N. E. Schultz, D. Truhlar, E. Epifanovsky and M. Oana.

 Additional authors for Version 3.2: 
 R. Baer, B. R. Brooks, D. Casanova, J.-D. Chai, C.-L. Cheng, 
 C. Cramer, D. Crittenden, A. Ghysels, G. Hawkins, E. G. Hohenstein, 
 C. Kelley, W. Kurlancheek, D. Liotard, E. Livshits, P. Manohar, 
 A. Marenich, D. Neuhauser, R. Olson, M. A. Rohrdanz, K. S. Thanthiriwatte, 
 A. J. W. Thom, V. Vanovschi, C. F. Williams, Q. Wu and Z.-Q. You. 


 Intel X86 Linux Version

 Q-chem begins on Fri Apr 15 15:29:17 2011  

 Parallel job on  1  processors
Processing $rem in /usr/local/qchem/config/preferences.

theFileMan(): MAXOPENFILES=974 MAX_SUB_FILE_NUM=16
Maximum size of a physical file is 2.0 GB, maximum size of a tmp-file is 32.0 GB


--------------------------------------------------------------
User input:
--------------------------------------------------------------

$molecule
1,2
F
F,1,FF

FF=1.40325215

$end

$comment
positive
$end

$xc_functional
   X HF 1.0
   X BNL 1.0
   C LYP 1.0
$end

$rem
SYMMETRY_DECOMPOSITION	0
exchange 		general
BASIS                   g3large
omega			710
separate_jk		true
mem_static              760
max_scf_cycles          200
scf_final_print         1
sym_ignore              true
$end

--------------------------------------------------------------
 Writing REM_CC_EA            2
 ----------------------------------------------------
       Standard Nuclear Orientation (Angstroms)
    I     Atom         X            Y            Z
 ----------------------------------------------------
    1      F       0.000000     0.000000     0.000000
    2      F       0.000000     0.000000     1.403252
 ----------------------------------------------------
 Nuclear Repulsion Energy =    30.5457248541 hartrees
 There are        9 alpha and        8 beta electrons
 Requested basis set is G3large
 There are 20 shells and 84 basis functions

Total QAlloc Memory Limit   2000 MB
Mega-Array Size       743 MB
MEM_STATIC part       760 MB

                       Distance Matrix (Angstroms)
             F (  1)
   F (  2)  1.403252
 
 A cutoff of  1.0D-08 yielded    202 shell pairs
 There are   3646 function pairs (  4791 Cartesian)
Evaluating contribution to one-electron hamiltonian from nuclear
 Smallest overlap matrix eigenvalue = 3.28E-03
 Multipole matrices computed through 2nd order

  Scale SEOQF with 1.000000e+00/1.000000e+00/1.000000e-01

 Standard Electronic Orientation quadrupole field applied
 Nucleus-field energy     =    -0.0000000019 hartrees
 Guess from superposition of atomic densities
 Warning:  Energy on first SCF cycle will be non-variational
 An unrestricted hybrid HF-DFT SCF calculation will be
 performed using Pulay DIIS extrapolation
 Exchange:     1.0000 Hartree-Fock + 1.0000 BNL
 Correlation:  1.0000 LYP
 Using SG-1 standard quadrature grid
 SCF converges when DIIS error is below 1.0E-05
 Warning!  Inaccurate integrated density:
   Number of electrons =    17
   Numerical integral  =    17.999963435575
   Relative error      =     5.8821378563 %
 ---------------------------------------
  Cycle       Energy         DIIS Error
 ---------------------------------------
    1    -198.2066449964      3.18E-02
    2    -197.4537084960      1.48E-02
    3    -197.5782635863      5.24E-03
    4    -197.5877727955      5.31E-04
    5    -197.5880936940      1.39E-04
    6    -197.5881526692      6.39E-05
    7    -197.5881767526      3.19E-05
    8    -197.5881888535      1.36E-05
    9    -197.5881958644      1.01E-05
   10    -197.5882045985      1.02E-05
   11    -197.5882115645      4.78E-06 Convergence criterion met
 ---------------------------------------
 One-Electron    Energy =  -329.8192797492
 Total Coulomb   Energy =   120.4475748700
 Alpha Exchange  Energy =    -3.0590454211
 Beta  Exchange  Energy =    -2.6492989069
 DFT   Exchange  Energy =   -12.4190122464
 DFT Correlation Energy =    -0.6348749631
 Nuclear Repu.   Energy =    30.5457248522
 Nuclear Attr.   Energy =  -526.5580624830
 Kinetic         Energy =   196.7387827338
 <S^2> = 0.7545
 SCF time:  CPU 10.97 s  wall 28.88 s
 Final Alpha MO Eigenvalues
            1           2           3           4           5           6
    1 -25.1143128 -25.1141701  -2.1170779  -1.8411427  -1.2967094  -1.2714663
            7           8           9          10          11          12
    1  -1.2468263  -1.1668875  -1.1123576  -0.5048219  -0.0858842  -0.0230406
           13          14
    1  -0.0194814  -0.0145950
 Final Beta MO Eigenvalues
            1           2           3           4           5           6
    1 -25.0948173 -25.0945010  -2.0768043  -1.7802637  -1.2491495  -1.2272220
            7           8           9          10          11          12
    1  -1.1143793  -1.0890672  -0.6262893  -0.4779827  -0.0836705  -0.0168110
           13
    1  -0.0122048
 Analysis of SCF Wavefunction
 
 --------------------------------------------------------------
                    Orbital Energies (a.u.)
 --------------------------------------------------------------
 
 Alpha MOs
 -- Occupied --
-25.114 -25.114  -2.117  -1.841  -1.297  -1.271  -1.247  -1.167
 -1.112
 -- Virtual --
 -0.505  -0.086  -0.023  -0.019  -0.015   0.064   0.078   0.084
  0.240   0.891   0.918   0.978   1.061   1.073   1.085   1.296
  1.380   1.405   1.562   1.563   1.602   1.776   1.787   1.788
  2.262   2.292   3.133   5.231   5.585   5.621   5.734   5.768
  5.780   5.915   5.956   6.111   6.113   6.286   6.286   6.319
  6.319   6.348   6.441   6.441   6.881   6.915   7.500   8.515
  8.558   8.566   8.567   8.705   8.705   9.080   9.137   9.178
 10.134  49.482  49.498  49.530  49.537  49.540  49.597  49.661
 49.725  49.757  49.938  55.137  55.162  55.166  55.180  55.210
 55.574  66.310  66.423
 
 Beta MOs
 -- Occupied --
-25.095 -25.095  -2.077  -1.780  -1.249  -1.227  -1.114  -1.089
 -- Virtual --
 -0.626  -0.478  -0.084  -0.017  -0.012  -0.012   0.065   0.085
  0.087   0.242   0.927   0.933   0.986   1.082   1.093   1.096
  1.313   1.409   1.409   1.591   1.591   1.622   1.795   1.825
  1.825   2.299   2.301   3.150   5.247   5.634   5.636   5.793
  5.798   5.801   5.964   5.972   6.141   6.141   6.325   6.325
  6.359   6.359   6.371   6.470   6.470   6.919   6.926   7.522
  8.577   8.578   8.628   8.629   8.766   8.767   9.111   9.196
  9.197  10.161  49.534  49.549  49.551  49.589  49.596  49.651
 49.687  49.776  49.778  49.966  55.176  55.176  55.181  55.220
 55.224  55.588  66.333  66.446
 --------------------------------------------------------------
 
          Ground-State Mulliken Net Atomic Charges

     Atom                 Charge (a.u.)    Spin (a.u.)
  --------------------------------------------------------
      1 F                     0.499990       0.499967
      2 F                     0.500010       0.500033
  --------------------------------------------------------
  Sum of atomic charges =     1.000000
  Sum of spin   charges =     1.000000

 -----------------------------------------------------------------
                    Cartesian Multipole Moments
 -----------------------------------------------------------------
    Charge (ESU x 10^10)
                 4.8032
    Dipole Moment (Debye)
         X       0.0000      Y       0.0000      Z       3.3701
       Tot       3.3701
    Quadrupole Moments (Debye-Ang)
        XX      -8.0595     XY       0.3057     YY      -8.0595
        XZ       0.0016     YZ       0.0016     ZZ      -2.3064
    Octapole Moments (Debye-Ang^2)
       XXX       0.0000    XXY       0.0000    XYY       0.0000
       YYY       0.0000    XXZ      -5.6547    XYZ       0.2145
       YYZ      -5.6547    XZZ       0.0022    YZZ       0.0022
       ZZZ      -8.1728
    Hexadecapole Moments (Debye-Ang^3)
      XXXX      -4.1187   XXXY       0.1061   XXYY      -1.3729
      XYYY       0.1061   YYYY      -4.1187   XXXZ       0.0007
      XXYZ       0.0002   XYYZ       0.0002   YYYZ       0.0007
      XXZZ      -9.1584   XYZZ       0.3819   YYZZ      -9.1584
      XZZZ       0.0054   YZZZ       0.0054   ZZZZ     -35.4216
 -----------------------------------------------------------------
 Total job time:  34.70s(wall), 11.07s(cpu) 
 Fri Apr 15 15:29:52 2011

        *************************************************************
        *                                                           *
        *  Thank you very much for using Q-Chem.  Have a nice day.  *
        *                                                           *
        *************************************************************


0 sent ACK to 0 
now end server 0 ... 
