Process 0 of 1 is on cl009.stfx.acenet.ca - thread support 1
initial socket setup ...start
initial socket setup ...done 
now start server 0 ... 

cmd = /usr/bin/ssh clhead /usr/local/qchem/bin/get_hostid 1302857804 > /scratch/tmp/6064760.1.short.q/qchem18480/lic.dat
                  Welcome to Q-Chem
     A Quantum Leap Into The Future Of Chemistry

 Y. Shao, L. Fusti-Molnar, Y. Jung, J. Kussmann, C. Ochsenfeld,
 S. T. Brown, A. T. B. Gilbert, L. V. Slipchenko,S. V. Levchenko,
 D. P. O'Neill, R. A. DiStasio Jr., R. C. Lochan, T. Wang,
 G. J. O. Beran, N. A. Besley, J. M. Herbert, C. Y. Lin,
 T. Van Voorhis, S. H. Chien, A. Sodt, R. P. Steele, 
 V. A. Rassolov, P. E. Maslen, P. P. Korambath, R. D. Adamson,
 B. Austin, J. Baker, E. F. C. Byrd, H. Dachsel, R. J. Doerksen,
 A. Dreuw, B. D. Dunietz, A. D. Dutoi, T. R. Furlani,
 S. R. Gwaltney, A. Heyden, S. Hirata, C.-P. Hsu, G. Kedziora,
 R. Z. Khaliullin, P. Klunzinger, A. M. Lee, M. S. Lee, W. Liang,
 I. Lotan, N. Nair, B. Peters, E. I. Proynov, P. A. Pieniazek, 
 Y. M. Rhee, J. Ritchie, E. Rosta, C. D. Sherrill, 
 A. C. Simmonett, J. E. Subotnik, H. L. Woodcock III,
 W. Zhang, A. T. Bell, A. K. Chakraborty, D. M. Chipman,
 F. J. Keil, A. Warshel, W. J. Hehre, H. F. Schaefer III,
 J. Kong, A. I. Krylov, P. M. W. Gill, M. Head-Gordon,
 Q-Chem, Version 3.1, Q-Chem, Inc., Pittsburgh, PA (2007).

 Additional authors for Version 3.1: 
 Z. Gan, Y. Zhao, N. E. Schultz, D. Truhlar, E. Epifanovsky and M. Oana.

 Additional authors for Version 3.2: 
 R. Baer, B. R. Brooks, D. Casanova, J.-D. Chai, C.-L. Cheng, 
 C. Cramer, D. Crittenden, A. Ghysels, G. Hawkins, E. G. Hohenstein, 
 C. Kelley, W. Kurlancheek, D. Liotard, E. Livshits, P. Manohar, 
 A. Marenich, D. Neuhauser, R. Olson, M. A. Rohrdanz, K. S. Thanthiriwatte, 
 A. J. W. Thom, V. Vanovschi, C. F. Williams, Q. Wu and Z.-Q. You. 


 Intel X86 Linux Version

 Q-chem begins on Mon Jul  8 12:24:36 2013  

 Parallel job on  1  processors
Processing $rem in /usr/local/qchem/config/preferences.

theFileMan(): MAXOPENFILES=974 MAX_SUB_FILE_NUM=16
Maximum size of a physical file is 2.0 GB, maximum size of a tmp-file is 32.0 GB


--------------------------------------------------------------
User input:
--------------------------------------------------------------

$molecule
-1,2
N         -0.00002        0.00000       -0.02016
F          1.20897        0.00000       -0.60646
F         -0.60449       -1.04702       -0.60646
F         -0.60449        1.04702       -0.60646
$end

$comment
negative
$end

$xc_functional
C PBE   1.00
X wPBE  1.00
$end

$rem
SYMMETRY_DECOMPOSITION	0
exchange 		general
LRC_DFT                 true
BASIS                   g3large
omega			700
mem_static              760
max_scf_cycles          200
scf_final_print         1
sym_ignore              true
$end

--------------------------------------------------------------
 Writing REM_CC_EA            4
 ----------------------------------------------------
       Standard Nuclear Orientation (Angstroms)
    I     Atom         X            Y            Z
 ----------------------------------------------------
    1      N      -0.000020     0.000000    -0.020160
    2      F       1.208970     0.000000    -0.606460
    3      F      -0.604490    -1.047020    -0.606460
    4      F      -0.604490     1.047020    -0.606460
 ----------------------------------------------------
 Nuclear Repulsion Energy =   135.8432244769 hartrees
 There are       18 alpha and       17 beta electrons
 Requested basis set is G3large
 There are 40 shells and 168 basis functions

Total QAlloc Memory Limit   2000 MB
Mega-Array Size       743 MB
MEM_STATIC part       760 MB

                       Distance Matrix (Angstroms)
             N (  1)   F (  2)   F (  3)
   F (  2)  1.343653
   F (  3)  1.343645  2.094012
   F (  4)  1.343645  2.094012  2.094040
 
 A cutoff of  1.0D-08 yielded    709 shell pairs
 There are  12942 function pairs ( 16926 Cartesian)
Evaluating contribution to one-electron hamiltonian from nuclear
 Smallest overlap matrix eigenvalue = 1.78E-03
 Multipole matrices computed through 2nd order

  Scale SEOQF with 1.000000e-01/1.000000e-01/1.000000e-01

 Standard Electronic Orientation quadrupole field applied
 Nucleus-field energy     =     0.0000000010 hartrees
 Guess from superposition of atomic densities
 Warning:  Energy on first SCF cycle will be non-variational
 Long-range K will be added via erf
 Coulomb attenuation parameter = 0.7 bohr**(-1)
 An unrestricted Kohn-Sham SCF calculation will be
 performed using Pulay DIIS extrapolation
 Exchange:  wPBE + LR-HF      Correlation:  PBE
 Using SG-1 standard quadrature grid
 SCF converges when DIIS error is below 1.0E-05
 Requested basis set is G3large
 There are 40 shells and 168 basis functions
 A cutoff of  1.0D-08 yielded    709 shell pairs
 There are  12942 function pairs ( 16926 Cartesian)
 Warning!  Inaccurate integrated density:
   Number of electrons =    35
   Numerical integral  =    34.000286405006
   Relative error      =    -2.8563245571 %
 ---------------------------------------
  Cycle       Energy         DIIS Error
 ---------------------------------------
    1    -354.6564478164      3.06E-02
    2    -353.7948524076      7.26E-03
    3    -353.8351048598      6.38E-03
    4    -353.9162595720      5.75E-04
    5    -353.9178277425      1.93E-04
    6    -353.9182070783      1.46E-04
    7    -353.9183365543      5.56E-05
    8    -353.9184374767      4.64E-05
    9    -353.9185401928      4.29E-05
   10    -353.9186032474      3.38E-05
   11    -353.9187404742      1.71E-05
   12    -353.9187693536      1.45E-05
   13    -353.9187892056      1.32E-05
   14    -353.9187673708      1.23E-05
   15    -353.9186846763      9.49E-06 Convergence criterion met
 ---------------------------------------
 One-Electron    Energy =  -769.7302118730
 Total Coulomb   Energy =   318.2322821542
 Alpha Exchange  Energy =    -5.7710042342
 Beta  Exchange  Energy =    -5.5913692431
 DFT   Exchange  Energy =   -25.6959587547
 DFT Correlation Energy =    -1.2056472034
 Nuclear Repu.   Energy =   135.8432244780
 Nuclear Attr.   Energy = -1123.5777314183
 Kinetic         Energy =   353.8475195453
 <S^2> = 0.7552
 SCF time:  CPU 100.88 s  wall 102.12 s
 Final Alpha MO Eigenvalues
            1           2           3           4           5           6
    1 -24.4584319 -24.4462833 -24.4364316 -14.3835734  -1.4245960  -1.2717008
            7           8           9          10          11          12
    1  -1.2651762  -0.8131835  -0.6150787  -0.6041424  -0.5715894  -0.4734410
           13          14          15          16          17          18
    1  -0.4714337  -0.4176019  -0.4118964  -0.3997984  -0.2866909   0.1033278
           19          20          21          22          23
    1   0.2725152   0.3028791   0.3197688   0.3674105   0.4227366
 Final Beta MO Eigenvalues
            1           2           3           4           5           6
    1 -24.4574874 -24.4440159 -24.4329602 -14.3756476  -1.4163271  -1.2673962
            7           8           9          10          11          12
    1  -1.2535521  -0.8016316  -0.6009934  -0.5874658  -0.5667097  -0.4640561
           13          14          15          16          17          18
    1  -0.4637938  -0.4154249  -0.4079974  -0.3937297  -0.2692443   0.2848182
           19          20          21          22
    1   0.3073871   0.3091495   0.3276132   0.4369330
 Analysis of SCF Wavefunction
 
 --------------------------------------------------------------
                    Orbital Energies (a.u.)
 --------------------------------------------------------------
 
 Alpha MOs
 -- Occupied --
-24.458 -24.446 -24.436 -14.384  -1.425  -1.272  -1.265  -0.813
 -0.615  -0.604  -0.572  -0.473  -0.471  -0.418  -0.412  -0.400
 -0.287   0.103
 -- Virtual --
  0.273   0.303   0.320   0.367   0.423   0.434   0.454   0.475
  0.501   0.509   0.525   0.578   0.599   0.599   0.600   0.675
  0.719   0.721   1.073   1.077   1.113   1.373   1.384   1.386
  1.561   1.568   1.626   1.641   1.644   1.713   1.739   1.768
  1.788   1.792   2.038   2.039   2.221   2.227   2.274   2.337
  2.380   2.388   2.457   2.500   2.505   2.605   2.607   2.616
  3.004   3.006   3.099   3.123   3.124   3.268   4.033   4.233
  4.235   4.255   4.430   4.434   4.452   4.826   4.918   4.920
  5.306   5.364   5.368   5.413   5.414   6.547   6.550   6.563
  6.623   6.657   6.660   6.972   6.973   7.013   7.014   7.020
  7.023   7.025   7.027   7.029   7.035   7.041   7.048   7.245
  7.246   7.276   7.400   7.535   7.539   7.697   7.700   7.706
  7.823   8.325   8.331   9.445   9.452   9.474   9.487   9.497
  9.503   9.773   9.797   9.803   9.960  10.021  10.026  10.190
 10.421  10.428  35.713  37.780  38.308  38.310  40.682  40.710
 40.789  40.903  40.930  50.439  50.442  50.460  50.471  50.489
 50.493  50.553  50.568  50.580  50.642  50.661  50.667  50.777
 50.794  50.811  55.927  55.930  55.938  55.999  56.005  56.009
 56.319  56.512  56.523  66.948  66.961  67.022
 
 Beta MOs
 -- Occupied --
-24.457 -24.444 -24.433 -14.376  -1.416  -1.267  -1.254  -0.802
 -0.601  -0.587  -0.567  -0.464  -0.464  -0.415  -0.408  -0.394
 -0.269
 -- Virtual --
  0.285   0.307   0.309   0.328   0.437   0.444   0.456   0.480
  0.490   0.516   0.522   0.529   0.581   0.601   0.606   0.607
  0.676   0.721   0.725   1.082   1.098   1.118   1.377   1.395
  1.397   1.563   1.575   1.628   1.645   1.647   1.718   1.749
  1.770   1.790   1.796   2.046   2.050   2.223   2.230   2.276
  2.340   2.381   2.389   2.460   2.508   2.511   2.607   2.612
  2.618   3.011   3.018   3.102   3.129   3.136   3.273   4.038
  4.241   4.246   4.263   4.435   4.447   4.466   4.835   4.925
  4.940   5.319   5.378   5.393   5.436   5.442   6.550   6.553
  6.566   6.627   6.659   6.666   6.975   6.977   7.015   7.015
  7.021   7.026   7.027   7.029   7.033   7.038   7.045   7.051
  7.248   7.252   7.279   7.404   7.540   7.543   7.701   7.704
  7.713   7.830   8.330   8.340   9.449   9.457   9.480   9.491
  9.502   9.509   9.778   9.800   9.810   9.965  10.026  10.032
 10.194  10.424  10.436  35.721  37.783  38.316  38.330  40.687
 40.727  40.802  40.913  40.942  50.442  50.445  50.463  50.474
 50.492  50.495  50.556  50.569  50.583  50.646  50.662  50.672
 50.780  50.796  50.817  55.928  55.933  55.941  56.000  56.007
 56.013  56.323  56.513  56.527  66.949  66.964  67.025
 --------------------------------------------------------------
 
          Ground-State Mulliken Net Atomic Charges

     Atom                 Charge (a.u.)    Spin (a.u.)
  --------------------------------------------------------
      1 N                    -1.317616       1.524832
      2 F                     0.124874      -0.192805
      3 F                     0.017348      -0.108510
      4 F                     0.175393      -0.223518
  --------------------------------------------------------
  Sum of atomic charges =    -1.000000
  Sum of spin   charges =     1.000000

 -----------------------------------------------------------------
                    Cartesian Multipole Moments
 -----------------------------------------------------------------
    Charge (ESU x 10^10)
                -4.8032
    Dipole Moment (Debye)
         X      -0.0552      Y      -0.2937      Z       0.0803
       Tot       0.3095
    Quadrupole Moments (Debye-Ang)
        XX     -31.7036     XY       4.2168     YY     -30.7024
        XZ      -0.0932     YZ       1.5345     ZZ     -27.8808
    Octapole Moments (Debye-Ang^2)
       XXX      -2.1204    XXY      -0.9990    XYY       1.7908
       YYY      -2.9550    XXZ       9.4853    XYZ       0.7174
       YYZ       9.7802    XZZ      -0.2752    YZZ      -1.1214
       ZZZ      26.2924
    Hexadecapole Moments (Debye-Ang^3)
      XXXX    -143.0380   XXXY      17.4028   XXYY     -46.2168
      XYYY      19.2577   YYYY    -134.1215   XXXZ       2.1753
      XXYZ       2.3759   XYYZ      -2.5292   YYYZ       7.1035
      XXZZ     -38.5674   XYZZ       7.3294   YYZZ     -36.8203
      XZZZ      -0.5033   YZZZ       4.9134   ZZZZ     -76.1990
 -----------------------------------------------------------------
 Total job time:  102.35s(wall), 101.10s(cpu) 
 Mon Jul  8 12:26:18 2013

        *************************************************************
        *                                                           *
        *  Thank you very much for using Q-Chem.  Have a nice day.  *
        *                                                           *
        *************************************************************


0 sent ACK to 0 
now end server 0 ... 
 
**********************************************************************
Job 2 of 3 
**********************************************************************
 
Process 0 of 1 is on cl009.stfx.acenet.ca - thread support 1
initial socket setup ...start
initial socket setup ...done 
now start server 0 ... 

cmd = /usr/bin/ssh clhead /usr/local/qchem/bin/get_hostid 201340194 > /scratch/tmp/6064760.1.short.q/qchem18480/lic.dat
                  Welcome to Q-Chem
     A Quantum Leap Into The Future Of Chemistry

 Y. Shao, L. Fusti-Molnar, Y. Jung, J. Kussmann, C. Ochsenfeld,
 S. T. Brown, A. T. B. Gilbert, L. V. Slipchenko,S. V. Levchenko,
 D. P. O'Neill, R. A. DiStasio Jr., R. C. Lochan, T. Wang,
 G. J. O. Beran, N. A. Besley, J. M. Herbert, C. Y. Lin,
 T. Van Voorhis, S. H. Chien, A. Sodt, R. P. Steele, 
 V. A. Rassolov, P. E. Maslen, P. P. Korambath, R. D. Adamson,
 B. Austin, J. Baker, E. F. C. Byrd, H. Dachsel, R. J. Doerksen,
 A. Dreuw, B. D. Dunietz, A. D. Dutoi, T. R. Furlani,
 S. R. Gwaltney, A. Heyden, S. Hirata, C.-P. Hsu, G. Kedziora,
 R. Z. Khaliullin, P. Klunzinger, A. M. Lee, M. S. Lee, W. Liang,
 I. Lotan, N. Nair, B. Peters, E. I. Proynov, P. A. Pieniazek, 
 Y. M. Rhee, J. Ritchie, E. Rosta, C. D. Sherrill, 
 A. C. Simmonett, J. E. Subotnik, H. L. Woodcock III,
 W. Zhang, A. T. Bell, A. K. Chakraborty, D. M. Chipman,
 F. J. Keil, A. Warshel, W. J. Hehre, H. F. Schaefer III,
 J. Kong, A. I. Krylov, P. M. W. Gill, M. Head-Gordon,
 Q-Chem, Version 3.1, Q-Chem, Inc., Pittsburgh, PA (2007).

 Additional authors for Version 3.1: 
 Z. Gan, Y. Zhao, N. E. Schultz, D. Truhlar, E. Epifanovsky and M. Oana.

 Additional authors for Version 3.2: 
 R. Baer, B. R. Brooks, D. Casanova, J.-D. Chai, C.-L. Cheng, 
 C. Cramer, D. Crittenden, A. Ghysels, G. Hawkins, E. G. Hohenstein, 
 C. Kelley, W. Kurlancheek, D. Liotard, E. Livshits, P. Manohar, 
 A. Marenich, D. Neuhauser, R. Olson, M. A. Rohrdanz, K. S. Thanthiriwatte, 
 A. J. W. Thom, V. Vanovschi, C. F. Williams, Q. Wu and Z.-Q. You. 


 Intel X86 Linux Version

 Q-chem begins on Mon Jul  8 12:26:21 2013  

 Parallel job on  1  processors
Processing $rem in /usr/local/qchem/config/preferences.

theFileMan(): MAXOPENFILES=974 MAX_SUB_FILE_NUM=16
Maximum size of a physical file is 2.0 GB, maximum size of a tmp-file is 32.0 GB


--------------------------------------------------------------
User input:
--------------------------------------------------------------

$molecule
0,1
N         -0.00002        0.00000       -0.02016
F          1.20897        0.00000       -0.60646
F         -0.60449       -1.04702       -0.60646
F         -0.60449        1.04702       -0.60646
$end

$comment
neutral
$end

$xc_functional
C PBE   1.00
X wPBE  1.00
$end


$rem
SYMMETRY_DECOMPOSITION	0
LRC_DFT                 true
exchange 		general
BASIS                   g3large
omega			700
mem_static              760
max_scf_cycles          200
scf_final_print         1
sym_ignore              true
$end

--------------------------------------------------------------
 Writing REM_CC_EA            4
 ----------------------------------------------------
       Standard Nuclear Orientation (Angstroms)
    I     Atom         X            Y            Z
 ----------------------------------------------------
    1      N      -0.000020     0.000000    -0.020160
    2      F       1.208970     0.000000    -0.606460
    3      F      -0.604490    -1.047020    -0.606460
    4      F      -0.604490     1.047020    -0.606460
 ----------------------------------------------------
 Nuclear Repulsion Energy =   135.8432244769 hartrees
 There are       17 alpha and       17 beta electrons
 Requested basis set is G3large
 There are 40 shells and 168 basis functions

Total QAlloc Memory Limit   2000 MB
Mega-Array Size       743 MB
MEM_STATIC part       760 MB

                       Distance Matrix (Angstroms)
             N (  1)   F (  2)   F (  3)
   F (  2)  1.343653
   F (  3)  1.343645  2.094012
   F (  4)  1.343645  2.094012  2.094040
 
 A cutoff of  1.0D-08 yielded    709 shell pairs
 There are  12942 function pairs ( 16926 Cartesian)
Evaluating contribution to one-electron hamiltonian from nuclear
 Smallest overlap matrix eigenvalue = 1.78E-03
 Multipole matrices computed through 2nd order

  Scale SEOQF with 1.000000e-01/1.000000e-01/1.000000e-01

 Standard Electronic Orientation quadrupole field applied
 Nucleus-field energy     =     0.0000000010 hartrees
 Guess from superposition of atomic densities
 Warning:  Energy on first SCF cycle will be non-variational
 Long-range K will be added via erf
 Coulomb attenuation parameter = 0.7 bohr**(-1)
 A restricted Kohn-Sham SCF calculation will be
 performed using Pulay DIIS extrapolation
 Exchange:  wPBE + LR-HF      Correlation:  PBE
 Using SG-1 standard quadrature grid
 SCF converges when DIIS error is below 1.0E-05
 Requested basis set is G3large
 There are 40 shells and 168 basis functions
 A cutoff of  1.0D-08 yielded    709 shell pairs
 There are  12942 function pairs ( 16926 Cartesian)
 ---------------------------------------
  Cycle       Energy         DIIS Error
 ---------------------------------------
    1    -354.6564478164      3.06E-02
    2    -353.8464084115      8.74E-03
    3    -353.9029235160      8.17E-03
    4    -354.0344837548      7.60E-04
    5    -354.0362566244      2.66E-04
    6    -354.0366928839      7.87E-05
    7    -354.0367661359      1.88E-05
    8    -354.0367692144      8.84E-06 Convergence criterion met
 ---------------------------------------
 One-Electron    Energy =  -761.1728818122
 Total Coulomb   Energy =   309.3138941736
 Alpha Exchange  Energy =    -5.6080507500
 Beta  Exchange  Energy =    -5.6080507500
 DFT   Exchange  Energy =   -25.6192840974
 DFT Correlation Energy =    -1.1856204562
 Nuclear Repu.   Energy =   135.8432244780
 Nuclear Attr.   Energy = -1114.4013344073
 Kinetic         Energy =   353.2284525950
 SCF time:  CPU 44.29 s  wall 44.65 s
 Final Alpha MO Eigenvalues
            1           2           3           4           5           6
    1 -24.7057212 -24.7056173 -24.7054103 -14.6825174  -1.6799573  -1.5172182
            7           8           9          10          11          12
    1  -1.5171451  -1.0608494  -0.8519605  -0.8519314  -0.8252210  -0.7133550
           13          14          15          16          17          18
    1  -0.7133430  -0.6590784  -0.6590266  -0.6448521  -0.5402554   0.1187792
           19          20          21          22
    1   0.1296760   0.1296824   0.1468990   0.1986352
 Analysis of SCF Wavefunction
 
 --------------------------------------------------------------
                    Orbital Energies (a.u.)
 --------------------------------------------------------------
 
 Alpha MOs
 -- Occupied --
-24.706 -24.706 -24.705 -14.683  -1.680  -1.517  -1.517  -1.061
 -0.852  -0.852  -0.825  -0.713  -0.713  -0.659  -0.659  -0.645
 -0.540
 -- Virtual --
  0.119   0.130   0.130   0.147   0.199   0.208   0.208   0.296
  0.296   0.328   0.328   0.337   0.407   0.413   0.427   0.427
  0.484   0.526   0.526   0.849   0.849   0.875   1.125   1.135
  1.135   1.348   1.348   1.408   1.421   1.421   1.482   1.513
  1.547   1.569   1.569   1.793   1.793   1.995   1.995   2.032
  2.093   2.144   2.144   2.227   2.258   2.258   2.362   2.362
  2.372   2.759   2.759   2.854   2.877   2.877   3.021   3.767
  3.973   3.973   3.989   4.170   4.171   4.189   4.565   4.663
  4.663   5.036   5.097   5.097   5.148   5.148   6.303   6.303
  6.315   6.378   6.413   6.413   6.725   6.725   6.771   6.771
  6.776   6.777   6.780   6.780   6.780   6.792   6.793   6.801
  6.997   6.997   7.028   7.149   7.284   7.284   7.443   7.451
  7.451   7.566   8.071   8.071   9.202   9.202   9.226   9.243
  9.251   9.251   9.524   9.551   9.551   9.712   9.775   9.775
  9.941  10.176  10.176  35.417  37.482  38.014  38.014  40.385
 40.415  40.493  40.607  40.633  50.185  50.192  50.197  50.223
 50.229  50.233  50.297  50.313  50.320  50.385  50.406  50.406
 50.520  50.544  50.547  55.675  55.675  55.677  55.747  55.747
 55.747  56.062  56.259  56.259  66.697  66.697  66.763
 --------------------------------------------------------------
 
          Ground-State Mulliken Net Atomic Charges

     Atom                 Charge (a.u.)
  ----------------------------------------
      1 N                     0.053914
      2 F                    -0.017993
      3 F                    -0.018030
      4 F                    -0.017891
  ----------------------------------------
  Sum of atomic charges =     0.000000

 -----------------------------------------------------------------
                    Cartesian Multipole Moments
 -----------------------------------------------------------------
    Charge (ESU x 10^10)
                 0.0000
    Dipole Moment (Debye)
         X      -0.0002      Y       0.0005      Z       0.2074
       Tot       0.2074
    Quadrupole Moments (Debye-Ang)
        XX     -20.2789     XY      -0.0002     YY     -20.2786
        XZ       0.0000     YZ      -0.0003     ZZ     -20.3849
    Octapole Moments (Debye-Ang^2)
       XXX      -0.3906    XXY       0.0001    XYY       0.3910
       YYY       0.0004    XXZ       9.1783    XYZ       0.0002
       YYZ       9.1780    XZZ       0.0000    YZZ      -0.0001
       ZZZ      26.4415
    Hexadecapole Moments (Debye-Ang^3)
      XXXX     -74.9771   XXXY       0.0006   XXYY     -24.9928
      XYYY      -0.0001   YYYY     -74.9785   XXXZ      -0.4268
      XXYZ      -0.0001   XYYZ       0.4268   YYYZ      -0.0002
      XXZZ     -20.0117   XYZZ       0.0001   YYZZ     -20.0118
      XZZZ       0.0001   YZZZ       0.0004   ZZZZ     -45.8828
 -----------------------------------------------------------------
 Total job time:  44.85s(wall), 44.49s(cpu) 
 Mon Jul  8 12:27:06 2013

        *************************************************************
        *                                                           *
        *  Thank you very much for using Q-Chem.  Have a nice day.  *
        *                                                           *
        *************************************************************


0 sent ACK to 0 
now end server 0 ... 
 
**********************************************************************
Job 3 of 3 
**********************************************************************
 
Process 0 of 1 is on cl009.stfx.acenet.ca - thread support 1
initial socket setup ...start
initial socket setup ...done 
now start server 0 ... 

cmd = /usr/bin/ssh clhead /usr/local/qchem/bin/get_hostid 1705902089 > /scratch/tmp/6064760.1.short.q/qchem18480/lic.dat
                  Welcome to Q-Chem
     A Quantum Leap Into The Future Of Chemistry

 Y. Shao, L. Fusti-Molnar, Y. Jung, J. Kussmann, C. Ochsenfeld,
 S. T. Brown, A. T. B. Gilbert, L. V. Slipchenko,S. V. Levchenko,
 D. P. O'Neill, R. A. DiStasio Jr., R. C. Lochan, T. Wang,
 G. J. O. Beran, N. A. Besley, J. M. Herbert, C. Y. Lin,
 T. Van Voorhis, S. H. Chien, A. Sodt, R. P. Steele, 
 V. A. Rassolov, P. E. Maslen, P. P. Korambath, R. D. Adamson,
 B. Austin, J. Baker, E. F. C. Byrd, H. Dachsel, R. J. Doerksen,
 A. Dreuw, B. D. Dunietz, A. D. Dutoi, T. R. Furlani,
 S. R. Gwaltney, A. Heyden, S. Hirata, C.-P. Hsu, G. Kedziora,
 R. Z. Khaliullin, P. Klunzinger, A. M. Lee, M. S. Lee, W. Liang,
 I. Lotan, N. Nair, B. Peters, E. I. Proynov, P. A. Pieniazek, 
 Y. M. Rhee, J. Ritchie, E. Rosta, C. D. Sherrill, 
 A. C. Simmonett, J. E. Subotnik, H. L. Woodcock III,
 W. Zhang, A. T. Bell, A. K. Chakraborty, D. M. Chipman,
 F. J. Keil, A. Warshel, W. J. Hehre, H. F. Schaefer III,
 J. Kong, A. I. Krylov, P. M. W. Gill, M. Head-Gordon,
 Q-Chem, Version 3.1, Q-Chem, Inc., Pittsburgh, PA (2007).

 Additional authors for Version 3.1: 
 Z. Gan, Y. Zhao, N. E. Schultz, D. Truhlar, E. Epifanovsky and M. Oana.

 Additional authors for Version 3.2: 
 R. Baer, B. R. Brooks, D. Casanova, J.-D. Chai, C.-L. Cheng, 
 C. Cramer, D. Crittenden, A. Ghysels, G. Hawkins, E. G. Hohenstein, 
 C. Kelley, W. Kurlancheek, D. Liotard, E. Livshits, P. Manohar, 
 A. Marenich, D. Neuhauser, R. Olson, M. A. Rohrdanz, K. S. Thanthiriwatte, 
 A. J. W. Thom, V. Vanovschi, C. F. Williams, Q. Wu and Z.-Q. You. 


 Intel X86 Linux Version

 Q-chem begins on Mon Jul  8 12:27:09 2013  

 Parallel job on  1  processors
Processing $rem in /usr/local/qchem/config/preferences.

theFileMan(): MAXOPENFILES=974 MAX_SUB_FILE_NUM=16
Maximum size of a physical file is 2.0 GB, maximum size of a tmp-file is 32.0 GB


--------------------------------------------------------------
User input:
--------------------------------------------------------------

$molecule
1,2
N         -0.00002        0.00000       -0.02016
F          1.20897        0.00000       -0.60646
F         -0.60449       -1.04702       -0.60646
F         -0.60449        1.04702       -0.60646
$end

$comment
positive
$end

$xc_functional
C PBE   1.00
X wPBE  1.00
$end

$rem
SYMMETRY_DECOMPOSITION	0
LRC_DFT                 true
exchange 		general
BASIS                   g3large
omega			700
mem_static              760
max_scf_cycles          200
scf_final_print         1
sym_ignore              true
$end

--------------------------------------------------------------
 Writing REM_CC_EA            4
 ----------------------------------------------------
       Standard Nuclear Orientation (Angstroms)
    I     Atom         X            Y            Z
 ----------------------------------------------------
    1      N      -0.000020     0.000000    -0.020160
    2      F       1.208970     0.000000    -0.606460
    3      F      -0.604490    -1.047020    -0.606460
    4      F      -0.604490     1.047020    -0.606460
 ----------------------------------------------------
 Nuclear Repulsion Energy =   135.8432244769 hartrees
 There are       17 alpha and       16 beta electrons
 Requested basis set is G3large
 There are 40 shells and 168 basis functions

Total QAlloc Memory Limit   2000 MB
Mega-Array Size       743 MB
MEM_STATIC part       760 MB

                       Distance Matrix (Angstroms)
             N (  1)   F (  2)   F (  3)
   F (  2)  1.343653
   F (  3)  1.343645  2.094012
   F (  4)  1.343645  2.094012  2.094040
 
 A cutoff of  1.0D-08 yielded    709 shell pairs
 There are  12942 function pairs ( 16926 Cartesian)
Evaluating contribution to one-electron hamiltonian from nuclear
 Smallest overlap matrix eigenvalue = 1.78E-03
 Multipole matrices computed through 2nd order

  Scale SEOQF with 1.000000e-01/1.000000e-01/1.000000e-01

 Standard Electronic Orientation quadrupole field applied
 Nucleus-field energy     =     0.0000000010 hartrees
 Guess from superposition of atomic densities
 Warning:  Energy on first SCF cycle will be non-variational
 Long-range K will be added via erf
 Coulomb attenuation parameter = 0.7 bohr**(-1)
 An unrestricted Kohn-Sham SCF calculation will be
 performed using Pulay DIIS extrapolation
 Exchange:  wPBE + LR-HF      Correlation:  PBE
 Using SG-1 standard quadrature grid
 SCF converges when DIIS error is below 1.0E-05
 Requested basis set is G3large
 There are 40 shells and 168 basis functions
 A cutoff of  1.0D-08 yielded    709 shell pairs
 There are  12942 function pairs ( 16926 Cartesian)
 Warning!  Inaccurate integrated density:
   Number of electrons =    33
   Numerical integral  =    34.000286405006
   Relative error      =     3.0311709243 %
 ---------------------------------------
  Cycle       Energy         DIIS Error
 ---------------------------------------
    1    -354.6564478164      3.06E-02
    2    -353.1446757334      1.09E-02
    3    -353.2247595407      1.16E-02
    4    -353.5150906656      1.50E-03
    5    -353.5202463649      3.13E-04
    6    -353.5214038780      1.25E-04
    7    -353.5217032025      8.08E-05
    8    -353.5217896539      2.93E-05
    9    -353.5218193036      1.26E-05
   10    -353.5218294857      6.50E-06 Convergence criterion met
 ---------------------------------------
 One-Electron    Energy =  -749.2552011186
 Total Coulomb   Energy =   297.4022696465
 Alpha Exchange  Energy =    -5.6429792182
 Beta  Exchange  Energy =    -5.2772090587
 DFT   Exchange  Energy =   -25.4474234459
 DFT Correlation Energy =    -1.1445107687
 Nuclear Repu.   Energy =   135.8432244780
 Nuclear Attr.   Energy = -1101.6695535651
 Kinetic         Energy =   352.4143524465
 <S^2> = 0.7645
 SCF time:  CPU 67.36 s  wall 67.88 s
 Final Alpha MO Eigenvalues
            1           2           3           4           5           6
    1 -25.0693539 -25.0692658 -25.0690008 -15.1306020  -2.0361092  -1.8649007
            7           8           9          10          11          12
    1  -1.8647418  -1.4298577  -1.2080566  -1.2021860  -1.2020958  -1.0531012
           13          14          15          16          17          18
    1  -1.0530101  -0.9913447  -0.9912837  -0.9780790  -0.9582835  -0.2031771
           19          20          21          22
    1  -0.2031208  -0.1553594  -0.0876447  -0.0439208
 Final Beta MO Eigenvalues
            1           2           3           4           5           6
    1 -25.0644041 -25.0643474 -25.0640977 -15.1152755  -2.0207026  -1.8514742
            7           8           9          10          11          12
    1  -1.8513784  -1.3779001  -1.1836556  -1.1835626  -1.1283848  -1.0224648
           13          14          15          16          17          18
    1  -1.0222608  -0.9769367  -0.9769140  -0.9731794  -0.4856922  -0.1640023
           19          20          21
    1  -0.1639627  -0.1357610  -0.0813163
 Analysis of SCF Wavefunction
 
 --------------------------------------------------------------
                    Orbital Energies (a.u.)
 --------------------------------------------------------------
 
 Alpha MOs
 -- Occupied --
-25.069 -25.069 -25.069 -15.131  -2.036  -1.865  -1.865  -1.430
 -1.208  -1.202  -1.202  -1.053  -1.053  -0.991  -0.991  -0.978
 -0.958
 -- Virtual --
 -0.203  -0.203  -0.155  -0.088  -0.044  -0.033  -0.033   0.091
  0.091   0.113   0.113   0.117   0.184   0.208   0.226   0.226
  0.264   0.291   0.291   0.538   0.550   0.550   0.768   0.785
  0.785   1.072   1.072   1.125   1.137   1.137   1.170   1.229
  1.268   1.283   1.283   1.455   1.455   1.696   1.696   1.707
  1.767   1.829   1.829   1.917   1.917   1.923   2.034   2.035
  2.054   2.411   2.411   2.515   2.532   2.532   2.683   3.356
  3.593   3.602   3.602   3.797   3.797   3.827   4.193   4.300
  4.300   4.597   4.672   4.672   4.743   4.744   5.965   5.965
  5.973   6.047   6.071   6.071   6.383   6.383   6.437   6.439
  6.440   6.440   6.448   6.449   6.452   6.459   6.459   6.467
  6.654   6.654   6.694   6.800   6.939   6.939   7.094   7.099
  7.099   7.205   7.711   7.711   8.855   8.855   8.874   8.894
  8.905   8.905   9.181   9.196   9.196   9.357   9.428   9.428
  9.596   9.826   9.826  34.973  37.020  37.577  37.577  39.925
 39.979  40.052  40.157  40.189  49.821  49.828  49.834  49.862
 49.866  49.870  49.935  49.946  49.956  50.021  50.041  50.044
 50.156  50.180  50.182  55.313  55.315  55.315  55.383  55.383
 55.388  55.695  55.895  55.895  66.335  66.335  66.401
 
 Beta MOs
 -- Occupied --
-25.064 -25.064 -25.064 -15.115  -2.021  -1.851  -1.851  -1.378
 -1.184  -1.184  -1.128  -1.022  -1.022  -0.977  -0.977  -0.973
 -- Virtual --
 -0.486  -0.164  -0.164  -0.136  -0.081  -0.039  -0.031  -0.031
  0.094   0.094   0.113   0.113   0.119   0.188   0.208   0.227
  0.227   0.266   0.292   0.292   0.554   0.554   0.582   0.798
  0.798   0.805   1.079   1.079   1.131   1.142   1.142   1.181
  1.241   1.270   1.292   1.292   1.466   1.466   1.701   1.701
  1.721   1.776   1.833   1.834   1.930   1.938   1.938   2.043
  2.043   2.054   2.429   2.429   2.534   2.546   2.546   2.698
  3.405   3.620   3.620   3.630   3.818   3.818   3.833   4.217
  4.312   4.312   4.669   4.722   4.722   4.776   4.776   5.973
  5.973   5.987   6.051   6.085   6.086   6.395   6.395   6.445
  6.445   6.448   6.453   6.453   6.457   6.457   6.468   6.468
  6.477   6.664   6.664   6.700   6.813   6.948   6.948   7.104
  7.114   7.114   7.221   7.723   7.723   8.868   8.869   8.894
  8.910   8.918   8.918   9.187   9.216   9.216   9.378   9.440
  9.440   9.604   9.840   9.840  34.990  37.059  37.587  37.587
 39.960  39.984  40.063  40.179  40.204  49.834  49.841  49.846
 49.871  49.877  49.881  49.942  49.959  49.966  50.030  50.051
 50.053  50.165  50.189  50.192  55.319  55.320  55.322  55.391
 55.393  55.393  55.704  55.900  55.900  66.340  66.340  66.406
 --------------------------------------------------------------
 
          Ground-State Mulliken Net Atomic Charges

     Atom                 Charge (a.u.)    Spin (a.u.)
  --------------------------------------------------------
      1 N                     0.348910       0.565512
      2 F                     0.217006       0.144615
      3 F                     0.216766       0.144333
      4 F                     0.217318       0.145540
  --------------------------------------------------------
  Sum of atomic charges =     1.000000
  Sum of spin   charges =     1.000000

 -----------------------------------------------------------------
                    Cartesian Multipole Moments
 -----------------------------------------------------------------
    Charge (ESU x 10^10)
                 4.8032
    Dipole Moment (Debye)
         X      -0.0003      Y       0.0018      Z      -1.0595
       Tot       1.0595
    Quadrupole Moments (Debye-Ang)
        XX     -15.7553     XY      -0.0015     YY     -15.7549
        XZ       0.0003     YZ      -0.0018     ZZ     -16.1715
    Octapole Moments (Debye-Ang^2)
       XXX       1.6347    XXY       0.0011    XYY      -1.6349
       YYY       0.0030    XXZ       6.3800    XYZ       0.0008
       YYZ       6.3796    XZZ      -0.0003    YZZ       0.0020
       ZZZ      23.1275
    Hexadecapole Moments (Debye-Ang^3)
      XXXX     -63.3679   XXXY      -0.0019   XXYY     -21.1227
      XYYY      -0.0016   YYYY     -63.3687   XXXZ      -1.8568
      XXYZ      -0.0006   XYYZ       1.8577   YYYZ      -0.0014
      XXZZ     -15.8529   XYZZ      -0.0014   YYZZ     -15.8530
      XZZZ       0.0003   YZZZ      -0.0036   ZZZZ     -37.5074
 -----------------------------------------------------------------
 Total job time:  68.09s(wall), 67.56s(cpu) 
 Mon Jul  8 12:28:17 2013

        *************************************************************
        *                                                           *
        *  Thank you very much for using Q-Chem.  Have a nice day.  *
        *                                                           *
        *************************************************************


0 sent ACK to 0 
now end server 0 ... 
