Process 0 of 1 is on cl201.stfx.acenet.ca - thread support 1
initial socket setup ...start
initial socket setup ...done 
now start server 0 ... 

cmd = /usr/bin/ssh clhead /usr/local/qchem/bin/get_hostid 1083840071 > /scratch/tmp/4825565.1.medium.q/qchem21722/lic.dat
                  Welcome to Q-Chem
     A Quantum Leap Into The Future Of Chemistry

 Y. Shao, L. Fusti-Molnar, Y. Jung, J. Kussmann, C. Ochsenfeld,
 S. T. Brown, A. T. B. Gilbert, L. V. Slipchenko,S. V. Levchenko,
 D. P. O'Neill, R. A. DiStasio Jr., R. C. Lochan, T. Wang,
 G. J. O. Beran, N. A. Besley, J. M. Herbert, C. Y. Lin,
 T. Van Voorhis, S. H. Chien, A. Sodt, R. P. Steele, 
 V. A. Rassolov, P. E. Maslen, P. P. Korambath, R. D. Adamson,
 B. Austin, J. Baker, E. F. C. Byrd, H. Dachsel, R. J. Doerksen,
 A. Dreuw, B. D. Dunietz, A. D. Dutoi, T. R. Furlani,
 S. R. Gwaltney, A. Heyden, S. Hirata, C.-P. Hsu, G. Kedziora,
 R. Z. Khaliullin, P. Klunzinger, A. M. Lee, M. S. Lee, W. Liang,
 I. Lotan, N. Nair, B. Peters, E. I. Proynov, P. A. Pieniazek, 
 Y. M. Rhee, J. Ritchie, E. Rosta, C. D. Sherrill, 
 A. C. Simmonett, J. E. Subotnik, H. L. Woodcock III,
 W. Zhang, A. T. Bell, A. K. Chakraborty, D. M. Chipman,
 F. J. Keil, A. Warshel, W. J. Hehre, H. F. Schaefer III,
 J. Kong, A. I. Krylov, P. M. W. Gill, M. Head-Gordon,
 Q-Chem, Version 3.1, Q-Chem, Inc., Pittsburgh, PA (2007).

 Additional authors for Version 3.1: 
 Z. Gan, Y. Zhao, N. E. Schultz, D. Truhlar, E. Epifanovsky and M. Oana.

 Additional authors for Version 3.2: 
 R. Baer, B. R. Brooks, D. Casanova, J.-D. Chai, C.-L. Cheng, 
 C. Cramer, D. Crittenden, A. Ghysels, G. Hawkins, E. G. Hohenstein, 
 C. Kelley, W. Kurlancheek, D. Liotard, E. Livshits, P. Manohar, 
 A. Marenich, D. Neuhauser, R. Olson, M. A. Rohrdanz, K. S. Thanthiriwatte, 
 A. J. W. Thom, V. Vanovschi, C. F. Williams, Q. Wu and Z.-Q. You. 


 Intel X86 Linux Version

 Q-chem begins on Mon Nov 14 19:24:09 2011  

 Parallel job on  1  processors
Processing $rem in /usr/local/qchem/config/preferences.

theFileMan(): MAXOPENFILES=974 MAX_SUB_FILE_NUM=16
Maximum size of a physical file is 2.0 GB, maximum size of a tmp-file is 32.0 GB


--------------------------------------------------------------
User input:
--------------------------------------------------------------

$molecule
-1,1
C
C,1,CC
O,2,CO,1,OCC
X,3,0.97,2,107.,1,180.,0
X,2,1.,1,XCC,3,180.,0
H,2,CH,5,A1,1,90.,0
H,2,CH,5,A1,1,-90.,0
H,1,CH3,2,H3CC,3,180.,0
X,1,1.,2,YCC,3,0.,0
H,1,CH4,9,A2,2,90.,0
H,1,CH4,9,A2,2,-90.,0

CC=1.55380371
CO=1.3708761
OCC=106.53444686
XCC=122.81869313
CH=1.10383091
A1=54.76163191
CH3=1.09470615
H3CC=108.59935331
YCC=126.7607798
CH4=1.09293226
A2=54.53735592

$end

$comment
negative
$end

$xc_functional
   X HF 1.0
   X BNL 1.0
   C LYP 1.0
$end

$rem
SYMMETRY_DECOMPOSITION	0
exchange 		general
BASIS                   g3large
omega			390
separate_jk		true
mem_static              760
max_scf_cycles          200
scf_final_print         1
sym_ignore              true
$end

--------------------------------------------------------------
 Writing REM_CC_EA            8
 ----------------------------------------------------
       Standard Nuclear Orientation (Angstroms)
    I     Atom         X            Y            Z
 ----------------------------------------------------
    1      C       0.000000     0.000000     0.000000
    2      C       0.000000     0.000000     1.553804
    3      O       1.314189     0.000000     1.943944
    4      H      -0.535234     0.901564     1.898986
    5      H      -0.535234    -0.901564     1.898986
    6      H      -1.037532     0.000000    -0.349155
    7      H       0.507995     0.890187    -0.379486
    8      H       0.507995    -0.890187    -0.379486
 ----------------------------------------------------
 Nuclear Repulsion Energy =    74.3897211119 hartrees
 There are       13 alpha and       13 beta electrons
 Requested basis set is G3large
 There are 60 shells and 176 basis functions

Total QAlloc Memory Limit   2000 MB
Mega-Array Size       743 MB
MEM_STATIC part       760 MB

                       Distance Matrix (Angstroms)
             C (  1)   C (  2)   O (  3)   H (  4)   H (  5)   H (  6)
   C (  2)  1.553804
   O (  3)  2.346489  1.370876
   H (  4)  2.169202  1.103831  2.057961
   H (  5)  2.169202  1.103831  2.057961  1.803127
   H (  6)  1.094706  2.167423  3.284645  2.473713  2.473713
   H (  7)  1.092932  2.188173  2.615475  2.505971  3.080605  1.783817
   H (  8)  1.092932  2.188173  2.615475  3.080605  2.505971  1.783817
             H (  7)
   H (  8)  1.780373
 
 A cutoff of  1.0D-08 yielded   1760 shell pairs
 There are  15158 function pairs ( 18470 Cartesian)
Evaluating contribution to one-electron hamiltonian from nuclear
 Smallest overlap matrix eigenvalue = 1.37E-04
 Multipole matrices computed through 2nd order

  Scale SEOQF with 1.000000e-01/1.000000e-01/1.000000e-01

 Standard Electronic Orientation quadrupole field applied
 Nucleus-field energy     =    -0.0000000048 hartrees
 Guess from superposition of atomic densities
 Warning:  Energy on first SCF cycle will be non-variational
 A restricted hybrid HF-DFT SCF calculation will be
 performed using Pulay DIIS extrapolation
 Exchange:     1.0000 Hartree-Fock + 1.0000 BNL
 Correlation:  1.0000 LYP
 Using SG-1 standard quadrature grid
 SCF converges when DIIS error is below 1.0E-05
 Warning!  Inaccurate integrated density:
   Number of electrons =    26
   Numerical integral  =    24.999848811569
   Relative error      =    -3.8467353401 %
 ---------------------------------------
  Cycle       Energy         DIIS Error
 ---------------------------------------
    1    -153.1649487677      3.12E-02
    2    -152.6212786281      7.37E-03
    3    -151.3178895486      1.86E-02
    4    -152.8030073907      2.09E-03
    5    -152.8191051683      7.66E-04
    6    -152.8214858234      1.61E-04
    7    -152.8216241123      6.35E-05
    8    -152.8216480644      2.40E-05
    9    -152.8216517283      9.55E-06 Convergence criterion met
 ---------------------------------------
 One-Electron    Energy =  -362.6223671152
 Total Coulomb   Energy =   155.1624213084
 Alpha Exchange  Energy =    -2.5146631622
 Beta  Exchange  Energy =    -2.5146631622
 DFT   Exchange  Energy =   -13.8697653557
 DFT Correlation Energy =    -0.8523353485
 Nuclear Repu.   Energy =    74.3897211070
 Nuclear Attr.   Energy =  -514.7278574604
 Kinetic         Energy =   152.1054903452
 SCF time:  CPU 71.11 s  wall 101.45 s
 Final Alpha MO Eigenvalues
            1           2           3           4           5           6
    1 -18.4400182  -9.7817373  -9.7614439  -0.8005864  -0.6437051  -0.4968249
            7           8           9          10          11          12
    1  -0.3721738  -0.3364498  -0.2900792  -0.2716679  -0.2228762  -0.0766731
           13          14          15          16          17          18
    1  -0.0733759   0.1533471   0.1697255   0.1756262   0.1854553   0.2090449
 Analysis of SCF Wavefunction
 
 --------------------------------------------------------------
                    Orbital Energies (a.u.)
 --------------------------------------------------------------
 
 Alpha MOs
 -- Occupied --
-18.440  -9.782  -9.761  -0.801  -0.644  -0.497  -0.372  -0.336
 -0.290  -0.272  -0.223  -0.077  -0.073
 -- Virtual --
  0.153   0.170   0.176   0.185   0.209   0.260   0.264   0.278
  0.286   0.306   0.318   0.330   0.332   0.409   0.417   0.447
  0.460   0.478   0.512   0.522   0.547   0.549   0.585   0.651
  0.690   0.704   0.737   0.751   0.813   0.829   0.836   0.851
  0.853   0.899   0.900   0.919   0.935   1.018   1.090   1.118
  1.153   1.240   1.271   1.337   1.347   1.347   1.409   1.429
  1.433   1.462   1.470   1.507   1.518   1.570   1.615   1.622
  1.643   1.695   1.712   1.739   1.760   1.782   1.793   1.826
  1.879   2.088   2.102   2.149   2.360   2.472   2.712   2.717
  2.802   2.871   2.929   2.932   3.122   3.132   3.139   3.239
  3.278   3.376   3.377   3.394   3.478   3.529   3.560   3.584
  3.614   3.671   3.719   3.806   3.839   3.869   3.871   3.903
  3.975   4.020   4.145   4.185   4.259   4.279   4.300   4.343
  4.396   4.496   4.523   4.533   4.597   4.618   4.736   4.740
  4.805   4.827   4.857   4.951   5.399   5.404   5.448   5.506
  5.547   5.642   5.674   5.747   5.821   5.899   5.935   5.981
  6.297   6.302   6.907   7.261   7.277   7.676   7.683   7.965
 24.570  24.736  27.861  28.318  28.359  28.406  28.447  28.660
 41.149  41.174  41.197  41.247  41.449  41.466  41.489  41.498
 41.523  41.548  44.019  44.090  44.164  44.211  44.252  46.112
 46.131  46.655  50.443
 --------------------------------------------------------------
 
          Ground-State Mulliken Net Atomic Charges

     Atom                 Charge (a.u.)
  ----------------------------------------
      1 C                    -0.136363
      2 C                    -0.228257
      3 O                    -0.742789
      4 H                    -0.002476
      5 H                    -0.001665
      6 H                    -0.037020
      7 H                     0.074382
      8 H                     0.074189
  ----------------------------------------
  Sum of atomic charges =    -1.000000

 -----------------------------------------------------------------
                    Cartesian Multipole Moments
 -----------------------------------------------------------------
    Charge (ESU x 10^10)
                -4.8032
    Dipole Moment (Debye)
         X      -5.1745      Y      -0.0008      Z      -8.1511
       Tot       9.6548
    Quadrupole Moments (Debye-Ang)
        XX     -34.2626     XY       0.0062     YY     -24.5127
        XZ     -11.4416     YZ      -0.0016     ZZ     -42.4277
    Octapole Moments (Debye-Ang^2)
       XXX     -37.3306    XXY      -0.0013    XYY      -8.4101
       YYY      -0.0063    XXZ     -45.0912    XYZ       0.0110
       YYZ     -27.4536    XZZ     -31.7745    YZZ      -0.0038
       ZZZ    -115.8682
    Hexadecapole Moments (Debye-Ang^3)
      XXXX    -150.2572   XXXY       0.0299   XXYY     -34.1445
      XYYY       0.0344   YYYY     -53.7331   XXXZ     -73.0559
      XXYZ      -0.0022   XYYZ     -18.2140   YYYZ      -0.0145
      XXZZ    -116.6848   XYZZ       0.0310   YYZZ     -67.8867
      XZZZ    -101.8718   YZZZ      -0.0110   ZZZZ    -421.6827
 -----------------------------------------------------------------
 Total job time:  105.18s(wall), 71.32s(cpu) 
 Mon Nov 14 19:25:54 2011

        *************************************************************
        *                                                           *
        *  Thank you very much for using Q-Chem.  Have a nice day.  *
        *                                                           *
        *************************************************************


0 sent ACK to 0 
now end server 0 ... 
 
**********************************************************************
Job 2 of 3 
**********************************************************************
 
Process 0 of 1 is on cl201.stfx.acenet.ca - thread support 1
initial socket setup ...start
initial socket setup ...done 
now start server 0 ... 

cmd = /usr/bin/ssh clhead /usr/local/qchem/bin/get_hostid 919909862 > /scratch/tmp/4825565.1.medium.q/qchem21722/lic.dat
                  Welcome to Q-Chem
     A Quantum Leap Into The Future Of Chemistry

 Y. Shao, L. Fusti-Molnar, Y. Jung, J. Kussmann, C. Ochsenfeld,
 S. T. Brown, A. T. B. Gilbert, L. V. Slipchenko,S. V. Levchenko,
 D. P. O'Neill, R. A. DiStasio Jr., R. C. Lochan, T. Wang,
 G. J. O. Beran, N. A. Besley, J. M. Herbert, C. Y. Lin,
 T. Van Voorhis, S. H. Chien, A. Sodt, R. P. Steele, 
 V. A. Rassolov, P. E. Maslen, P. P. Korambath, R. D. Adamson,
 B. Austin, J. Baker, E. F. C. Byrd, H. Dachsel, R. J. Doerksen,
 A. Dreuw, B. D. Dunietz, A. D. Dutoi, T. R. Furlani,
 S. R. Gwaltney, A. Heyden, S. Hirata, C.-P. Hsu, G. Kedziora,
 R. Z. Khaliullin, P. Klunzinger, A. M. Lee, M. S. Lee, W. Liang,
 I. Lotan, N. Nair, B. Peters, E. I. Proynov, P. A. Pieniazek, 
 Y. M. Rhee, J. Ritchie, E. Rosta, C. D. Sherrill, 
 A. C. Simmonett, J. E. Subotnik, H. L. Woodcock III,
 W. Zhang, A. T. Bell, A. K. Chakraborty, D. M. Chipman,
 F. J. Keil, A. Warshel, W. J. Hehre, H. F. Schaefer III,
 J. Kong, A. I. Krylov, P. M. W. Gill, M. Head-Gordon,
 Q-Chem, Version 3.1, Q-Chem, Inc., Pittsburgh, PA (2007).

 Additional authors for Version 3.1: 
 Z. Gan, Y. Zhao, N. E. Schultz, D. Truhlar, E. Epifanovsky and M. Oana.

 Additional authors for Version 3.2: 
 R. Baer, B. R. Brooks, D. Casanova, J.-D. Chai, C.-L. Cheng, 
 C. Cramer, D. Crittenden, A. Ghysels, G. Hawkins, E. G. Hohenstein, 
 C. Kelley, W. Kurlancheek, D. Liotard, E. Livshits, P. Manohar, 
 A. Marenich, D. Neuhauser, R. Olson, M. A. Rohrdanz, K. S. Thanthiriwatte, 
 A. J. W. Thom, V. Vanovschi, C. F. Williams, Q. Wu and Z.-Q. You. 


 Intel X86 Linux Version

 Q-chem begins on Mon Nov 14 19:25:59 2011  

 Parallel job on  1  processors
Processing $rem in /usr/local/qchem/config/preferences.

theFileMan(): MAXOPENFILES=974 MAX_SUB_FILE_NUM=16
Maximum size of a physical file is 2.0 GB, maximum size of a tmp-file is 32.0 GB


--------------------------------------------------------------
User input:
--------------------------------------------------------------

$molecule
0,2
C
C,1,CC
O,2,CO,1,OCC
X,3,0.97,2,107.,1,180.,0
X,2,1.,1,XCC,3,180.,0
H,2,CH,5,A1,1,90.,0
H,2,CH,5,A1,1,-90.,0
H,1,CH3,2,H3CC,3,180.,0
X,1,1.,2,YCC,3,0.,0
H,1,CH4,9,A2,2,90.,0
H,1,CH4,9,A2,2,-90.,0

CC=1.55380371
CO=1.3708761
OCC=106.53444686
XCC=122.81869313
CH=1.10383091
A1=54.76163191
CH3=1.09470615
H3CC=108.59935331
YCC=126.7607798
CH4=1.09293226
A2=54.53735592

$end

$comment
neutral
$end

$xc_functional
   X HF 1.0
   X BNL 1.0
   C LYP 1.0
$end

$rem
SYMMETRY_DECOMPOSITION	0
exchange 		general
BASIS                   g3large
omega			390
separate_jk		true
mem_static              760
max_scf_cycles          200
scf_final_print         1
sym_ignore              true
$end

--------------------------------------------------------------
 Writing REM_CC_EA            8
 ----------------------------------------------------
       Standard Nuclear Orientation (Angstroms)
    I     Atom         X            Y            Z
 ----------------------------------------------------
    1      C       0.000000     0.000000     0.000000
    2      C       0.000000     0.000000     1.553804
    3      O       1.314189     0.000000     1.943944
    4      H      -0.535234     0.901564     1.898986
    5      H      -0.535234    -0.901564     1.898986
    6      H      -1.037532     0.000000    -0.349155
    7      H       0.507995     0.890187    -0.379486
    8      H       0.507995    -0.890187    -0.379486
 ----------------------------------------------------
 Nuclear Repulsion Energy =    74.3897211119 hartrees
 There are       13 alpha and       12 beta electrons
 Requested basis set is G3large
 There are 60 shells and 176 basis functions

Total QAlloc Memory Limit   2000 MB
Mega-Array Size       743 MB
MEM_STATIC part       760 MB

                       Distance Matrix (Angstroms)
             C (  1)   C (  2)   O (  3)   H (  4)   H (  5)   H (  6)
   C (  2)  1.553804
   O (  3)  2.346489  1.370876
   H (  4)  2.169202  1.103831  2.057961
   H (  5)  2.169202  1.103831  2.057961  1.803127
   H (  6)  1.094706  2.167423  3.284645  2.473713  2.473713
   H (  7)  1.092932  2.188173  2.615475  2.505971  3.080605  1.783817
   H (  8)  1.092932  2.188173  2.615475  3.080605  2.505971  1.783817
             H (  7)
   H (  8)  1.780373
 
 A cutoff of  1.0D-08 yielded   1760 shell pairs
 There are  15158 function pairs ( 18470 Cartesian)
Evaluating contribution to one-electron hamiltonian from nuclear
 Smallest overlap matrix eigenvalue = 1.37E-04
 Multipole matrices computed through 2nd order

  Scale SEOQF with 1.000000e-01/1.000000e-01/1.000000e-01

 Standard Electronic Orientation quadrupole field applied
 Nucleus-field energy     =    -0.0000000048 hartrees
 Guess from superposition of atomic densities
 Warning:  Energy on first SCF cycle will be non-variational
 An unrestricted hybrid HF-DFT SCF calculation will be
 performed using Pulay DIIS extrapolation
 Exchange:     1.0000 Hartree-Fock + 1.0000 BNL
 Correlation:  1.0000 LYP
 Using SG-1 standard quadrature grid
 SCF converges when DIIS error is below 1.0E-05
 ---------------------------------------
  Cycle       Energy         DIIS Error
 ---------------------------------------
    1    -153.1649487677      3.12E-02
    2    -152.6917938611      3.55E-03
    3    -152.7181336372      3.51E-03
    4    -152.7536638124      4.96E-04
    5    -152.7558351336      3.14E-04
    6    -152.7567636524      9.93E-05
    7    -152.7571146670      4.56E-05
    8    -152.7572188137      2.00E-05
    9    -152.7572461200      1.58E-05
   10    -152.7572641766      1.52E-05
   11    -152.7572830088      1.52E-05
   12    -152.7572773829      1.52E-05
   13    -152.7572004619      1.50E-05
   14    -152.7572181879      1.49E-05
   15    -152.7572372844      1.50E-05
   16    -152.7572084422      1.50E-05
   17    -152.7570801829      1.49E-05
   18    -152.7569596163      1.55E-05
   19    -152.7569588686      1.54E-05
   20    -152.7569748576      1.39E-05
   21    -152.7569891689      1.41E-05
   22    -152.7569937529      1.40E-05
   23    -152.7569876603      1.40E-05
   24    -152.7569497295      1.39E-05
   25    -152.7569653527      1.38E-05
   26    -152.7569791920      1.39E-05
   27    -152.7569610216      1.39E-05
   28    -152.7568607693      1.36E-05
   29    -152.7567312710      1.41E-05
   30    -152.7567310411      1.41E-05
   31    -152.7567437697      1.26E-05
   32    -152.7567549648      1.27E-05
   33    -152.7567604884      1.26E-05
   34    -152.7567559478      1.26E-05
   35    -152.7567344581      1.25E-05
   36    -152.7567468623      1.25E-05
   37    -152.7567518966      1.25E-05
   38    -152.7567258601      1.24E-05
   39    -152.7565758073      1.23E-05
   40    -152.7564923074      1.36E-05
   41    -152.7564788091      1.95E-05
   42    -152.7560705829      9.61E-05
   43    -152.7560939536      8.64E-05
   44    -152.7560705829      8.92E-05
   45    -152.7560708455      8.83E-05
   46    -152.7560664767      8.16E-05
   47    -152.7560378548      9.03E-05
   48    -152.7560435487      8.39E-05
   49    -152.7560542490      6.12E-05
   50    -152.7560546098      5.53E-05
   51    -152.7560661361      2.76E-05
   52    -152.7560692807      1.08E-05
   53    -152.7560697951      6.95E-07 Convergence criterion met
 ---------------------------------------
 One-Electron    Energy =  -355.9291782308
 Total Coulomb   Energy =   148.2668263487
 Alpha Exchange  Energy =    -2.5468697232
 Beta  Exchange  Energy =    -2.3377096648
 DFT   Exchange  Energy =   -13.7803085228
 DFT Correlation Energy =    -0.8185511092
 Nuclear Repu.   Energy =    74.3897211070
 Nuclear Attr.   Energy =  -507.9120010651
 Kinetic         Energy =   151.9828228343
 <S^2> = 0.7538
 SCF time:  CPU 466.85 s  wall 588.34 s
 Final Alpha MO Eigenvalues
            1           2           3           4           5           6
    1 -18.8337445 -10.0318596  -9.9601809  -1.1478303  -0.8737909  -0.7453726
            7           8           9          10          11          12
    1  -0.6325953  -0.5878160  -0.5407220  -0.5072224  -0.5000928  -0.4455184
           13          14          15          16          17          18
    1  -0.3968551   0.0306745   0.0496720   0.0531234   0.0652144   0.0874236
 Final Beta MO Eigenvalues
            1           2           3           4           5           6
    1 -18.8096436 -10.0325293  -9.9602745  -1.1054123  -0.8643388  -0.7327433
            7           8           9          10          11          12
    1  -0.5972779  -0.5725587  -0.5284563  -0.4946074  -0.4835733  -0.3745943
           13          14          15          16          17
    1  -0.0640497   0.0304607   0.0496348   0.0527778   0.0651914
 Analysis of SCF Wavefunction
 
 --------------------------------------------------------------
                    Orbital Energies (a.u.)
 --------------------------------------------------------------
 
 Alpha MOs
 -- Occupied --
-18.834 -10.032  -9.960  -1.148  -0.874  -0.745  -0.633  -0.588
 -0.541  -0.507  -0.500  -0.446  -0.397
 -- Virtual --
  0.031   0.050   0.053   0.065   0.087   0.108   0.118   0.133
  0.137   0.161   0.166   0.174   0.183   0.237   0.241   0.258
  0.268   0.293   0.300   0.327   0.335   0.356   0.370   0.428
  0.504   0.511   0.528   0.549   0.622   0.623   0.626   0.641
  0.650   0.667   0.677   0.721   0.746   0.812   0.876   0.882
  0.968   1.017   1.041   1.092   1.105   1.124   1.168   1.183
  1.203   1.246   1.249   1.257   1.261   1.346   1.367   1.396
  1.429   1.482   1.482   1.527   1.545   1.559   1.563   1.601
  1.684   1.791   1.801   1.825   2.077   2.156   2.408   2.490
  2.593   2.641   2.691   2.714   2.891   2.896   2.913   3.040
  3.047   3.134   3.148   3.168   3.263   3.311   3.313   3.353
  3.389   3.419   3.474   3.580   3.609   3.632   3.636   3.660
  3.716   3.794   3.905   3.955   4.034   4.066   4.080   4.102
  4.167   4.284   4.293   4.324   4.349   4.373   4.499   4.519
  4.583   4.608   4.637   4.720   4.990   5.080   5.096   5.119
  5.208   5.325   5.386   5.414   5.511   5.639   5.730   5.753
  5.942   5.978   6.572   6.850   6.868   7.270   7.327   7.599
 24.364  24.491  27.635  28.066  28.131  28.207  28.226  28.438
 40.913  40.950  40.980  41.027  41.199  41.238  41.263  41.277
 41.299  41.350  43.599  43.674  43.778  43.794  43.861  45.696
 45.749  46.271  50.049
 
 Beta MOs
 -- Occupied --
-18.810 -10.033  -9.960  -1.105  -0.864  -0.733  -0.597  -0.573
 -0.528  -0.495  -0.484  -0.375
 -- Virtual --
 -0.064   0.030   0.050   0.053   0.065   0.088   0.109   0.118
  0.135   0.137   0.161   0.166   0.174   0.183   0.237   0.245
  0.260   0.275   0.296   0.304   0.332   0.342   0.356   0.373
  0.433   0.507   0.512   0.535   0.552   0.623   0.627   0.629
  0.641   0.653   0.673   0.683   0.723   0.746   0.814   0.881
  0.885   0.969   1.020   1.047   1.099   1.116   1.127   1.175
  1.207   1.212   1.249   1.254   1.262   1.270   1.350   1.383
  1.398   1.432   1.486   1.491   1.531   1.547   1.563   1.572
  1.605   1.687   1.819   1.820   1.858   2.086   2.187   2.425
  2.497   2.596   2.645   2.697   2.716   2.894   2.898   2.916
  3.040   3.050   3.139   3.150   3.173   3.265   3.313   3.322
  3.357   3.390   3.421   3.480   3.582   3.612   3.633   3.639
  3.662   3.722   3.796   3.911   3.959   4.038   4.069   4.081
  4.108   4.170   4.294   4.295   4.326   4.361   4.382   4.506
  4.523   4.589   4.610   4.642   4.727   5.073   5.102   5.149
  5.176   5.247   5.364   5.402   5.433   5.537   5.656   5.732
  5.759   5.985   5.994   6.595   6.931   6.948   7.347   7.355
  7.639  24.364  24.490  27.635  28.066  28.131  28.207  28.226
 28.437  40.912  40.949  40.980  41.027  41.199  41.237  41.263
 41.276  41.299  41.350  43.665  43.736  43.805  43.856  43.893
 45.744  45.766  46.289  50.079
 --------------------------------------------------------------
 
          Ground-State Mulliken Net Atomic Charges

     Atom                 Charge (a.u.)    Spin (a.u.)
  --------------------------------------------------------
      1 C                    -0.300019       0.001167
      2 C                    -0.216732      -0.051458
      3 O                    -0.147972       0.885906
      4 H                     0.152758       0.081178
      5 H                     0.152781       0.081263
      6 H                     0.098089      -0.002048
      7 H                     0.130542       0.002010
      8 H                     0.130553       0.001981
  --------------------------------------------------------
  Sum of atomic charges =     0.000000
  Sum of spin   charges =     1.000000

 -----------------------------------------------------------------
                    Cartesian Multipole Moments
 -----------------------------------------------------------------
    Charge (ESU x 10^10)
                 0.0000
    Dipole Moment (Debye)
         X      -2.1464      Y      -0.0002      Z      -0.6336
       Tot       2.2380
    Quadrupole Moments (Debye-Ang)
        XX     -22.8815     XY       0.0003     YY     -18.2637
        XZ      -4.7476     YZ      -0.0007     ZZ     -22.6563
    Octapole Moments (Debye-Ang^2)
       XXX     -25.3655    XXY       0.0001    XYY      -6.0101
       YYY      -0.0003    XXZ     -27.0585    XYZ       0.0000
       YYZ     -18.2374    XZZ     -16.5415    YZZ      -0.0023
       ZZZ     -70.9503
    Hexadecapole Moments (Debye-Ang^3)
      XXXX     -98.5630   XXXY       0.0011   XXYY     -19.6811
      XYYY       0.0004   YYYY     -32.8560   XXXZ     -47.8057
      XXYZ      -0.0006   XYYZ     -13.7768   YYYZ      -0.0008
      XXZZ     -71.1913   XYZZ      -0.0011   YYZZ     -43.4595
      XZZZ     -61.8284   YZZZ      -0.0065   ZZZZ    -287.4809
 -----------------------------------------------------------------
 Total job time:  588.57s(wall), 467.05s(cpu) 
 Mon Nov 14 19:35:47 2011

        *************************************************************
        *                                                           *
        *  Thank you very much for using Q-Chem.  Have a nice day.  *
        *                                                           *
        *************************************************************


0 sent ACK to 0 
now end server 0 ... 
 
**********************************************************************
Job 3 of 3 
**********************************************************************
 
Process 0 of 1 is on cl201.stfx.acenet.ca - thread support 1
initial socket setup ...start
initial socket setup ...done 
now start server 0 ... 

cmd = /usr/bin/ssh clhead /usr/local/qchem/bin/get_hostid 1264972932 > /scratch/tmp/4825565.1.medium.q/qchem21722/lic.dat
                  Welcome to Q-Chem
     A Quantum Leap Into The Future Of Chemistry

 Y. Shao, L. Fusti-Molnar, Y. Jung, J. Kussmann, C. Ochsenfeld,
 S. T. Brown, A. T. B. Gilbert, L. V. Slipchenko,S. V. Levchenko,
 D. P. O'Neill, R. A. DiStasio Jr., R. C. Lochan, T. Wang,
 G. J. O. Beran, N. A. Besley, J. M. Herbert, C. Y. Lin,
 T. Van Voorhis, S. H. Chien, A. Sodt, R. P. Steele, 
 V. A. Rassolov, P. E. Maslen, P. P. Korambath, R. D. Adamson,
 B. Austin, J. Baker, E. F. C. Byrd, H. Dachsel, R. J. Doerksen,
 A. Dreuw, B. D. Dunietz, A. D. Dutoi, T. R. Furlani,
 S. R. Gwaltney, A. Heyden, S. Hirata, C.-P. Hsu, G. Kedziora,
 R. Z. Khaliullin, P. Klunzinger, A. M. Lee, M. S. Lee, W. Liang,
 I. Lotan, N. Nair, B. Peters, E. I. Proynov, P. A. Pieniazek, 
 Y. M. Rhee, J. Ritchie, E. Rosta, C. D. Sherrill, 
 A. C. Simmonett, J. E. Subotnik, H. L. Woodcock III,
 W. Zhang, A. T. Bell, A. K. Chakraborty, D. M. Chipman,
 F. J. Keil, A. Warshel, W. J. Hehre, H. F. Schaefer III,
 J. Kong, A. I. Krylov, P. M. W. Gill, M. Head-Gordon,
 Q-Chem, Version 3.1, Q-Chem, Inc., Pittsburgh, PA (2007).

 Additional authors for Version 3.1: 
 Z. Gan, Y. Zhao, N. E. Schultz, D. Truhlar, E. Epifanovsky and M. Oana.

 Additional authors for Version 3.2: 
 R. Baer, B. R. Brooks, D. Casanova, J.-D. Chai, C.-L. Cheng, 
 C. Cramer, D. Crittenden, A. Ghysels, G. Hawkins, E. G. Hohenstein, 
 C. Kelley, W. Kurlancheek, D. Liotard, E. Livshits, P. Manohar, 
 A. Marenich, D. Neuhauser, R. Olson, M. A. Rohrdanz, K. S. Thanthiriwatte, 
 A. J. W. Thom, V. Vanovschi, C. F. Williams, Q. Wu and Z.-Q. You. 


 Intel X86 Linux Version

 Q-chem begins on Mon Nov 14 19:35:51 2011  

 Parallel job on  1  processors
Processing $rem in /usr/local/qchem/config/preferences.

theFileMan(): MAXOPENFILES=974 MAX_SUB_FILE_NUM=16
Maximum size of a physical file is 2.0 GB, maximum size of a tmp-file is 32.0 GB


--------------------------------------------------------------
User input:
--------------------------------------------------------------

$molecule
1,3
C
C,1,CC
O,2,CO,1,OCC
X,3,0.97,2,107.,1,180.,0
X,2,1.,1,XCC,3,180.,0
H,2,CH,5,A1,1,90.,0
H,2,CH,5,A1,1,-90.,0
H,1,CH3,2,H3CC,3,180.,0
X,1,1.,2,YCC,3,0.,0
H,1,CH4,9,A2,2,90.,0
H,1,CH4,9,A2,2,-90.,0

CC=1.55380371
CO=1.3708761
OCC=106.53444686
XCC=122.81869313
CH=1.10383091
A1=54.76163191
CH3=1.09470615
H3CC=108.59935331
YCC=126.7607798
CH4=1.09293226
A2=54.53735592

$end

$comment
positive
$end

$xc_functional
   X HF 1.0
   X BNL 1.0
   C LYP 1.0
$end

$rem
SYMMETRY_DECOMPOSITION	0
exchange 		general
BASIS                   g3large
omega			390
separate_jk		true
mem_static              760
max_scf_cycles          200
scf_final_print         1
sym_ignore              true
$end

--------------------------------------------------------------
 Writing REM_CC_EA            8
 ----------------------------------------------------
       Standard Nuclear Orientation (Angstroms)
    I     Atom         X            Y            Z
 ----------------------------------------------------
    1      C       0.000000     0.000000     0.000000
    2      C       0.000000     0.000000     1.553804
    3      O       1.314189     0.000000     1.943944
    4      H      -0.535234     0.901564     1.898986
    5      H      -0.535234    -0.901564     1.898986
    6      H      -1.037532     0.000000    -0.349155
    7      H       0.507995     0.890187    -0.379486
    8      H       0.507995    -0.890187    -0.379486
 ----------------------------------------------------
 Nuclear Repulsion Energy =    74.3897211119 hartrees
 There are       13 alpha and       11 beta electrons
 Requested basis set is G3large
 There are 60 shells and 176 basis functions

Total QAlloc Memory Limit   2000 MB
Mega-Array Size       743 MB
MEM_STATIC part       760 MB

                       Distance Matrix (Angstroms)
             C (  1)   C (  2)   O (  3)   H (  4)   H (  5)   H (  6)
   C (  2)  1.553804
   O (  3)  2.346489  1.370876
   H (  4)  2.169202  1.103831  2.057961
   H (  5)  2.169202  1.103831  2.057961  1.803127
   H (  6)  1.094706  2.167423  3.284645  2.473713  2.473713
   H (  7)  1.092932  2.188173  2.615475  2.505971  3.080605  1.783817
   H (  8)  1.092932  2.188173  2.615475  3.080605  2.505971  1.783817
             H (  7)
   H (  8)  1.780373
 
 A cutoff of  1.0D-08 yielded   1760 shell pairs
 There are  15158 function pairs ( 18470 Cartesian)
Evaluating contribution to one-electron hamiltonian from nuclear
 Smallest overlap matrix eigenvalue = 1.37E-04
 Multipole matrices computed through 2nd order

  Scale SEOQF with 1.000000e-01/1.000000e-01/1.000000e-01

 Standard Electronic Orientation quadrupole field applied
 Nucleus-field energy     =    -0.0000000048 hartrees
 Guess from superposition of atomic densities
 Warning:  Energy on first SCF cycle will be non-variational
 An unrestricted hybrid HF-DFT SCF calculation will be
 performed using Pulay DIIS extrapolation
 Exchange:     1.0000 Hartree-Fock + 1.0000 BNL
 Correlation:  1.0000 LYP
 Using SG-1 standard quadrature grid
 SCF converges when DIIS error is below 1.0E-05
 Warning!  Inaccurate integrated density:
   Number of electrons =    24
   Numerical integral  =    24.999848811569
   Relative error      =     4.1660367149 %
 ---------------------------------------
  Cycle       Energy         DIIS Error
 ---------------------------------------
    1    -153.1649487677      3.12E-02
    2    -152.3041769069      3.18E-03
    3    -152.3566751355      1.76E-03
    4    -152.3707218856      4.47E-04
    5    -152.3744759876      1.88E-04
    6    -152.3759732826      1.72E-04
    7    -152.3766487280      7.69E-05
    8    -152.3770090198      3.86E-05
    9    -152.3770955841      2.13E-05
   10    -152.3771212049      1.08E-05
   11    -152.3771288634      4.67E-06 Convergence criterion met
 ---------------------------------------
 One-Electron    Energy =  -348.4157980771
 Total Coulomb   Energy =   140.7607909233
 Alpha Exchange  Energy =    -2.5667839456
 Beta  Exchange  Energy =    -2.1324542475
 DFT   Exchange  Energy =   -13.6300648572
 DFT Correlation Energy =    -0.7825397664
 Nuclear Repu.   Energy =    74.3897211070
 Nuclear Attr.   Energy =  -500.0169093347
 Kinetic         Energy =   151.6011112576
 <S^2> = 2.0101
 SCF time:  CPU 106.16 s  wall 108.49 s
 Final Alpha MO Eigenvalues
            1           2           3           4           5           6
    1 -19.2513733 -10.3332306 -10.2248293  -1.5136493  -1.1624577  -1.0283251
            7           8           9          10          11          12
    1  -0.9430731  -0.9254063  -0.8796483  -0.8001769  -0.7519471  -0.7430794
           13          14          15          16          17          18
    1  -0.7259926  -0.1262964  -0.0954535  -0.0935787  -0.0908012  -0.0541199
 Final Beta MO Eigenvalues
            1           2           3           4           5           6
    1 -19.2071065 -10.3316298 -10.2212214  -1.4371684  -1.1285550  -0.9961429
            7           8           9          10          11          12
    1  -0.8704672  -0.8700663  -0.7924096  -0.7425668  -0.7301324  -0.3857419
           13          14          15          16
    1  -0.3826867  -0.1246361  -0.0925090  -0.0916798
 Analysis of SCF Wavefunction
 
 --------------------------------------------------------------
                    Orbital Energies (a.u.)
 --------------------------------------------------------------
 
 Alpha MOs
 -- Occupied --
-19.251 -10.333 -10.225  -1.514  -1.162  -1.028  -0.943  -0.925
 -0.880  -0.800  -0.752  -0.743  -0.726
 -- Virtual --
 -0.126  -0.095  -0.094  -0.091  -0.054  -0.050  -0.044  -0.031
 -0.024   0.005   0.012   0.020   0.023   0.033   0.036   0.059
  0.080   0.081   0.084   0.121   0.142   0.151   0.182   0.208
  0.285   0.293   0.316   0.325   0.382   0.388   0.405   0.416
  0.422   0.445   0.451   0.487   0.549   0.581   0.634   0.639
  0.754   0.761   0.784   0.826   0.852   0.872   0.896   0.915
  0.952   0.994   1.009   1.012   1.027   1.096   1.109   1.150
  1.184   1.219   1.241   1.277   1.311   1.322   1.323   1.353
  1.454   1.494   1.500   1.527   1.762   1.855   2.091   2.231
  2.337   2.378   2.423   2.461   2.607   2.610   2.640   2.770
  2.794   2.857   2.876   2.901   2.997   3.035   3.047   3.091
  3.116   3.132   3.200   3.308   3.320   3.350   3.379   3.379
  3.437   3.524   3.621   3.682   3.770   3.804   3.823   3.829
  3.892   4.005   4.037   4.080   4.081   4.099   4.220   4.248
  4.330   4.347   4.386   4.458   4.636   4.671   4.735   4.736
  4.885   4.971   5.033   5.109   5.205   5.338   5.470   5.502
  5.614   5.622   6.223   6.437   6.455   6.907   6.918   7.225
 24.093  24.197  27.347  27.766  27.839  27.945  27.956  28.156
 40.613  40.651  40.717  40.751  40.897  40.934  40.969  41.003
 41.032  41.087  43.168  43.240  43.347  43.390  43.437  45.291
 45.312  45.864  49.634
 
 Beta MOs
 -- Occupied --
-19.207 -10.332 -10.221  -1.437  -1.129  -0.996  -0.870  -0.870
 -0.792  -0.743  -0.730
 -- Virtual --
 -0.386  -0.383  -0.125  -0.093  -0.092  -0.089  -0.051  -0.047
 -0.042  -0.029  -0.022   0.006   0.017   0.021   0.029   0.042
  0.045   0.064   0.085   0.086   0.094   0.128   0.148   0.161
  0.183   0.217   0.296   0.300   0.321   0.333   0.389   0.399
  0.411   0.425   0.430   0.449   0.462   0.495   0.551   0.587
  0.640   0.648   0.756   0.775   0.796   0.841   0.871   0.882
  0.920   0.949   0.962   1.011   1.018   1.022   1.031   1.108
  1.127   1.158   1.197   1.237   1.250   1.297   1.317   1.331
  1.335   1.365   1.467   1.534   1.539   1.566   1.794   1.890
  2.122   2.247   2.353   2.390   2.438   2.469   2.622   2.627
  2.655   2.783   2.799   2.868   2.886   2.915   3.008   3.050
  3.057   3.103   3.127   3.141   3.212   3.318   3.329   3.360
  3.388   3.392   3.447   3.534   3.641   3.697   3.782   3.819
  3.831   3.843   3.906   4.030   4.052   4.090   4.100   4.117
  4.241   4.265   4.341   4.359   4.396   4.475   4.734   4.764
  4.828   4.838   4.938   5.038   5.097   5.134   5.241   5.374
  5.484   5.513   5.664   5.669   6.262   6.584   6.600   7.000
  7.010   7.296  24.097  24.201  27.352  27.766  27.842  27.947
 27.959  28.160  40.618  40.653  40.720  40.758  40.900  40.936
 40.972  41.008  41.038  41.090  43.282  43.353  43.422  43.469
 43.509  45.352  45.371  45.897  49.688
 --------------------------------------------------------------
 
          Ground-State Mulliken Net Atomic Charges

     Atom                 Charge (a.u.)    Spin (a.u.)
  --------------------------------------------------------
      1 C                    -0.277170       0.153639
      2 C                    -0.188193       0.061178
      3 O                     0.339876       1.489355
      4 H                     0.269378       0.133346
      5 H                     0.269617       0.134071
      6 H                     0.190814       0.023148
      7 H                     0.197864       0.002722
      8 H                     0.197815       0.002541
  --------------------------------------------------------
  Sum of atomic charges =     1.000000
  Sum of spin   charges =     2.000000

 -----------------------------------------------------------------
                    Cartesian Multipole Moments
 -----------------------------------------------------------------
    Charge (ESU x 10^10)
                 4.8032
    Dipole Moment (Debye)
         X      -0.0220      Y      -0.0006      Z       5.6883
       Tot       5.6883
    Quadrupole Moments (Debye-Ang)
        XX     -14.7758     XY       0.0011     YY     -14.7126
        XZ       0.1018     YZ      -0.0022     ZZ      -5.4040
    Octapole Moments (Debye-Ang^2)
       XXX     -17.0778    XXY      -0.0003    XYY      -5.7801
       YYY      -0.0007    XXZ     -14.8882    XYZ       0.0033
       YYZ     -14.3445    XZZ      -5.3299    YZZ      -0.0016
       ZZZ     -31.7544
    Hexadecapole Moments (Debye-Ang^3)
      XXXX     -70.5310   XXXY       0.0009   XXYY     -15.1475
      XYYY       0.0017   YYYY     -24.1334   XXXZ     -30.3932
      XXYZ       0.0000   XYYZ     -13.9088   YYYZ      -0.0034
      XXZZ     -40.9278   XYZZ       0.0097   YYZZ     -32.1768
      XZZZ     -31.3546   YZZZ      -0.0021   ZZZZ    -176.4503
 -----------------------------------------------------------------
 Total job time:  108.77s(wall), 106.36s(cpu) 
 Mon Nov 14 19:37:39 2011

        *************************************************************
        *                                                           *
        *  Thank you very much for using Q-Chem.  Have a nice day.  *
        *                                                           *
        *************************************************************


0 sent ACK to 0 
now end server 0 ... 
