Process 0 of 1 is on cl087.stfx.acenet.ca - thread support 1
initial socket setup ...start
initial socket setup ...done 
now start server 0 ... 

cmd = /usr/bin/ssh clhead /usr/local/qchem/bin/get_hostid 848840299 > /scratch/tmp/5954164.1.short.q/qchem32724/lic.dat
                  Welcome to Q-Chem
     A Quantum Leap Into The Future Of Chemistry

 Y. Shao, L. Fusti-Molnar, Y. Jung, J. Kussmann, C. Ochsenfeld,
 S. T. Brown, A. T. B. Gilbert, L. V. Slipchenko,S. V. Levchenko,
 D. P. O'Neill, R. A. DiStasio Jr., R. C. Lochan, T. Wang,
 G. J. O. Beran, N. A. Besley, J. M. Herbert, C. Y. Lin,
 T. Van Voorhis, S. H. Chien, A. Sodt, R. P. Steele, 
 V. A. Rassolov, P. E. Maslen, P. P. Korambath, R. D. Adamson,
 B. Austin, J. Baker, E. F. C. Byrd, H. Dachsel, R. J. Doerksen,
 A. Dreuw, B. D. Dunietz, A. D. Dutoi, T. R. Furlani,
 S. R. Gwaltney, A. Heyden, S. Hirata, C.-P. Hsu, G. Kedziora,
 R. Z. Khaliullin, P. Klunzinger, A. M. Lee, M. S. Lee, W. Liang,
 I. Lotan, N. Nair, B. Peters, E. I. Proynov, P. A. Pieniazek, 
 Y. M. Rhee, J. Ritchie, E. Rosta, C. D. Sherrill, 
 A. C. Simmonett, J. E. Subotnik, H. L. Woodcock III,
 W. Zhang, A. T. Bell, A. K. Chakraborty, D. M. Chipman,
 F. J. Keil, A. Warshel, W. J. Hehre, H. F. Schaefer III,
 J. Kong, A. I. Krylov, P. M. W. Gill, M. Head-Gordon,
 Q-Chem, Version 3.1, Q-Chem, Inc., Pittsburgh, PA (2007).

 Additional authors for Version 3.1: 
 Z. Gan, Y. Zhao, N. E. Schultz, D. Truhlar, E. Epifanovsky and M. Oana.

 Additional authors for Version 3.2: 
 R. Baer, B. R. Brooks, D. Casanova, J.-D. Chai, C.-L. Cheng, 
 C. Cramer, D. Crittenden, A. Ghysels, G. Hawkins, E. G. Hohenstein, 
 C. Kelley, W. Kurlancheek, D. Liotard, E. Livshits, P. Manohar, 
 A. Marenich, D. Neuhauser, R. Olson, M. A. Rohrdanz, K. S. Thanthiriwatte, 
 A. J. W. Thom, V. Vanovschi, C. F. Williams, Q. Wu and Z.-Q. You. 


 Intel X86 Linux Version

 Q-chem begins on Wed Apr 24 14:58:04 2013  

 Parallel job on  1  processors
Processing $rem in /usr/local/qchem/config/preferences.

theFileMan(): MAXOPENFILES=974 MAX_SUB_FILE_NUM=16
Maximum size of a physical file is 2.0 GB, maximum size of a tmp-file is 32.0 GB


--------------------------------------------------------------
User input:
--------------------------------------------------------------

$molecule
-1,2
C
C,1,AA
H,1,AH,2,HAA
H,1,AH,2,HAA,3,120.,0
H,1,AH,2,HAA,3,-120.,0
H,2,AH,1,HAA,3,180.,0
H,2,AH,1,HAA,6,120.,0
H,2,AH,1,HAA,6,-120.,0

AA=1.53063863
AH=1.09618054
HAA=111.34246599

$end

$comment
negative
$end

$xc_functional
C PBE   1.00
X wPBE  1.00
$end

$rem
SYMMETRY_DECOMPOSITION	0
exchange 		general
LRC_DFT                 true
BASIS                   g3large
omega			400
mem_static              760
max_scf_cycles          200
scf_final_print         1
sym_ignore              true
$end

--------------------------------------------------------------
 Writing REM_CC_EA            8
 ----------------------------------------------------
       Standard Nuclear Orientation (Angstroms)
    I     Atom         X            Y            Z
 ----------------------------------------------------
    1      C       0.000000     0.000000     0.000000
    2      C       0.000000     0.000000     1.530639
    3      H       1.021006     0.000000    -0.398946
    4      H      -0.510503    -0.884217    -0.398946
    5      H      -0.510503     0.884217    -0.398946
    6      H      -1.021006     0.000000     1.929584
    7      H       0.510503    -0.884217     1.929584
    8      H       0.510503     0.884217     1.929584
 ----------------------------------------------------
 Nuclear Repulsion Energy =    42.1081376494 hartrees
 There are       10 alpha and        9 beta electrons
 Requested basis set is G3large
 There are 56 shells and 144 basis functions

Total QAlloc Memory Limit   2000 MB
Mega-Array Size       743 MB
MEM_STATIC part       760 MB

                       Distance Matrix (Angstroms)
             C (  1)   C (  2)   H (  3)   H (  4)   H (  5)   H (  6)
   C (  2)  1.530639
   H (  3)  1.096181  2.183060
   H (  4)  1.096181  2.183060  1.768435
   H (  5)  1.096181  2.183060  1.768435  1.768435
   H (  6)  2.183060  1.096181  3.097074  2.542539  2.542539
   H (  7)  2.183060  1.096181  2.542539  2.542539  3.097074  1.768435
   H (  8)  2.183060  1.096181  2.542539  3.097074  2.542539  1.768435
             H (  7)
   H (  8)  1.768435
 
 A cutoff of  1.0D-08 yielded   1574 shell pairs
 There are  10466 function pairs ( 12333 Cartesian)
Evaluating contribution to one-electron hamiltonian from nuclear
 Smallest overlap matrix eigenvalue = 1.40E-04
 Multipole matrices computed through 2nd order

  Scale SEOQF with 1.000000e-01/1.000000e-01/1.000000e-01

 Standard Electronic Orientation quadrupole field applied
 Nucleus-field energy     =    -0.0000000024 hartrees
 Guess from superposition of atomic densities
 Warning:  Energy on first SCF cycle will be non-variational
 Long-range K will be added via erf
 Coulomb attenuation parameter = 0.4 bohr**(-1)
 An unrestricted Kohn-Sham SCF calculation will be
 performed using Pulay DIIS extrapolation
 Exchange:  wPBE + LR-HF      Correlation:  PBE
 Using SG-1 standard quadrature grid
 SCF converges when DIIS error is below 1.0E-05
 Requested basis set is G3large
 There are 56 shells and 144 basis functions
 A cutoff of  1.0D-08 yielded   1574 shell pairs
 There are  10466 function pairs ( 12333 Cartesian)
 Warning!  Inaccurate integrated density:
   Number of electrons =    19
   Numerical integral  =    17.999782166973
   Relative error      =    -5.2643043844 %
 ---------------------------------------
  Cycle       Energy         DIIS Error
 ---------------------------------------
    1     -80.1425076702      3.39E-02
    2     -79.7072659772      3.68E-03
    3     -79.7463637936      2.51E-03
    4     -79.7636450624      2.87E-04
    5     -79.7651680097      9.00E-05
    6     -79.7654717233      2.80E-05
    7     -79.7655137289      8.22E-06 Convergence criterion met
 ---------------------------------------
 One-Electron    Energy =  -191.6541624827
 Total Coulomb   Energy =    82.8921277655
 Alpha Exchange  Energy =    -1.8244097309
 Beta  Exchange  Energy =    -1.7619245629
 DFT   Exchange  Energy =    -8.9569114031
 DFT Correlation Energy =    -0.5683709618
 Nuclear Repu.   Energy =    42.1081376470
 Nuclear Attr.   Energy =  -271.0086418435
 Kinetic         Energy =    79.3544793607
 <S^2> = 0.7501
 SCF time:  CPU 42.69 s  wall 43.33 s
 Final Alpha MO Eigenvalues
            1           2           3           4           5           6
    1  -9.9452785  -9.9451599  -0.7586309  -0.6136262  -0.4182176  -0.4182095
            7           8           9          10          11          12
    1  -0.3458274  -0.3156898  -0.3156780   0.0331676   0.1399941   0.1444697
           13          14          15
    1   0.1445810   0.1893146   0.1893291
 Final Beta MO Eigenvalues
            1           2           3           4           5           6
    1  -9.9448916  -9.9447746  -0.7578062  -0.6117077  -0.4176680  -0.4176619
            7           8           9          10          11          12
    1  -0.3440061  -0.3153013  -0.3152949   0.1395080   0.1514521   0.1600114
           13          14
    1   0.1600748   0.1904419
 Analysis of SCF Wavefunction
 
 --------------------------------------------------------------
                    Orbital Energies (a.u.)
 --------------------------------------------------------------
 
 Alpha MOs
 -- Occupied --
 -9.945  -9.945  -0.759  -0.614  -0.418  -0.418  -0.346  -0.316
 -0.316   0.033
 -- Virtual --
  0.140   0.144   0.145   0.189   0.189   0.248   0.254   0.254
  0.272   0.296   0.308   0.308   0.309   0.391   0.391   0.418
  0.418   0.467   0.498   0.504   0.650   0.650   0.668   0.668
  0.685   0.777   0.777   0.805   0.805   0.811   0.811   0.819
  0.888   0.902   0.968   1.019   1.044   1.044   1.097   1.165
  1.250   1.250   1.361   1.399   1.399   1.406   1.406   1.440
  1.440   1.446   1.567   1.624   1.632   1.632   1.676   1.676
  1.701   1.701   1.790   1.826   1.826   1.880   2.617   2.617
  2.781   2.791   2.804   2.804   3.012   3.061   3.061   3.153
  3.221   3.240   3.318   3.318   3.349   3.349   3.406   3.524
  3.524   3.600   3.653   3.653   3.776   3.776   3.796   3.796
  3.981   3.981   4.055   4.160   4.186   4.186   4.200   4.200
  4.272   4.441   4.482   4.482   4.497   4.497   4.505   4.686
  4.760   4.778   4.778   4.815   4.815   4.860   5.395   5.632
  5.841   5.841   5.959   5.959  24.290  24.438  27.780  28.223
 28.223  28.318  28.318  28.536  41.100  41.121  41.135  41.220
 41.348  41.354  41.381  41.397  41.431  41.433
 
 Beta MOs
 -- Occupied --
 -9.945  -9.945  -0.758  -0.612  -0.418  -0.418  -0.344  -0.315
 -0.315
 -- Virtual --
  0.140   0.151   0.160   0.160   0.190   0.190   0.245   0.249
  0.249   0.266   0.302   0.303   0.303   0.307   0.391   0.391
  0.418   0.418   0.465   0.490   0.502   0.647   0.648   0.667
  0.667   0.683   0.776   0.776   0.803   0.803   0.809   0.809
  0.819   0.885   0.899   0.968   1.019   1.045   1.045   1.098
  1.166   1.250   1.250   1.362   1.399   1.399   1.407   1.407
  1.440   1.440   1.447   1.567   1.624   1.632   1.632   1.677
  1.677   1.700   1.700   1.790   1.827   1.827   1.880   2.617
  2.617   2.781   2.791   2.805   2.805   3.012   3.061   3.061
  3.153   3.222   3.240   3.319   3.319   3.350   3.350   3.407
  3.525   3.525   3.602   3.653   3.653   3.776   3.776   3.796
  3.797   3.982   3.982   4.055   4.160   4.186   4.186   4.200
  4.200   4.273   4.441   4.483   4.483   4.498   4.498   4.504
  4.687   4.760   4.779   4.779   4.815   4.815   4.860   5.396
  5.632   5.841   5.841   5.959   5.959  24.290  24.438  27.781
 28.223  28.223  28.318  28.318  28.537  41.101  41.122  41.135
 41.221  41.348  41.354  41.381  41.398  41.431  41.433
 --------------------------------------------------------------
 
          Ground-State Mulliken Net Atomic Charges

     Atom                 Charge (a.u.)    Spin (a.u.)
  --------------------------------------------------------
      1 C                     1.481130      -1.676557
      2 C                     1.481405      -1.676823
      3 H                    -0.660615       0.725876
      4 H                    -0.655673       0.720608
      5 H                    -0.664853       0.730079
      6 H                    -0.660349       0.725604
      7 H                    -0.665116       0.730346
      8 H                    -0.655928       0.720867
  --------------------------------------------------------
  Sum of atomic charges =    -1.000000
  Sum of spin   charges =     1.000000

 -----------------------------------------------------------------
                    Cartesian Multipole Moments
 -----------------------------------------------------------------
    Charge (ESU x 10^10)
                -4.8032
    Dipole Moment (Debye)
         X      -0.0014      Y      -0.0001      Z      -3.6763
       Tot       3.6763
    Quadrupole Moments (Debye-Ang)
        XX     -42.9720     XY       0.0619     YY     -42.9710
        XZ       0.0141     YZ       0.0473     ZZ     -41.5526
    Octapole Moments (Debye-Ang^2)
       XXX      -0.0166    XXY      -0.0003    XYY      -0.0061
       YYY      -0.0008    XXZ     -32.8876    XYZ       0.0474
       YYZ     -32.8900    XZZ       0.0154    YZZ       0.0722
       ZZZ     -91.1004
    Hexadecapole Moments (Debye-Ang^3)
      XXXX    -371.4901   XXXY       0.5062   XXYY    -123.8213
      XYYY       0.5298   YYYY    -371.4446   XXXZ       4.5069
      XXYZ       0.1721   XYYZ      -4.3425   YYYZ       0.5164
      XXZZ    -157.5437   XYZZ       0.2449   YYZZ    -157.5391
      XZZZ       0.1427   YZZZ       0.5909   ZZZZ    -521.3087
 -----------------------------------------------------------------
 Total job time:  43.50s(wall), 42.84s(cpu) 
 Wed Apr 24 14:58:48 2013

        *************************************************************
        *                                                           *
        *  Thank you very much for using Q-Chem.  Have a nice day.  *
        *                                                           *
        *************************************************************


0 sent ACK to 0 
now end server 0 ... 
 
**********************************************************************
Job 2 of 3 
**********************************************************************
 
Process 0 of 1 is on cl087.stfx.acenet.ca - thread support 1
initial socket setup ...start
initial socket setup ...done 
now start server 0 ... 

cmd = /usr/bin/ssh clhead /usr/local/qchem/bin/get_hostid 823233517 > /scratch/tmp/5954164.1.short.q/qchem32724/lic.dat
                  Welcome to Q-Chem
     A Quantum Leap Into The Future Of Chemistry

 Y. Shao, L. Fusti-Molnar, Y. Jung, J. Kussmann, C. Ochsenfeld,
 S. T. Brown, A. T. B. Gilbert, L. V. Slipchenko,S. V. Levchenko,
 D. P. O'Neill, R. A. DiStasio Jr., R. C. Lochan, T. Wang,
 G. J. O. Beran, N. A. Besley, J. M. Herbert, C. Y. Lin,
 T. Van Voorhis, S. H. Chien, A. Sodt, R. P. Steele, 
 V. A. Rassolov, P. E. Maslen, P. P. Korambath, R. D. Adamson,
 B. Austin, J. Baker, E. F. C. Byrd, H. Dachsel, R. J. Doerksen,
 A. Dreuw, B. D. Dunietz, A. D. Dutoi, T. R. Furlani,
 S. R. Gwaltney, A. Heyden, S. Hirata, C.-P. Hsu, G. Kedziora,
 R. Z. Khaliullin, P. Klunzinger, A. M. Lee, M. S. Lee, W. Liang,
 I. Lotan, N. Nair, B. Peters, E. I. Proynov, P. A. Pieniazek, 
 Y. M. Rhee, J. Ritchie, E. Rosta, C. D. Sherrill, 
 A. C. Simmonett, J. E. Subotnik, H. L. Woodcock III,
 W. Zhang, A. T. Bell, A. K. Chakraborty, D. M. Chipman,
 F. J. Keil, A. Warshel, W. J. Hehre, H. F. Schaefer III,
 J. Kong, A. I. Krylov, P. M. W. Gill, M. Head-Gordon,
 Q-Chem, Version 3.1, Q-Chem, Inc., Pittsburgh, PA (2007).

 Additional authors for Version 3.1: 
 Z. Gan, Y. Zhao, N. E. Schultz, D. Truhlar, E. Epifanovsky and M. Oana.

 Additional authors for Version 3.2: 
 R. Baer, B. R. Brooks, D. Casanova, J.-D. Chai, C.-L. Cheng, 
 C. Cramer, D. Crittenden, A. Ghysels, G. Hawkins, E. G. Hohenstein, 
 C. Kelley, W. Kurlancheek, D. Liotard, E. Livshits, P. Manohar, 
 A. Marenich, D. Neuhauser, R. Olson, M. A. Rohrdanz, K. S. Thanthiriwatte, 
 A. J. W. Thom, V. Vanovschi, C. F. Williams, Q. Wu and Z.-Q. You. 


 Intel X86 Linux Version

 Q-chem begins on Wed Apr 24 14:58:51 2013  

 Parallel job on  1  processors
Processing $rem in /usr/local/qchem/config/preferences.

theFileMan(): MAXOPENFILES=974 MAX_SUB_FILE_NUM=16
Maximum size of a physical file is 2.0 GB, maximum size of a tmp-file is 32.0 GB


--------------------------------------------------------------
User input:
--------------------------------------------------------------

$molecule
0,1
C
C,1,AA
H,1,AH,2,HAA
H,1,AH,2,HAA,3,120.,0
H,1,AH,2,HAA,3,-120.,0
H,2,AH,1,HAA,3,180.,0
H,2,AH,1,HAA,6,120.,0
H,2,AH,1,HAA,6,-120.,0

AA=1.53063863
AH=1.09618054
HAA=111.34246599

$end

$comment
neutral
$end

$xc_functional
C PBE   1.00
X wPBE  1.00
$end


$rem
SYMMETRY_DECOMPOSITION	0
LRC_DFT                 true
exchange 		general
BASIS                   g3large
omega			400
mem_static              760
max_scf_cycles          200
scf_final_print         1
sym_ignore              true
$end

--------------------------------------------------------------
 Writing REM_CC_EA            8
 ----------------------------------------------------
       Standard Nuclear Orientation (Angstroms)
    I     Atom         X            Y            Z
 ----------------------------------------------------
    1      C       0.000000     0.000000     0.000000
    2      C       0.000000     0.000000     1.530639
    3      H       1.021006     0.000000    -0.398946
    4      H      -0.510503    -0.884217    -0.398946
    5      H      -0.510503     0.884217    -0.398946
    6      H      -1.021006     0.000000     1.929584
    7      H       0.510503    -0.884217     1.929584
    8      H       0.510503     0.884217     1.929584
 ----------------------------------------------------
 Nuclear Repulsion Energy =    42.1081376494 hartrees
 There are        9 alpha and        9 beta electrons
 Requested basis set is G3large
 There are 56 shells and 144 basis functions

Total QAlloc Memory Limit   2000 MB
Mega-Array Size       743 MB
MEM_STATIC part       760 MB

                       Distance Matrix (Angstroms)
             C (  1)   C (  2)   H (  3)   H (  4)   H (  5)   H (  6)
   C (  2)  1.530639
   H (  3)  1.096181  2.183060
   H (  4)  1.096181  2.183060  1.768435
   H (  5)  1.096181  2.183060  1.768435  1.768435
   H (  6)  2.183060  1.096181  3.097074  2.542539  2.542539
   H (  7)  2.183060  1.096181  2.542539  2.542539  3.097074  1.768435
   H (  8)  2.183060  1.096181  2.542539  3.097074  2.542539  1.768435
             H (  7)
   H (  8)  1.768435
 
 A cutoff of  1.0D-08 yielded   1574 shell pairs
 There are  10466 function pairs ( 12333 Cartesian)
Evaluating contribution to one-electron hamiltonian from nuclear
 Smallest overlap matrix eigenvalue = 1.40E-04
 Multipole matrices computed through 2nd order

  Scale SEOQF with 1.000000e-01/1.000000e-01/1.000000e-01

 Standard Electronic Orientation quadrupole field applied
 Nucleus-field energy     =    -0.0000000024 hartrees
 Guess from superposition of atomic densities
 Warning:  Energy on first SCF cycle will be non-variational
 Long-range K will be added via erf
 Coulomb attenuation parameter = 0.4 bohr**(-1)
 A restricted Kohn-Sham SCF calculation will be
 performed using Pulay DIIS extrapolation
 Exchange:  wPBE + LR-HF      Correlation:  PBE
 Using SG-1 standard quadrature grid
 SCF converges when DIIS error is below 1.0E-05
 Requested basis set is G3large
 There are 56 shells and 144 basis functions
 A cutoff of  1.0D-08 yielded   1574 shell pairs
 There are  10466 function pairs ( 12333 Cartesian)
 ---------------------------------------
  Cycle       Energy         DIIS Error
 ---------------------------------------
    1     -80.1425076702      3.39E-02
    2     -79.7737786920      3.15E-03
    3     -79.7941432699      1.76E-03
    4     -79.8016144945      2.76E-04
    5     -79.8018778416      4.01E-05
    6     -79.8018881819      7.58E-06 Convergence criterion met
 ---------------------------------------
 One-Electron    Energy =  -189.1285823188
 Total Coulomb   Energy =    80.2583324959
 Alpha Exchange  Energy =    -1.7632288476
 Beta  Exchange  Energy =    -1.7632288476
 DFT   Exchange  Energy =    -8.9517569047
 DFT Correlation Energy =    -0.5615614061
 Nuclear Repu.   Energy =    42.1081376470
 Nuclear Attr.   Energy =  -268.4188486512
 Kinetic         Energy =    79.2902663324
 SCF time:  CPU 28.69 s  wall 29.84 s
 Final Alpha MO Eigenvalues
            1           2           3           4           5           6
    1 -10.0886217 -10.0885043  -0.9005681  -0.7549278  -0.5605349  -0.5605117
            7           8           9          10          11          12
    1  -0.4864956  -0.4579910  -0.4579663   0.0414431   0.0576120   0.0649298
           13          14
    1   0.0649327   0.0957712
 Analysis of SCF Wavefunction
 
 --------------------------------------------------------------
                    Orbital Energies (a.u.)
 --------------------------------------------------------------
 
 Alpha MOs
 -- Occupied --
-10.089 -10.089  -0.901  -0.755  -0.561  -0.561  -0.486  -0.458
 -0.458
 -- Virtual --
  0.041   0.058   0.065   0.065   0.096   0.096   0.139   0.145
  0.145   0.168   0.184   0.196   0.196   0.198   0.259   0.259
  0.287   0.287   0.337   0.374   0.377   0.516   0.516   0.535
  0.535   0.553   0.638   0.638   0.668   0.668   0.675   0.675
  0.686   0.753   0.767   0.830   0.880   0.903   0.903   0.955
  1.024   1.109   1.109   1.222   1.259   1.259   1.266   1.266
  1.300   1.300   1.306   1.429   1.486   1.491   1.492   1.536
  1.536   1.562   1.562   1.652   1.686   1.686   1.742   2.476
  2.476   2.640   2.649   2.663   2.663   2.871   2.920   2.920
  3.011   3.079   3.097   3.176   3.177   3.207   3.207   3.264
  3.382   3.382   3.460   3.511   3.511   3.634   3.634   3.654
  3.654   3.839   3.839   3.913   4.018   4.044   4.044   4.057
  4.058   4.130   4.299   4.340   4.340   4.355   4.355   4.362
  4.545   4.617   4.636   4.636   4.673   4.673   4.718   5.253
  5.490   5.698   5.698   5.816   5.816  24.146  24.294  27.637
 28.080  28.080  28.174  28.174  28.393  40.957  40.978  40.991
 41.077  41.205  41.211  41.238  41.254  41.287  41.290
 --------------------------------------------------------------
 
          Ground-State Mulliken Net Atomic Charges

     Atom                 Charge (a.u.)
  ----------------------------------------
      1 C                    -0.204707
      2 C                    -0.204706
      3 H                     0.068247
      4 H                     0.068345
      5 H                     0.068113
      6 H                     0.068249
      7 H                     0.068114
      8 H                     0.068344
  ----------------------------------------
  Sum of atomic charges =     0.000000

 -----------------------------------------------------------------
                    Cartesian Multipole Moments
 -----------------------------------------------------------------
    Charge (ESU x 10^10)
                 0.0000
    Dipole Moment (Debye)
         X       0.0000      Y       0.0000      Z       0.0000
       Tot       0.0000
    Quadrupole Moments (Debye-Ang)
        XX     -14.8050     XY       0.0009     YY     -14.8050
        XZ       0.0001     YZ       0.0009     ZZ     -15.4454
    Octapole Moments (Debye-Ang^2)
       XXX       0.0000    XXY       0.0000    XYY       0.0000
       YYY       0.0000    XXZ     -11.3306    XYZ       0.0007
       YYZ     -11.3305    XZZ       0.0002    YZZ       0.0014
       ZZZ     -35.4619
    Hexadecapole Moments (Debye-Ang^3)
      XXXX     -29.9789   XXXY       0.0023   XXYY      -9.9929
      XYYY       0.0028   YYYY     -29.9784   XXXZ      -1.6243
      XXYZ       0.0012   XYYZ       1.6247   YYYZ       0.0035
      XXZZ     -28.3430   XYZZ       0.0028   YYZZ     -28.3427
      XZZZ       0.0004   YZZZ       0.0049   ZZZZ    -150.4264
 -----------------------------------------------------------------
 Total job time:  29.98s(wall), 28.82s(cpu) 
 Wed Apr 24 14:59:21 2013

        *************************************************************
        *                                                           *
        *  Thank you very much for using Q-Chem.  Have a nice day.  *
        *                                                           *
        *************************************************************


0 sent ACK to 0 
now end server 0 ... 
 
**********************************************************************
Job 3 of 3 
**********************************************************************
 
Process 0 of 1 is on cl087.stfx.acenet.ca - thread support 1
initial socket setup ...start
initial socket setup ...done 
now start server 0 ... 

cmd = /usr/bin/ssh clhead /usr/local/qchem/bin/get_hostid 440344600 > /scratch/tmp/5954164.1.short.q/qchem32724/lic.dat
                  Welcome to Q-Chem
     A Quantum Leap Into The Future Of Chemistry

 Y. Shao, L. Fusti-Molnar, Y. Jung, J. Kussmann, C. Ochsenfeld,
 S. T. Brown, A. T. B. Gilbert, L. V. Slipchenko,S. V. Levchenko,
 D. P. O'Neill, R. A. DiStasio Jr., R. C. Lochan, T. Wang,
 G. J. O. Beran, N. A. Besley, J. M. Herbert, C. Y. Lin,
 T. Van Voorhis, S. H. Chien, A. Sodt, R. P. Steele, 
 V. A. Rassolov, P. E. Maslen, P. P. Korambath, R. D. Adamson,
 B. Austin, J. Baker, E. F. C. Byrd, H. Dachsel, R. J. Doerksen,
 A. Dreuw, B. D. Dunietz, A. D. Dutoi, T. R. Furlani,
 S. R. Gwaltney, A. Heyden, S. Hirata, C.-P. Hsu, G. Kedziora,
 R. Z. Khaliullin, P. Klunzinger, A. M. Lee, M. S. Lee, W. Liang,
 I. Lotan, N. Nair, B. Peters, E. I. Proynov, P. A. Pieniazek, 
 Y. M. Rhee, J. Ritchie, E. Rosta, C. D. Sherrill, 
 A. C. Simmonett, J. E. Subotnik, H. L. Woodcock III,
 W. Zhang, A. T. Bell, A. K. Chakraborty, D. M. Chipman,
 F. J. Keil, A. Warshel, W. J. Hehre, H. F. Schaefer III,
 J. Kong, A. I. Krylov, P. M. W. Gill, M. Head-Gordon,
 Q-Chem, Version 3.1, Q-Chem, Inc., Pittsburgh, PA (2007).

 Additional authors for Version 3.1: 
 Z. Gan, Y. Zhao, N. E. Schultz, D. Truhlar, E. Epifanovsky and M. Oana.

 Additional authors for Version 3.2: 
 R. Baer, B. R. Brooks, D. Casanova, J.-D. Chai, C.-L. Cheng, 
 C. Cramer, D. Crittenden, A. Ghysels, G. Hawkins, E. G. Hohenstein, 
 C. Kelley, W. Kurlancheek, D. Liotard, E. Livshits, P. Manohar, 
 A. Marenich, D. Neuhauser, R. Olson, M. A. Rohrdanz, K. S. Thanthiriwatte, 
 A. J. W. Thom, V. Vanovschi, C. F. Williams, Q. Wu and Z.-Q. You. 


 Intel X86 Linux Version

 Q-chem begins on Wed Apr 24 14:59:24 2013  

 Parallel job on  1  processors
Processing $rem in /usr/local/qchem/config/preferences.

theFileMan(): MAXOPENFILES=974 MAX_SUB_FILE_NUM=16
Maximum size of a physical file is 2.0 GB, maximum size of a tmp-file is 32.0 GB


--------------------------------------------------------------
User input:
--------------------------------------------------------------

$molecule
1,2
C
C,1,AA
H,1,AH,2,HAA
H,1,AH,2,HAA,3,120.,0
H,1,AH,2,HAA,3,-120.,0
H,2,AH,1,HAA,3,180.,0
H,2,AH,1,HAA,6,120.,0
H,2,AH,1,HAA,6,-120.,0

AA=1.53063863
AH=1.09618054
HAA=111.34246599

$end

$comment
positive
$end

$xc_functional
C PBE   1.00
X wPBE  1.00
$end

$rem
SYMMETRY_DECOMPOSITION	0
LRC_DFT                 true
exchange 		general
BASIS                   g3large
omega			400
mem_static              760
max_scf_cycles          200
scf_final_print         1
sym_ignore              true
$end

--------------------------------------------------------------
 Writing REM_CC_EA            8
 ----------------------------------------------------
       Standard Nuclear Orientation (Angstroms)
    I     Atom         X            Y            Z
 ----------------------------------------------------
    1      C       0.000000     0.000000     0.000000
    2      C       0.000000     0.000000     1.530639
    3      H       1.021006     0.000000    -0.398946
    4      H      -0.510503    -0.884217    -0.398946
    5      H      -0.510503     0.884217    -0.398946
    6      H      -1.021006     0.000000     1.929584
    7      H       0.510503    -0.884217     1.929584
    8      H       0.510503     0.884217     1.929584
 ----------------------------------------------------
 Nuclear Repulsion Energy =    42.1081376494 hartrees
 There are        9 alpha and        8 beta electrons
 Requested basis set is G3large
 There are 56 shells and 144 basis functions

Total QAlloc Memory Limit   2000 MB
Mega-Array Size       743 MB
MEM_STATIC part       760 MB

                       Distance Matrix (Angstroms)
             C (  1)   C (  2)   H (  3)   H (  4)   H (  5)   H (  6)
   C (  2)  1.530639
   H (  3)  1.096181  2.183060
   H (  4)  1.096181  2.183060  1.768435
   H (  5)  1.096181  2.183060  1.768435  1.768435
   H (  6)  2.183060  1.096181  3.097074  2.542539  2.542539
   H (  7)  2.183060  1.096181  2.542539  2.542539  3.097074  1.768435
   H (  8)  2.183060  1.096181  2.542539  3.097074  2.542539  1.768435
             H (  7)
   H (  8)  1.768435
 
 A cutoff of  1.0D-08 yielded   1574 shell pairs
 There are  10466 function pairs ( 12333 Cartesian)
Evaluating contribution to one-electron hamiltonian from nuclear
 Smallest overlap matrix eigenvalue = 1.40E-04
 Multipole matrices computed through 2nd order

  Scale SEOQF with 1.000000e-01/1.000000e-01/1.000000e-01

 Standard Electronic Orientation quadrupole field applied
 Nucleus-field energy     =    -0.0000000024 hartrees
 Guess from superposition of atomic densities
 Warning:  Energy on first SCF cycle will be non-variational
 Long-range K will be added via erf
 Coulomb attenuation parameter = 0.4 bohr**(-1)
 An unrestricted Kohn-Sham SCF calculation will be
 performed using Pulay DIIS extrapolation
 Exchange:  wPBE + LR-HF      Correlation:  PBE
 Using SG-1 standard quadrature grid
 SCF converges when DIIS error is below 1.0E-05
 Requested basis set is G3large
 There are 56 shells and 144 basis functions
 A cutoff of  1.0D-08 yielded   1574 shell pairs
 There are  10466 function pairs ( 12333 Cartesian)
 Warning!  Inaccurate integrated density:
   Number of electrons =    17
   Numerical integral  =    17.999782166973
   Relative error      =     5.8810715704 %
 ---------------------------------------
  Cycle       Energy         DIIS Error
 ---------------------------------------
    1     -80.1425076702      3.39E-02
    2     -79.3166534977      2.23E-03
    3     -79.3399600766      4.32E-04
    4     -79.3410185111      1.62E-04
    5     -79.3411148416      4.04E-05
    6     -79.3411376959      1.07E-05
    7     -79.3411452913      8.89E-06 Convergence criterion met
 ---------------------------------------
 One-Electron    Energy =  -183.7851153286
 Total Coulomb   Energy =    75.0020498533
 Alpha Exchange  Energy =    -1.7781035471
 Beta  Exchange  Energy =    -1.5535600880
 DFT   Exchange  Energy =    -8.8064996067
 DFT Correlation Energy =    -0.5280542211
 Nuclear Repu.   Energy =    42.1081376470
 Nuclear Attr.   Energy =  -262.7594943787
 Kinetic         Energy =    78.9743790500
 <S^2> = 0.7564
 SCF time:  CPU 40.96 s  wall 41.77 s
 Final Alpha MO Eigenvalues
            1           2           3           4           5           6
    1 -10.3945992 -10.3944822  -1.2046003  -1.0631225  -0.8805392  -0.8457834
            7           8           9          10          11          12
    1  -0.7884165  -0.7788364  -0.7422278  -0.1184249  -0.0886432  -0.0820874
           13          14
    1  -0.0767405  -0.0516564
 Final Beta MO Eigenvalues
            1           2           3           4           5           6
    1 -10.3912950 -10.3910954  -1.1845918  -1.0241396  -0.8366186  -0.7974816
            7           8           9          10          11          12
    1  -0.7726303  -0.7312138  -0.4636985  -0.1164122  -0.0861903  -0.0792799
           13
    1  -0.0762697
 Analysis of SCF Wavefunction
 
 --------------------------------------------------------------
                    Orbital Energies (a.u.)
 --------------------------------------------------------------
 
 Alpha MOs
 -- Occupied --
-10.395 -10.394  -1.205  -1.063  -0.881  -0.846  -0.788  -0.779
 -0.742
 -- Virtual --
 -0.118  -0.089  -0.082  -0.077  -0.052  -0.049  -0.033  -0.022
 -0.021   0.007   0.015   0.016   0.024   0.033   0.038   0.047
  0.075   0.083   0.105   0.159   0.187   0.276   0.291   0.301
  0.304   0.321   0.376   0.377   0.422   0.427   0.438   0.440
  0.448   0.516   0.532   0.583   0.637   0.639   0.656   0.699
  0.768   0.844   0.850   0.969   1.004   1.004   1.008   1.017
  1.038   1.038   1.047   1.169   1.228   1.229   1.235   1.272
  1.286   1.295   1.309   1.395   1.418   1.428   1.483   2.171
  2.196   2.340   2.357   2.362   2.385   2.581   2.615   2.637
  2.708   2.785   2.794   2.868   2.886   2.905   2.920   2.966
  3.068   3.094   3.169   3.206   3.223   3.333   3.337   3.351
  3.359   3.529   3.549   3.611   3.714   3.727   3.753   3.756
  3.759   3.831   3.995   4.022   4.041   4.050   4.052   4.069
  4.249   4.312   4.325   4.347   4.358   4.386   4.424   4.949
  5.188   5.376   5.406   5.496   5.524  23.841  23.989  27.333
 27.768  27.777  27.863  27.872  28.090  40.651  40.669  40.682
 40.771  40.897  40.902  40.931  40.947  40.980  40.982
 
 Beta MOs
 -- Occupied --
-10.391 -10.391  -1.185  -1.024  -0.837  -0.797  -0.773  -0.731
 -- Virtual --
 -0.464  -0.116  -0.086  -0.079  -0.076  -0.048  -0.047  -0.032
 -0.020  -0.020   0.010   0.017   0.029   0.030   0.037   0.048
  0.051   0.087   0.089   0.112   0.165   0.193   0.293   0.297
  0.311   0.313   0.324   0.388   0.395   0.439   0.442   0.444
  0.446   0.451   0.529   0.544   0.586   0.643   0.655   0.661
  0.712   0.782   0.853   0.854   0.980   1.015   1.016   1.018
  1.023   1.044   1.051   1.055   1.174   1.240   1.242   1.245
  1.288   1.291   1.311   1.313   1.406   1.434   1.434   1.495
  2.200   2.209   2.370   2.375   2.384   2.391   2.589   2.634
  2.642   2.729   2.793   2.816   2.894   2.897   2.926   2.931
  2.978   3.097   3.105   3.179   3.230   3.232   3.350   3.356
  3.370   3.375   3.554   3.557   3.631   3.735   3.757   3.768
  3.773   3.776   3.847   4.020   4.057   4.069   4.069   4.073
  4.085   4.264   4.338   4.349   4.353   4.390   4.399   4.443
  4.974   5.205   5.411   5.422   5.530   5.541  23.845  23.993
 27.335  27.778  27.779  27.873  27.874  28.091  40.654  40.676
 40.690  40.775  40.903  40.909  40.935  40.952  40.985  40.988
 --------------------------------------------------------------
 
          Ground-State Mulliken Net Atomic Charges

     Atom                 Charge (a.u.)    Spin (a.u.)
  --------------------------------------------------------
      1 C                    -0.109873       0.166944
      2 C                    -0.109876       0.166943
      3 H                     0.205329       0.116946
      4 H                     0.160439       0.016838
      5 H                     0.244106       0.199272
      6 H                     0.205331       0.116946
      7 H                     0.244105       0.199274
      8 H                     0.160440       0.016837
  --------------------------------------------------------
  Sum of atomic charges =     1.000000
  Sum of spin   charges =     1.000000

 -----------------------------------------------------------------
                    Cartesian Multipole Moments
 -----------------------------------------------------------------
    Charge (ESU x 10^10)
                 4.8032
    Dipole Moment (Debye)
         X       0.0000      Y       0.0000      Z       3.6760
       Tot       3.6760
    Quadrupole Moments (Debye-Ang)
        XX     -10.1721     XY      -0.9078     YY     -10.1699
        XZ      -0.1228     YZ      -0.8472     ZZ      -3.6028
    Octapole Moments (Debye-Ang^2)
       XXX       0.0000    XXY       0.0000    XYY       0.0000
       YYY       0.0000    XXZ      -7.7849    XYZ      -0.6948
       YYZ      -7.7832    XZZ      -0.1880    YZZ      -1.2968
       ZZZ     -12.5779
    Hexadecapole Moments (Debye-Ang^3)
      XXXX     -19.3559   XXXY      -0.7865   XXYY      -6.4556
      XYYY      -0.9195   YYYY     -19.3810   XXXZ      -3.5024
      XXYZ      -0.4020   XYYZ       3.3336   YYYZ      -1.2126
      XXZZ     -16.9344   XYZZ      -1.9112   YYZZ     -16.9587
      XZZZ      -0.5681   YZZZ      -2.9841   ZZZZ     -88.8161
 -----------------------------------------------------------------
 Total job time:  41.92s(wall), 41.10s(cpu) 
 Wed Apr 24 15:00:06 2013

        *************************************************************
        *                                                           *
        *  Thank you very much for using Q-Chem.  Have a nice day.  *
        *                                                           *
        *************************************************************


0 sent ACK to 0 
now end server 0 ... 
