Process 0 of 1 is on cl197.stfx.acenet.ca - thread support 1
initial socket setup ...start
initial socket setup ...done 
now start server 0 ... 

cmd = /usr/bin/ssh clhead /usr/local/qchem/bin/get_hostid 1084264485 > /scratch/tmp/6065052.1.medium.q/qchem1177/lic.dat
                  Welcome to Q-Chem
     A Quantum Leap Into The Future Of Chemistry

 Y. Shao, L. Fusti-Molnar, Y. Jung, J. Kussmann, C. Ochsenfeld,
 S. T. Brown, A. T. B. Gilbert, L. V. Slipchenko,S. V. Levchenko,
 D. P. O'Neill, R. A. DiStasio Jr., R. C. Lochan, T. Wang,
 G. J. O. Beran, N. A. Besley, J. M. Herbert, C. Y. Lin,
 T. Van Voorhis, S. H. Chien, A. Sodt, R. P. Steele, 
 V. A. Rassolov, P. E. Maslen, P. P. Korambath, R. D. Adamson,
 B. Austin, J. Baker, E. F. C. Byrd, H. Dachsel, R. J. Doerksen,
 A. Dreuw, B. D. Dunietz, A. D. Dutoi, T. R. Furlani,
 S. R. Gwaltney, A. Heyden, S. Hirata, C.-P. Hsu, G. Kedziora,
 R. Z. Khaliullin, P. Klunzinger, A. M. Lee, M. S. Lee, W. Liang,
 I. Lotan, N. Nair, B. Peters, E. I. Proynov, P. A. Pieniazek, 
 Y. M. Rhee, J. Ritchie, E. Rosta, C. D. Sherrill, 
 A. C. Simmonett, J. E. Subotnik, H. L. Woodcock III,
 W. Zhang, A. T. Bell, A. K. Chakraborty, D. M. Chipman,
 F. J. Keil, A. Warshel, W. J. Hehre, H. F. Schaefer III,
 J. Kong, A. I. Krylov, P. M. W. Gill, M. Head-Gordon,
 Q-Chem, Version 3.1, Q-Chem, Inc., Pittsburgh, PA (2007).

 Additional authors for Version 3.1: 
 Z. Gan, Y. Zhao, N. E. Schultz, D. Truhlar, E. Epifanovsky and M. Oana.

 Additional authors for Version 3.2: 
 R. Baer, B. R. Brooks, D. Casanova, J.-D. Chai, C.-L. Cheng, 
 C. Cramer, D. Crittenden, A. Ghysels, G. Hawkins, E. G. Hohenstein, 
 C. Kelley, W. Kurlancheek, D. Liotard, E. Livshits, P. Manohar, 
 A. Marenich, D. Neuhauser, R. Olson, M. A. Rohrdanz, K. S. Thanthiriwatte, 
 A. J. W. Thom, V. Vanovschi, C. F. Williams, Q. Wu and Z.-Q. You. 


 Intel X86 Linux Version

 Q-chem begins on Mon Jul  8 16:55:34 2013  

 Parallel job on  1  processors
Processing $rem in /usr/local/qchem/config/preferences.

theFileMan(): MAXOPENFILES=974 MAX_SUB_FILE_NUM=16
Maximum size of a physical file is 2.0 GB, maximum size of a tmp-file is 32.0 GB


--------------------------------------------------------------
User input:
--------------------------------------------------------------

$molecule
-1,2
C          0.00000        0.00000        0.00556
N          0.00000        0.00000        1.14270
H          0.00000        0.00000       -1.06160
$end

$comment
negative
$end

$xc_functional
C PBE   1.00
X wPBE  1.00
$end

$rem
SYMMETRY_DECOMPOSITION	0
exchange 		general
LRC_DFT                 true
BASIS                   g3large
omega			550
mem_static              760
max_scf_cycles          200
scf_final_print         1
sym_ignore              true
$end

--------------------------------------------------------------
 Writing REM_CC_EA            3
 ----------------------------------------------------
       Standard Nuclear Orientation (Angstroms)
    I     Atom         X            Y            Z
 ----------------------------------------------------
    1      C       0.000000     0.000000     0.005560
    2      N       0.000000     0.000000     1.142700
    3      H       0.000000     0.000000    -1.061600
 ----------------------------------------------------
 Nuclear Repulsion Energy =    24.2007434348 hartrees
 There are        8 alpha and        7 beta electrons
 Requested basis set is G3large
 There are 26 shells and 94 basis functions

Total QAlloc Memory Limit   2000 MB
Mega-Array Size       743 MB
MEM_STATIC part       760 MB

                       Distance Matrix (Angstroms)
             C (  1)   N (  2)
   N (  2)  1.137140
   H (  3)  1.067160  2.204300
 
 A cutoff of  1.0D-08 yielded    346 shell pairs
 There are   4554 function pairs (  5821 Cartesian)
Evaluating contribution to one-electron hamiltonian from nuclear
 Smallest overlap matrix eigenvalue = 4.78E-04
 Multipole matrices computed through 2nd order

  Scale SEOQF with 1.000000e-01/1.000000e-01/1.000000e-01

 Standard Electronic Orientation quadrupole field applied
 Nucleus-field energy     =    -0.0000000011 hartrees
 Guess from superposition of atomic densities
 Warning:  Energy on first SCF cycle will be non-variational
 Long-range K will be added via erf
 Coulomb attenuation parameter = 0.55 bohr**(-1)
 An unrestricted Kohn-Sham SCF calculation will be
 performed using Pulay DIIS extrapolation
 Exchange:  wPBE + LR-HF      Correlation:  PBE
 Using SG-1 standard quadrature grid
 SCF converges when DIIS error is below 1.0E-05
 Requested basis set is G3large
 There are 26 shells and 94 basis functions
 A cutoff of  1.0D-08 yielded    346 shell pairs
 There are   4554 function pairs (  5821 Cartesian)
 Warning!  Inaccurate integrated density:
   Number of electrons =    15
   Numerical integral  =    14.000041603855
   Relative error      =    -6.6663893076 %
 ---------------------------------------
  Cycle       Energy         DIIS Error
 ---------------------------------------
    1     -93.5538689405      4.65E-02
    2     -93.1312126093      1.03E-02
    3     -93.0725228739      1.53E-02
    4     -93.3225006682      3.61E-03
    5     -93.3412529745      1.90E-03
    6     -93.3480475938      2.88E-04
    7     -93.3486556589      1.65E-04
    8     -93.3488182672      5.49E-05
    9     -93.3488402254      4.71E-06 Convergence criterion met
 ---------------------------------------
 One-Electron    Energy =  -175.5027111180
 Total Coulomb   Energy =    70.6115234840
 Alpha Exchange  Energy =    -1.8879726353
 Beta  Exchange  Energy =    -1.7954914314
 DFT   Exchange  Energy =    -8.5245960169
 DFT Correlation Energy =    -0.4503359415
 Nuclear Repu.   Energy =    24.2007434337
 Nuclear Attr.   Energy =  -268.6520733198
 Kinetic         Energy =    93.1493622018
 <S^2> = 0.7502
 SCF time:  CPU 15.38 s  wall 15.85 s
 Final Alpha MO Eigenvalues
            1           2           3           4           5           6
    1 -14.1524686 -10.0899058  -0.9862196  -0.6191255  -0.4095204  -0.3758713
            7           8           9          10          11          12
    1  -0.3757808   0.0205930   0.1850967   0.2028907   0.2029301   0.2742928
           13
    1   0.2743813
 Final Beta MO Eigenvalues
            1           2           3           4           5           6
    1 -14.1527278 -10.0889401  -0.9862452  -0.6145124  -0.4093031  -0.3758333
            7           8           9          10          11          12
    1  -0.3757325   0.1739539   0.2136762   0.2137085   0.2159412   0.2758400
 Analysis of SCF Wavefunction
 
 --------------------------------------------------------------
                    Orbital Energies (a.u.)
 --------------------------------------------------------------
 
 Alpha MOs
 -- Occupied --
-14.152 -10.090  -0.986  -0.619  -0.410  -0.376  -0.376   0.021
 -- Virtual --
  0.185   0.203   0.203   0.274   0.274   0.286   0.329   0.373
  0.374   0.389   0.452   0.626   0.782   0.782   0.831   0.891
  0.891   0.923   0.975   0.975   1.009   1.068   1.068   1.220
  1.433   1.450   1.450   1.480   1.480   1.751   2.030   2.030
  2.086   2.306   2.740   2.988   2.988   3.051   3.051   3.121
  3.121   3.182   3.182   3.289   3.508   3.508   3.582   3.582
  3.713   3.958   3.958   4.074   4.074   4.527   4.609   4.609
  4.651   4.694   4.694   5.092   5.092   5.393   5.393   5.499
  6.300   6.301   6.551   7.494  24.605  27.495  27.495  28.993
 36.308  37.742  37.742  38.546  40.678  40.786  40.860  40.889
 40.889  41.049  41.304  41.519  41.519  41.833
 
 Beta MOs
 -- Occupied --
-14.153 -10.089  -0.986  -0.615  -0.409  -0.376  -0.376
 -- Virtual --
  0.174   0.214   0.214   0.216   0.276   0.276   0.297   0.343
  0.377   0.377   0.394   0.455   0.624   0.784   0.784   0.831
  0.891   0.891   0.922   0.975   0.975   1.009   1.068   1.068
  1.220   1.433   1.449   1.449   1.481   1.481   1.751   2.029
  2.030   2.086   2.306   2.740   2.989   2.989   3.052   3.052
  3.122   3.122   3.184   3.184   3.289   3.511   3.511   3.582
  3.582   3.714   3.958   3.958   4.073   4.073   4.528   4.609
  4.609   4.651   4.694   4.694   5.090   5.090   5.393   5.393
  5.499   6.301   6.301   6.552   7.494  24.606  27.496  27.496
 28.994  36.308  37.742  37.742  38.546  40.677  40.785  40.860
 40.889  40.889  41.050  41.305  41.519  41.519  41.834
 --------------------------------------------------------------
 
          Ground-State Mulliken Net Atomic Charges

     Atom                 Charge (a.u.)    Spin (a.u.)
  --------------------------------------------------------
      1 C                     2.387160      -2.275975
      2 N                    -0.372680       0.059127
      3 H                    -3.014479       3.216848
  --------------------------------------------------------
  Sum of atomic charges =    -1.000000
  Sum of spin   charges =     1.000000

 -----------------------------------------------------------------
                    Cartesian Multipole Moments
 -----------------------------------------------------------------
    Charge (ESU x 10^10)
                -4.8032
    Dipole Moment (Debye)
         X      -0.0040      Y      -0.0027      Z       8.1086
       Tot       8.1086
    Quadrupole Moments (Debye-Ang)
        XX     -26.1012     XY       0.0000     YY     -26.1012
        XZ       0.0058     YZ       0.0039     ZZ     -54.0247
    Octapole Moments (Debye-Ang^2)
       XXX      -0.0311    XXY      -0.0070    XYY      -0.0104
       YYY      -0.0209    XXZ      23.9490    XYZ       0.0001
       YYZ      23.9490    XZZ      -0.0152    YZZ      -0.0103
       ZZZ     115.6568
    Hexadecapole Moments (Debye-Ang^3)
      XXXX    -133.1034   XXXY       0.0000   XXYY     -44.3678
      XYYY       0.0000   YYYY    -133.1033   XXXZ       0.0343
      XXYZ       0.0077   XYYZ       0.0114   YYYZ       0.0230
      XXZZ    -113.8613   XYZZ       0.0001   YYZZ    -113.8613
      XZZZ       0.0394   YZZZ       0.0264   ZZZZ    -634.4815
 -----------------------------------------------------------------
 Total job time:  15.96s(wall), 15.48s(cpu) 
 Mon Jul  8 16:55:50 2013

        *************************************************************
        *                                                           *
        *  Thank you very much for using Q-Chem.  Have a nice day.  *
        *                                                           *
        *************************************************************


0 sent ACK to 0 
now end server 0 ... 
 
**********************************************************************
Job 2 of 3 
**********************************************************************
 
Process 0 of 1 is on cl197.stfx.acenet.ca - thread support 1
initial socket setup ...start
initial socket setup ...done 
now start server 0 ... 

cmd = /usr/bin/ssh clhead /usr/local/qchem/bin/get_hostid 2053610721 > /scratch/tmp/6065052.1.medium.q/qchem1177/lic.dat
                  Welcome to Q-Chem
     A Quantum Leap Into The Future Of Chemistry

 Y. Shao, L. Fusti-Molnar, Y. Jung, J. Kussmann, C. Ochsenfeld,
 S. T. Brown, A. T. B. Gilbert, L. V. Slipchenko,S. V. Levchenko,
 D. P. O'Neill, R. A. DiStasio Jr., R. C. Lochan, T. Wang,
 G. J. O. Beran, N. A. Besley, J. M. Herbert, C. Y. Lin,
 T. Van Voorhis, S. H. Chien, A. Sodt, R. P. Steele, 
 V. A. Rassolov, P. E. Maslen, P. P. Korambath, R. D. Adamson,
 B. Austin, J. Baker, E. F. C. Byrd, H. Dachsel, R. J. Doerksen,
 A. Dreuw, B. D. Dunietz, A. D. Dutoi, T. R. Furlani,
 S. R. Gwaltney, A. Heyden, S. Hirata, C.-P. Hsu, G. Kedziora,
 R. Z. Khaliullin, P. Klunzinger, A. M. Lee, M. S. Lee, W. Liang,
 I. Lotan, N. Nair, B. Peters, E. I. Proynov, P. A. Pieniazek, 
 Y. M. Rhee, J. Ritchie, E. Rosta, C. D. Sherrill, 
 A. C. Simmonett, J. E. Subotnik, H. L. Woodcock III,
 W. Zhang, A. T. Bell, A. K. Chakraborty, D. M. Chipman,
 F. J. Keil, A. Warshel, W. J. Hehre, H. F. Schaefer III,
 J. Kong, A. I. Krylov, P. M. W. Gill, M. Head-Gordon,
 Q-Chem, Version 3.1, Q-Chem, Inc., Pittsburgh, PA (2007).

 Additional authors for Version 3.1: 
 Z. Gan, Y. Zhao, N. E. Schultz, D. Truhlar, E. Epifanovsky and M. Oana.

 Additional authors for Version 3.2: 
 R. Baer, B. R. Brooks, D. Casanova, J.-D. Chai, C.-L. Cheng, 
 C. Cramer, D. Crittenden, A. Ghysels, G. Hawkins, E. G. Hohenstein, 
 C. Kelley, W. Kurlancheek, D. Liotard, E. Livshits, P. Manohar, 
 A. Marenich, D. Neuhauser, R. Olson, M. A. Rohrdanz, K. S. Thanthiriwatte, 
 A. J. W. Thom, V. Vanovschi, C. F. Williams, Q. Wu and Z.-Q. You. 


 Intel X86 Linux Version

 Q-chem begins on Mon Jul  8 16:55:53 2013  

 Parallel job on  1  processors
Processing $rem in /usr/local/qchem/config/preferences.

theFileMan(): MAXOPENFILES=974 MAX_SUB_FILE_NUM=16
Maximum size of a physical file is 2.0 GB, maximum size of a tmp-file is 32.0 GB


--------------------------------------------------------------
User input:
--------------------------------------------------------------

$molecule
0,1
C          0.00000        0.00000        0.00556
N          0.00000        0.00000        1.14270
H          0.00000        0.00000       -1.06160
$end

$comment
neutral
$end

$xc_functional
C PBE   1.00
X wPBE  1.00
$end


$rem
SYMMETRY_DECOMPOSITION	0
LRC_DFT                 true
exchange 		general
BASIS                   g3large
omega			550
mem_static              760
max_scf_cycles          200
scf_final_print         1
sym_ignore              true
$end

--------------------------------------------------------------
 Writing REM_CC_EA            3
 ----------------------------------------------------
       Standard Nuclear Orientation (Angstroms)
    I     Atom         X            Y            Z
 ----------------------------------------------------
    1      C       0.000000     0.000000     0.005560
    2      N       0.000000     0.000000     1.142700
    3      H       0.000000     0.000000    -1.061600
 ----------------------------------------------------
 Nuclear Repulsion Energy =    24.2007434348 hartrees
 There are        7 alpha and        7 beta electrons
 Requested basis set is G3large
 There are 26 shells and 94 basis functions

Total QAlloc Memory Limit   2000 MB
Mega-Array Size       743 MB
MEM_STATIC part       760 MB

                       Distance Matrix (Angstroms)
             C (  1)   N (  2)
   N (  2)  1.137140
   H (  3)  1.067160  2.204300
 
 A cutoff of  1.0D-08 yielded    346 shell pairs
 There are   4554 function pairs (  5821 Cartesian)
Evaluating contribution to one-electron hamiltonian from nuclear
 Smallest overlap matrix eigenvalue = 4.78E-04
 Multipole matrices computed through 2nd order

  Scale SEOQF with 1.000000e-01/1.000000e-01/1.000000e-01

 Standard Electronic Orientation quadrupole field applied
 Nucleus-field energy     =    -0.0000000011 hartrees
 Guess from superposition of atomic densities
 Warning:  Energy on first SCF cycle will be non-variational
 Long-range K will be added via erf
 Coulomb attenuation parameter = 0.55 bohr**(-1)
 A restricted Kohn-Sham SCF calculation will be
 performed using Pulay DIIS extrapolation
 Exchange:  wPBE + LR-HF      Correlation:  PBE
 Using SG-1 standard quadrature grid
 SCF converges when DIIS error is below 1.0E-05
 Requested basis set is G3large
 There are 26 shells and 94 basis functions
 A cutoff of  1.0D-08 yielded    346 shell pairs
 There are   4554 function pairs (  5821 Cartesian)
 ---------------------------------------
  Cycle       Energy         DIIS Error
 ---------------------------------------
    1     -93.5538689405      4.65E-02
    2     -93.3113022224      7.04E-03
    3     -93.3097154668      8.51E-03
    4     -93.3727234255      6.42E-04
    5     -93.3742650949      2.96E-04
    6     -93.3747094716      1.19E-04
    7     -93.3747719187      3.21E-05
    8     -93.3747801557      6.52E-06 Convergence criterion met
 ---------------------------------------
 One-Electron    Energy =  -173.4775300425
 Total Coulomb   Energy =    68.4514913705
 Alpha Exchange  Energy =    -1.7958895071
 Beta  Exchange  Energy =    -1.7958895071
 DFT   Exchange  Energy =    -8.5153289055
 DFT Correlation Energy =    -0.4423769977
 Nuclear Repu.   Energy =    24.2007434337
 Nuclear Attr.   Energy =  -266.5506178719
 Kinetic         Energy =    93.0730878294
 SCF time:  CPU 12.37 s  wall 12.62 s
 Final Alpha MO Eigenvalues
            1           2           3           4           5           6
    1 -14.3005162 -10.2393310  -1.1308912  -0.7808966  -0.5473446  -0.5196630
            7           8           9          10          11          12
    1  -0.5196556   0.0351495   0.0800720   0.0800740   0.0840703   0.1454600
 Analysis of SCF Wavefunction
 
 --------------------------------------------------------------
                    Orbital Energies (a.u.)
 --------------------------------------------------------------
 
 Alpha MOs
 -- Occupied --
-14.301 -10.239  -1.131  -0.781  -0.547  -0.520  -0.520
 -- Virtual --
  0.035   0.080   0.080   0.084   0.145   0.145   0.163   0.194
  0.254   0.254   0.267   0.326   0.479   0.637   0.637   0.673
  0.743   0.743   0.780   0.810   0.810   0.879   0.937   0.937
  1.069   1.295   1.311   1.311   1.320   1.320   1.573   1.885
  1.885   1.938   2.172   2.578   2.842   2.842   2.903   2.903
  2.975   2.975   3.025   3.025   3.139   3.359   3.359   3.432
  3.432   3.553   3.817   3.817   3.927   3.927   4.378   4.466
  4.466   4.500   4.530   4.530   4.948   4.948   5.253   5.253
  5.350   6.152   6.152   6.401   7.338  24.456  27.346  27.346
 28.843  36.160  37.594  37.594  38.398  40.529  40.637  40.711
 40.741  40.741  40.900  41.156  41.369  41.369  41.684
 --------------------------------------------------------------
 
          Ground-State Mulliken Net Atomic Charges

     Atom                 Charge (a.u.)
  ----------------------------------------
      1 C                     0.051558
      2 N                    -0.207280
      3 H                     0.155722
  ----------------------------------------
  Sum of atomic charges =     0.000000

 -----------------------------------------------------------------
                    Cartesian Multipole Moments
 -----------------------------------------------------------------
    Charge (ESU x 10^10)
                 0.0000
    Dipole Moment (Debye)
         X       0.0000      Y       0.0000      Z      -3.1891
       Tot       3.1891
    Quadrupole Moments (Debye-Ang)
        XX     -11.6489     XY       0.0000     YY     -11.6489
        XZ       0.0000     YZ       0.0000     ZZ     -12.7316
    Octapole Moments (Debye-Ang^2)
       XXX       0.0000    XXY       0.0000    XYY       0.0000
       YYY       0.0000    XXZ      -6.1989    XYZ       0.0000
       YYZ      -6.1989    XZZ       0.0000    YZZ       0.0000
       ZZZ     -24.6663
    Hexadecapole Moments (Debye-Ang^3)
      XXXX     -11.6195   XXXY      -0.0001   XXYY      -3.8731
      XYYY      -0.0001   YYYY     -11.6194   XXXZ       0.0000
      XXYZ       0.0000   XYYZ       0.0000   YYYZ       0.0000
      XXZZ     -12.2200   XYZZ       0.0000   YYZZ     -12.2200
      XZZZ       0.0001   YZZZ       0.0000   ZZZZ     -66.3876
 -----------------------------------------------------------------
 Total job time:  12.72s(wall), 12.46s(cpu) 
 Mon Jul  8 16:56:05 2013

        *************************************************************
        *                                                           *
        *  Thank you very much for using Q-Chem.  Have a nice day.  *
        *                                                           *
        *************************************************************


0 sent ACK to 0 
now end server 0 ... 
 
**********************************************************************
Job 3 of 3 
**********************************************************************
 
Process 0 of 1 is on cl197.stfx.acenet.ca - thread support 1
initial socket setup ...start
initial socket setup ...done 
now start server 0 ... 

cmd = /usr/bin/ssh clhead /usr/local/qchem/bin/get_hostid 402375063 > /scratch/tmp/6065052.1.medium.q/qchem1177/lic.dat
                  Welcome to Q-Chem
     A Quantum Leap Into The Future Of Chemistry

 Y. Shao, L. Fusti-Molnar, Y. Jung, J. Kussmann, C. Ochsenfeld,
 S. T. Brown, A. T. B. Gilbert, L. V. Slipchenko,S. V. Levchenko,
 D. P. O'Neill, R. A. DiStasio Jr., R. C. Lochan, T. Wang,
 G. J. O. Beran, N. A. Besley, J. M. Herbert, C. Y. Lin,
 T. Van Voorhis, S. H. Chien, A. Sodt, R. P. Steele, 
 V. A. Rassolov, P. E. Maslen, P. P. Korambath, R. D. Adamson,
 B. Austin, J. Baker, E. F. C. Byrd, H. Dachsel, R. J. Doerksen,
 A. Dreuw, B. D. Dunietz, A. D. Dutoi, T. R. Furlani,
 S. R. Gwaltney, A. Heyden, S. Hirata, C.-P. Hsu, G. Kedziora,
 R. Z. Khaliullin, P. Klunzinger, A. M. Lee, M. S. Lee, W. Liang,
 I. Lotan, N. Nair, B. Peters, E. I. Proynov, P. A. Pieniazek, 
 Y. M. Rhee, J. Ritchie, E. Rosta, C. D. Sherrill, 
 A. C. Simmonett, J. E. Subotnik, H. L. Woodcock III,
 W. Zhang, A. T. Bell, A. K. Chakraborty, D. M. Chipman,
 F. J. Keil, A. Warshel, W. J. Hehre, H. F. Schaefer III,
 J. Kong, A. I. Krylov, P. M. W. Gill, M. Head-Gordon,
 Q-Chem, Version 3.1, Q-Chem, Inc., Pittsburgh, PA (2007).

 Additional authors for Version 3.1: 
 Z. Gan, Y. Zhao, N. E. Schultz, D. Truhlar, E. Epifanovsky and M. Oana.

 Additional authors for Version 3.2: 
 R. Baer, B. R. Brooks, D. Casanova, J.-D. Chai, C.-L. Cheng, 
 C. Cramer, D. Crittenden, A. Ghysels, G. Hawkins, E. G. Hohenstein, 
 C. Kelley, W. Kurlancheek, D. Liotard, E. Livshits, P. Manohar, 
 A. Marenich, D. Neuhauser, R. Olson, M. A. Rohrdanz, K. S. Thanthiriwatte, 
 A. J. W. Thom, V. Vanovschi, C. F. Williams, Q. Wu and Z.-Q. You. 


 Intel X86 Linux Version

 Q-chem begins on Mon Jul  8 16:56:08 2013  

 Parallel job on  1  processors
Processing $rem in /usr/local/qchem/config/preferences.

theFileMan(): MAXOPENFILES=974 MAX_SUB_FILE_NUM=16
Maximum size of a physical file is 2.0 GB, maximum size of a tmp-file is 32.0 GB


--------------------------------------------------------------
User input:
--------------------------------------------------------------

$molecule
1,2
C          0.00000        0.00000        0.00556
N          0.00000        0.00000        1.14270
H          0.00000        0.00000       -1.06160
$end

$comment
positive
$end

$xc_functional
C PBE   1.00
X wPBE  1.00
$end

$rem
SYMMETRY_DECOMPOSITION	0
LRC_DFT                 true
exchange 		general
BASIS                   g3large
omega			550
mem_static              760
max_scf_cycles          200
scf_final_print         1
sym_ignore              true
$end

--------------------------------------------------------------
 Writing REM_CC_EA            3
 ----------------------------------------------------
       Standard Nuclear Orientation (Angstroms)
    I     Atom         X            Y            Z
 ----------------------------------------------------
    1      C       0.000000     0.000000     0.005560
    2      N       0.000000     0.000000     1.142700
    3      H       0.000000     0.000000    -1.061600
 ----------------------------------------------------
 Nuclear Repulsion Energy =    24.2007434348 hartrees
 There are        7 alpha and        6 beta electrons
 Requested basis set is G3large
 There are 26 shells and 94 basis functions

Total QAlloc Memory Limit   2000 MB
Mega-Array Size       743 MB
MEM_STATIC part       760 MB

                       Distance Matrix (Angstroms)
             C (  1)   N (  2)
   N (  2)  1.137140
   H (  3)  1.067160  2.204300
 
 A cutoff of  1.0D-08 yielded    346 shell pairs
 There are   4554 function pairs (  5821 Cartesian)
Evaluating contribution to one-electron hamiltonian from nuclear
 Smallest overlap matrix eigenvalue = 4.78E-04
 Multipole matrices computed through 2nd order

  Scale SEOQF with 1.000000e-01/1.000000e-01/1.000000e-01

 Standard Electronic Orientation quadrupole field applied
 Nucleus-field energy     =    -0.0000000011 hartrees
 Guess from superposition of atomic densities
 Warning:  Energy on first SCF cycle will be non-variational
 Long-range K will be added via erf
 Coulomb attenuation parameter = 0.55 bohr**(-1)
 An unrestricted Kohn-Sham SCF calculation will be
 performed using Pulay DIIS extrapolation
 Exchange:  wPBE + LR-HF      Correlation:  PBE
 Using SG-1 standard quadrature grid
 SCF converges when DIIS error is below 1.0E-05
 Requested basis set is G3large
 There are 26 shells and 94 basis functions
 A cutoff of  1.0D-08 yielded    346 shell pairs
 There are   4554 function pairs (  5821 Cartesian)
 Warning!  Inaccurate integrated density:
   Number of electrons =    13
   Numerical integral  =    14.000041603855
   Relative error      =     7.6926277220 %
 ---------------------------------------
  Cycle       Energy         DIIS Error
 ---------------------------------------
    1     -93.5538689405      4.65E-02
    2     -92.8150320202      5.52E-03
    3     -92.8636092387      2.30E-03
    4     -92.8681082487      7.21E-04
    5     -92.8689424689      4.12E-04
    6     -92.8692485761      1.13E-04
    7     -92.8693768787      5.01E-05
    8     -92.8693988368      5.28E-06 Convergence criterion met
 ---------------------------------------
 One-Electron    Energy =  -167.7723860552
 Total Coulomb   Energy =    62.9385242849
 Alpha Exchange  Energy =    -1.8229666458
 Beta  Exchange  Energy =    -1.5791263614
 DFT   Exchange  Energy =    -8.4340352991
 DFT Correlation Energy =    -0.4001521940
 Nuclear Repu.   Energy =    24.2007434337
 Nuclear Attr.   Energy =  -260.7185080526
 Kinetic         Energy =    92.9461219974
 <S^2> = 0.7523
 SCF time:  CPU 13.85 s  wall 14.14 s
 Final Alpha MO Eigenvalues
            1           2           3           4           5           6
    1 -14.7370750 -10.6795250  -1.5822303  -1.1375402  -0.9696885  -0.9334897
            7           8           9          10          11          12
    1  -0.9196238  -0.2612405  -0.2279446  -0.1290000  -0.1187268  -0.0764401
 Final Beta MO Eigenvalues
            1           2           3           4           5           6
    1 -14.7258020 -10.6727365  -1.5200907  -1.1253259  -0.9139032  -0.9036276
            7           8           9          10          11
    1  -0.4913156  -0.2185787  -0.1715906  -0.1265307  -0.1126382
 Analysis of SCF Wavefunction
 
 --------------------------------------------------------------
                    Orbital Energies (a.u.)
 --------------------------------------------------------------
 
 Alpha MOs
 -- Occupied --
-14.737 -10.680  -1.582  -1.138  -0.970  -0.933  -0.920
 -- Virtual --
 -0.261  -0.228  -0.129  -0.119  -0.076  -0.070  -0.025  -0.003
  0.036   0.044   0.068   0.109   0.235   0.320   0.339   0.395
  0.396   0.421   0.492   0.500   0.515   0.581   0.620   0.642
  0.749   0.948   0.950   0.976   0.980   1.002   1.269   1.546
  1.567   1.588   1.835   2.257   2.422   2.453   2.503   2.504
  2.562   2.563   2.649   2.671   2.758   2.950   2.950   3.013
  3.045   3.193   3.404   3.405   3.506   3.544   3.979   4.058
  4.059   4.121   4.166   4.184   4.512   4.513   4.840   4.873
  4.988   5.722   5.757   6.004   6.950  24.020  26.898  26.912
 28.410  35.724  37.144  37.164  37.968  40.082  40.190  40.277
 40.293  40.313  40.454  40.710  40.923  40.935  41.250
 
 Beta MOs
 -- Occupied --
-14.726 -10.673  -1.520  -1.125  -0.914  -0.904
 -- Virtual --
 -0.491  -0.219  -0.172  -0.127  -0.113  -0.069  -0.067  -0.023
 -0.001   0.046   0.048   0.071   0.113   0.240   0.342   0.350
  0.423   0.428   0.431   0.505   0.517   0.517   0.591   0.647
  0.653   0.760   0.980   0.982   0.988   1.007   1.008   1.275
  1.570   1.570   1.609   1.847   2.262   2.462   2.468   2.537
  2.538   2.594   2.598   2.673   2.674   2.773   2.984   2.988
  3.051   3.052   3.203   3.449   3.450   3.554   3.563   4.002
  4.091   4.095   4.136   4.185   4.186   4.569   4.576   4.880
  4.885   4.998   5.765   5.770   6.016   6.960  24.029  26.916
 26.918  28.414  35.739  37.172  37.177  37.974  40.109  40.218
 40.284  40.315  40.318  40.468  40.724  40.937  40.938  41.256
 --------------------------------------------------------------
 
          Ground-State Mulliken Net Atomic Charges

     Atom                 Charge (a.u.)    Spin (a.u.)
  --------------------------------------------------------
      1 C                     0.459935       0.424641
      2 N                     0.272034       0.588625
      3 H                     0.268031      -0.013266
  --------------------------------------------------------
  Sum of atomic charges =     1.000000
  Sum of spin   charges =     1.000000

 -----------------------------------------------------------------
                    Cartesian Multipole Moments
 -----------------------------------------------------------------
    Charge (ESU x 10^10)
                 4.8032
    Dipole Moment (Debye)
         X       0.0103      Y      -0.0103      Z      -0.9054
       Tot       0.9055
    Quadrupole Moments (Debye-Ang)
        XX      -8.8344     XY      -0.6733     YY      -8.8342
        XZ       0.0182     YZ      -0.0182     ZZ      -6.9370
    Octapole Moments (Debye-Ang^2)
       XXX       0.0093    XXY      -0.0030    XYY       0.0030
       YYY      -0.0093    XXZ      -4.7576    XYZ      -0.3745
       YYZ      -4.7574    XZZ       0.0323    YZZ      -0.0323
       ZZZ     -18.2315
    Hexadecapole Moments (Debye-Ang^3)
      XXXX      -6.8694   XXXY      -0.4611   XXYY      -2.2901
      XYYY      -0.4611   YYYY      -6.8691   XXXZ       0.0134
      XXYZ      -0.0044   XYYZ       0.0044   YYYZ      -0.0134
      XXZZ      -8.9335   XYZZ      -0.4817   YYZZ      -8.9333
      XZZZ       0.0500   YZZZ      -0.0500   ZZZZ     -47.3355
 -----------------------------------------------------------------
 Total job time:  14.24s(wall), 13.94s(cpu) 
 Mon Jul  8 16:56:23 2013

        *************************************************************
        *                                                           *
        *  Thank you very much for using Q-Chem.  Have a nice day.  *
        *                                                           *
        *************************************************************


0 sent ACK to 0 
now end server 0 ... 
