Process 0 of 1 is on cl132 - thread support 1
initial socket setup ...start
initial socket setup ...done 
now start server 0 ... 

cmd = /usr/bin/ssh clhead /usr/local/qchem/bin/get_hostid 1008257540 > /tmp/1603041.1.medium.q/qchem1744/lic.dat

cmd = /usr/bin/ssh clhead /usr/local/qchem/bin/get_hostid 1008257540 > /tmp/1603041.1.medium.q/qchem1744/lic.dat

cmd = /usr/bin/ssh clhead /usr/local/qchem/bin/get_hostid 1008257540 > /tmp/1603041.1.medium.q/qchem1744/lic.dat

cmd = /usr/bin/ssh clhead /usr/local/qchem/bin/get_hostid 1008257540 > /tmp/1603041.1.medium.q/qchem1744/lic.dat

cmd = /usr/bin/ssh clhead /usr/local/qchem/bin/get_hostid 1008257540 > /tmp/1603041.1.medium.q/qchem1744/lic.dat
                  Welcome to Q-Chem
     A Quantum Leap Into The Future Of Chemistry

 Y. Shao, L. Fusti-Molnar, Y. Jung, J. Kussmann, C. Ochsenfeld,
 S. T. Brown, A. T. B. Gilbert, L. V. Slipchenko,S. V. Levchenko,
 D. P. O'Neill, R. A. DiStasio Jr., R. C. Lochan, T. Wang,
 G. J. O. Beran, N. A. Besley, J. M. Herbert, C. Y. Lin,
 T. Van Voorhis, S. H. Chien, A. Sodt, R. P. Steele, 
 V. A. Rassolov, P. E. Maslen, P. P. Korambath, R. D. Adamson,
 B. Austin, J. Baker, E. F. C. Byrd, H. Dachsel, R. J. Doerksen,
 A. Dreuw, B. D. Dunietz, A. D. Dutoi, T. R. Furlani,
 S. R. Gwaltney, A. Heyden, S. Hirata, C.-P. Hsu, G. Kedziora,
 R. Z. Khaliullin, P. Klunzinger, A. M. Lee, M. S. Lee, W. Liang,
 I. Lotan, N. Nair, B. Peters, E. I. Proynov, P. A. Pieniazek, 
 Y. M. Rhee, J. Ritchie, E. Rosta, C. D. Sherrill, 
 A. C. Simmonett, J. E. Subotnik, H. L. Woodcock III,
 W. Zhang, A. T. Bell, A. K. Chakraborty, D. M. Chipman,
 F. J. Keil, A. Warshel, W. J. Hehre, H. F. Schaefer III,
 J. Kong, A. I. Krylov, P. M. W. Gill, M. Head-Gordon,
 Q-Chem, Version 3.1, Q-Chem, Inc., Pittsburgh, PA (2007).

 Additional authors for Version 3.1: 
 Z. Gan, Y. Zhao, N. E. Schultz, D. Truhlar, E. Epifanovsky and M. Oana.

 Additional authors for Version 3.2: 
 R. Baer, B. R. Brooks, D. Casanova, J.-D. Chai, C.-L. Cheng, 
 C. Cramer, D. Crittenden, A. Ghysels, G. Hawkins, E. G. Hohenstein, 
 C. Kelley, W. Kurlancheek, D. Liotard, E. Livshits, P. Manohar, 
 A. Marenich, D. Neuhauser, R. Olson, M. A. Rohrdanz, K. S. Thanthiriwatte, 
 A. J. W. Thom, V. Vanovschi, C. F. Williams, Q. Wu and Z.-Q. You. 


 Intel X86 Linux Version

 Q-chem begins on Tue Mar 25 23:18:24 2014  

 Parallel job on  1  processors
Processing $rem in /usr/local/qchem/config/preferences.

theFileMan(): MAXOPENFILES=974 MAX_SUB_FILE_NUM=16
Maximum size of a physical file is 2.0 GB, maximum size of a tmp-file is 32.0 GB


--------------------------------------------------------------
User input:
--------------------------------------------------------------

$molecule
-1,2
Li         0.00000        0.00000        0.01317
H          0.00000        0.00000        1.60790
$end

$comment
negative
$end

$xc_functional
C PBE   1.00
X wPBE  1.00
$end

$rem
SYMMETRY_DECOMPOSITION	0
exchange 		general
LRC_DFT                 true
BASIS                   g3large
omega			300
mem_static              760
max_scf_cycles          200
scf_final_print         1
sym_ignore              true
$end

--------------------------------------------------------------
 Writing REM_CC_EA            2
 ----------------------------------------------------
       Standard Nuclear Orientation (Angstroms)
    I     Atom         X            Y            Z
 ----------------------------------------------------
    1      Li      0.000000     0.000000     0.013170
    2      H       0.000000     0.000000     1.607900
 ----------------------------------------------------
 Nuclear Repulsion Energy =     0.9954861528 hartrees
 There are        3 alpha and        2 beta electrons
 Requested basis set is G3large
 There are 16 shells and 52 basis functions

Total QAlloc Memory Limit   2000 MB
Mega-Array Size       743 MB
MEM_STATIC part       760 MB

                       Distance Matrix (Angstroms)
             Li(  1)
   H (  2)  1.594730
 
 A cutoff of  1.0D-08 yielded    136 shell pairs
 There are   1462 function pairs (  1834 Cartesian)
Evaluating contribution to one-electron hamiltonian from nuclear
 Smallest overlap matrix eigenvalue = 3.55E-03
 Multipole matrices computed through 2nd order

  Scale SEOQF with 1.000000e-02/1.000000e-02/1.000000e-02

 Standard Electronic Orientation quadrupole field applied
 Guess from superposition of atomic densities
 Warning:  Energy on first SCF cycle will be non-variational
 Long-range K will be added via erf
 Coulomb attenuation parameter = 0.3 bohr**(-1)
 An unrestricted Kohn-Sham SCF calculation will be
 performed using Pulay DIIS extrapolation
 Exchange:  wPBE + LR-HF      Correlation:  PBE
 Using SG-1 standard quadrature grid
 SCF converges when DIIS error is below 1.0E-05
 Requested basis set is G3large
 There are 16 shells and 52 basis functions
 A cutoff of  1.0D-08 yielded    136 shell pairs
 There are   1462 function pairs (  1834 Cartesian)
 Warning!  Inaccurate integrated density:
   Number of electrons =     5
   Numerical integral  =     4.012701451678
   Relative error      =   -19.7459709664 %
 ---------------------------------------
  Cycle       Energy         DIIS Error
 ---------------------------------------
    1      -7.7732436291      5.31E-03
    2      -7.9695262853      7.12E-03
    3      -8.0071926288      4.02E-03
    4      -8.0364839436      5.96E-04
 Warning!  Inaccurate integrated density:
   Number of electrons =     5
   Numerical integral  =     4.993050554977
   Relative error      =    -0.1389889005 %
    5      -8.0418272159      4.26E-04
 Warning!  Inaccurate integrated density:
   Number of electrons =     5
   Numerical integral  =     4.990116050797
   Relative error      =    -0.1976789841 %
    6      -8.0468739681      3.32E-04
 Warning!  Inaccurate integrated density:
   Number of electrons =     5
   Numerical integral  =     4.990277505669
   Relative error      =    -0.1944498866 %
    7      -8.0509412947      3.54E-04
 Warning!  Inaccurate integrated density:
   Number of electrons =     5
   Numerical integral  =     4.988722432103
   Relative error      =    -0.2255513579 %
    8      -8.0478225142      2.88E-04
 Warning!  Inaccurate integrated density:
   Number of electrons =     5
   Numerical integral  =     4.986693120722
   Relative error      =    -0.2661375856 %
    9      -8.0451833457      1.72E-04
 Warning!  Inaccurate integrated density:
   Number of electrons =     5
   Numerical integral  =     4.985034903689
   Relative error      =    -0.2993019262 %
   10      -8.0452389290      8.81E-05
 Warning!  Inaccurate integrated density:
   Number of electrons =     5
   Numerical integral  =     4.983473609013
   Relative error      =    -0.3305278197 %
   11      -8.0453870768      3.23E-05
 Warning!  Inaccurate integrated density:
   Number of electrons =     5
   Numerical integral  =     4.983529634383
   Relative error      =    -0.3294073123 %
   12      -8.0453739483      2.23E-05
 Warning!  Inaccurate integrated density:
   Number of electrons =     5
   Numerical integral  =     4.983299130947
   Relative error      =    -0.3340173811 %
   13      -8.0453823612      8.48E-06 Convergence criterion met
 ---------------------------------------
 One-Electron    Energy =   -12.8022095016
 Total Coulomb   Energy =     6.0100970437
 Alpha Exchange  Energy =    -0.3360509461
 Beta  Exchange  Energy =    -0.2986760977
 DFT   Exchange  Energy =    -1.5255554056
 DFT Correlation Energy =    -0.0884736067
 Nuclear Repu.   Energy =     0.9954861527
 Nuclear Attr.   Energy =   -20.7799428629
 Kinetic         Energy =     7.9777333612
 <S^2> = 0.7502
 SCF time:  CPU 7.64 s  wall 9.08 s
 Final Alpha MO Eigenvalues
            1           2           3           4           5           6
    1  -1.9381640  -0.1964880   0.0087480   0.0542025   0.0730722   0.0802127
            7           8
    1   0.0917617   0.1183306
 Final Beta MO Eigenvalues
            1           2           3           4           5           6
    1  -1.9380135  -0.1973114   0.0664771   0.0797852   0.0861321   0.0875878
            7
    1   0.0991382
 Analysis of SCF Wavefunction
 
 --------------------------------------------------------------
                    Orbital Energies (a.u.)
 --------------------------------------------------------------
 
 Alpha MOs
 -- Occupied --
 -1.938  -0.196   0.009
 -- Virtual --
  0.054   0.073   0.080   0.092   0.118   0.127   0.147   0.209
  0.233   0.233   0.238   0.324   0.360   0.361   0.368   0.369
  0.476   0.576   0.612   0.614   0.671   0.671   0.691   0.692
  0.693   0.693   0.711   0.908   1.146   1.147   1.255   1.350
  1.350   1.444   1.445   1.588   2.889   3.728   4.270   4.270
  4.392   6.945   6.945   7.227  20.018  20.046  21.319  21.324
 21.324
 
 Beta MOs
 -- Occupied --
 -1.938  -0.197
 -- Virtual --
  0.066   0.080   0.086   0.088   0.099   0.127   0.127   0.145
  0.208   0.231   0.232   0.238   0.323   0.361   0.361   0.368
  0.369   0.475   0.576   0.612   0.613   0.671   0.671   0.691
  0.692   0.693   0.693   0.710   0.907   1.145   1.146   1.255
  1.350   1.351   1.444   1.445   1.588   2.887   3.728   4.268
  4.269   4.391   6.945   6.945   7.227  20.018  20.046  21.319
 21.324  21.324
 --------------------------------------------------------------
 
          Ground-State Mulliken Net Atomic Charges

     Atom                 Charge (a.u.)    Spin (a.u.)
  --------------------------------------------------------
      1 Li                   -0.686767       1.015324
      2 H                    -0.313233      -0.015324
  --------------------------------------------------------
  Sum of atomic charges =    -1.000000
  Sum of spin   charges =     1.000000

 -----------------------------------------------------------------
                    Cartesian Multipole Moments
 -----------------------------------------------------------------
    Charge (ESU x 10^10)
                -4.8032
    Dipole Moment (Debye)
         X      -0.2515      Y      -0.2514      Z      -5.8375
       Tot       5.8483
    Quadrupole Moments (Debye-Ang)
        XX     -99.6336     XY     -46.9934     YY     -99.6041
        XZ       0.8101     YZ       0.8098     ZZ     -59.2315
    Octapole Moments (Debye-Ang^2)
       XXX     -10.1698    XXY      -3.3890    XYY      -3.3900
       YYY     -10.1666    XXZ      -7.6274    XYZ      -0.5196
       YYZ      -7.6271    XZZ      -3.3485    YZZ      -3.3475
       ZZZ     -28.5264
    Hexadecapole Moments (Debye-Ang^3)
      XXXX   -4147.7175   XXXY   -1377.1431   XXYY   -1382.2826
      XYYY   -1377.1431   YYYY   -4145.9810   XXXZ      27.2546
      XXYZ       9.0819   XYYZ       9.0847   YYYZ      27.2460
      XXZZ    -931.7830   XYZZ    -459.0498   YYZZ    -931.4936
      XZZZ      27.2739   YZZZ      27.2653   ZZZZ   -1451.0854
 -----------------------------------------------------------------
 Total job time:  9.18s(wall), 7.70s(cpu) 
 Tue Mar 25 23:18:34 2014

        *************************************************************
        *                                                           *
        *  Thank you very much for using Q-Chem.  Have a nice day.  *
        *                                                           *
        *************************************************************


0 sent ACK to 0 
now end server 0 ... 
 
**********************************************************************
Job 2 of 3 
**********************************************************************
 
Process 0 of 1 is on cl132 - thread support 1
initial socket setup ...start
initial socket setup ...done 
now start server 0 ... 

cmd = /usr/bin/ssh clhead /usr/local/qchem/bin/get_hostid 279506850 > /tmp/1603041.1.medium.q/qchem1744/lic.dat

cmd = /usr/bin/ssh clhead /usr/local/qchem/bin/get_hostid 279506850 > /tmp/1603041.1.medium.q/qchem1744/lic.dat

cmd = /usr/bin/ssh clhead /usr/local/qchem/bin/get_hostid 279506850 > /tmp/1603041.1.medium.q/qchem1744/lic.dat

cmd = /usr/bin/ssh clhead /usr/local/qchem/bin/get_hostid 279506850 > /tmp/1603041.1.medium.q/qchem1744/lic.dat

cmd = /usr/bin/ssh clhead /usr/local/qchem/bin/get_hostid 279506850 > /tmp/1603041.1.medium.q/qchem1744/lic.dat
                  Welcome to Q-Chem
     A Quantum Leap Into The Future Of Chemistry

 Y. Shao, L. Fusti-Molnar, Y. Jung, J. Kussmann, C. Ochsenfeld,
 S. T. Brown, A. T. B. Gilbert, L. V. Slipchenko,S. V. Levchenko,
 D. P. O'Neill, R. A. DiStasio Jr., R. C. Lochan, T. Wang,
 G. J. O. Beran, N. A. Besley, J. M. Herbert, C. Y. Lin,
 T. Van Voorhis, S. H. Chien, A. Sodt, R. P. Steele, 
 V. A. Rassolov, P. E. Maslen, P. P. Korambath, R. D. Adamson,
 B. Austin, J. Baker, E. F. C. Byrd, H. Dachsel, R. J. Doerksen,
 A. Dreuw, B. D. Dunietz, A. D. Dutoi, T. R. Furlani,
 S. R. Gwaltney, A. Heyden, S. Hirata, C.-P. Hsu, G. Kedziora,
 R. Z. Khaliullin, P. Klunzinger, A. M. Lee, M. S. Lee, W. Liang,
 I. Lotan, N. Nair, B. Peters, E. I. Proynov, P. A. Pieniazek, 
 Y. M. Rhee, J. Ritchie, E. Rosta, C. D. Sherrill, 
 A. C. Simmonett, J. E. Subotnik, H. L. Woodcock III,
 W. Zhang, A. T. Bell, A. K. Chakraborty, D. M. Chipman,
 F. J. Keil, A. Warshel, W. J. Hehre, H. F. Schaefer III,
 J. Kong, A. I. Krylov, P. M. W. Gill, M. Head-Gordon,
 Q-Chem, Version 3.1, Q-Chem, Inc., Pittsburgh, PA (2007).

 Additional authors for Version 3.1: 
 Z. Gan, Y. Zhao, N. E. Schultz, D. Truhlar, E. Epifanovsky and M. Oana.

 Additional authors for Version 3.2: 
 R. Baer, B. R. Brooks, D. Casanova, J.-D. Chai, C.-L. Cheng, 
 C. Cramer, D. Crittenden, A. Ghysels, G. Hawkins, E. G. Hohenstein, 
 C. Kelley, W. Kurlancheek, D. Liotard, E. Livshits, P. Manohar, 
 A. Marenich, D. Neuhauser, R. Olson, M. A. Rohrdanz, K. S. Thanthiriwatte, 
 A. J. W. Thom, V. Vanovschi, C. F. Williams, Q. Wu and Z.-Q. You. 


 Intel X86 Linux Version

 Q-chem begins on Tue Mar 25 23:18:38 2014  

 Parallel job on  1  processors
Processing $rem in /usr/local/qchem/config/preferences.

theFileMan(): MAXOPENFILES=974 MAX_SUB_FILE_NUM=16
Maximum size of a physical file is 2.0 GB, maximum size of a tmp-file is 32.0 GB


--------------------------------------------------------------
User input:
--------------------------------------------------------------

$molecule
0,1
Li         0.00000        0.00000        0.01317
H          0.00000        0.00000        1.60790
$end

$comment
neutral
$end

$xc_functional
C PBE   1.00
X wPBE  1.00
$end


$rem
SYMMETRY_DECOMPOSITION	0
LRC_DFT                 true
exchange 		general
BASIS                   g3large
omega			300
mem_static              760
max_scf_cycles          200
scf_final_print         1
sym_ignore              true
$end

--------------------------------------------------------------
 Writing REM_CC_EA            2
 ----------------------------------------------------
       Standard Nuclear Orientation (Angstroms)
    I     Atom         X            Y            Z
 ----------------------------------------------------
    1      Li      0.000000     0.000000     0.013170
    2      H       0.000000     0.000000     1.607900
 ----------------------------------------------------
 Nuclear Repulsion Energy =     0.9954861528 hartrees
 There are        2 alpha and        2 beta electrons
 Requested basis set is G3large
 There are 16 shells and 52 basis functions

Total QAlloc Memory Limit   2000 MB
Mega-Array Size       743 MB
MEM_STATIC part       760 MB

                       Distance Matrix (Angstroms)
             Li(  1)
   H (  2)  1.594730
 
 A cutoff of  1.0D-08 yielded    136 shell pairs
 There are   1462 function pairs (  1834 Cartesian)
Evaluating contribution to one-electron hamiltonian from nuclear
 Smallest overlap matrix eigenvalue = 3.55E-03
 Multipole matrices computed through 2nd order

  Scale SEOQF with 1.000000e-02/1.000000e-02/1.000000e-02

 Standard Electronic Orientation quadrupole field applied
 Guess from superposition of atomic densities
 Warning:  Energy on first SCF cycle will be non-variational
 Long-range K will be added via erf
 Coulomb attenuation parameter = 0.3 bohr**(-1)
 A restricted Kohn-Sham SCF calculation will be
 performed using Pulay DIIS extrapolation
 Exchange:  wPBE + LR-HF      Correlation:  PBE
 Using SG-1 standard quadrature grid
 SCF converges when DIIS error is below 1.0E-05
 Requested basis set is G3large
 There are 16 shells and 52 basis functions
 A cutoff of  1.0D-08 yielded    136 shell pairs
 There are   1462 function pairs (  1834 Cartesian)
 Warning!  Inaccurate integrated density:
   Number of electrons =     4
   Numerical integral  =     4.012701451678
   Relative error      =     0.3175362920 %
 ---------------------------------------
  Cycle       Energy         DIIS Error
 ---------------------------------------
    1      -7.7732436291      5.31E-03
    2      -8.0213905937      6.50E-03
    3      -8.0435093437      3.52E-03
    4      -8.0554717915      3.87E-04
    5      -8.0558962398      1.57E-04
    6      -8.0559792285      3.03E-05
    7      -8.0559826200      5.57E-06 Convergence criterion met
 ---------------------------------------
 One-Electron    Energy =   -12.4609777057
 Total Coulomb   Energy =     5.6162514379
 Alpha Exchange  Energy =    -0.2987065446
 Beta  Exchange  Energy =    -0.2987065446
 DFT   Exchange  Energy =    -1.5251147018
 DFT Correlation Energy =    -0.0842147139
 Nuclear Repu.   Energy =     0.9954861527
 Nuclear Attr.   Energy =   -20.4247586320
 Kinetic         Energy =     7.9637809263
 SCF time:  CPU 3.78 s  wall 4.54 s
 Final Alpha MO Eigenvalues
            1           2           3           4           5           6
    1  -2.0283168  -0.2843744  -0.0091702   0.0147185   0.0147194   0.0215102
            7
    1   0.0269645
 Analysis of SCF Wavefunction
 
 --------------------------------------------------------------
                    Orbital Energies (a.u.)
 --------------------------------------------------------------
 
 Alpha MOs
 -- Occupied --
 -2.028  -0.284
 -- Virtual --
 -0.009   0.015   0.015   0.022   0.027   0.052   0.052   0.076
  0.131   0.152   0.152   0.159   0.240   0.275   0.275   0.282
  0.282   0.391   0.489   0.525   0.525   0.584   0.584   0.605
  0.605   0.605   0.605   0.626   0.820   1.058   1.058   1.169
  1.260   1.260   1.355   1.355   1.500   2.802   3.638   4.183
  4.183   4.305   6.855   6.855   7.138  19.927  19.955  21.229
 21.234  21.234
 --------------------------------------------------------------
 
          Ground-State Mulliken Net Atomic Charges

     Atom                 Charge (a.u.)
  ----------------------------------------
      1 Li                    0.310001
      2 H                    -0.310001
  ----------------------------------------
  Sum of atomic charges =     0.000000

 -----------------------------------------------------------------
                    Cartesian Multipole Moments
 -----------------------------------------------------------------
    Charge (ESU x 10^10)
                 0.0000
    Dipole Moment (Debye)
         X       0.0000      Y       0.0000      Z      -5.7926
       Tot       5.7926
    Quadrupole Moments (Debye-Ang)
        XX      -5.4508     XY       0.0001     YY      -5.4508
        XZ       0.0000     YZ       0.0000     ZZ     -11.9002
    Octapole Moments (Debye-Ang^2)
       XXX       0.0001    XXY       0.0000    XYY       0.0000
       YYY       0.0001    XXZ      -6.4332    XYZ       0.0001
       YYZ      -6.4332    XZZ       0.0000    YZZ       0.0000
       ZZZ     -26.2367
    Hexadecapole Moments (Debye-Ang^3)
      XXXX     -12.9304   XXXY       0.0002   XXYY      -4.3101
      XYYY       0.0002   YYYY     -12.9304   XXXZ       0.0001
      XXYZ       0.0000   XYYZ       0.0000   YYYZ       0.0000
      XXZZ     -12.3000   XYZZ       0.0001   YYZZ     -12.3000
      XZZZ       0.0001   YZZZ       0.0001   ZZZZ     -68.4718
 -----------------------------------------------------------------
 Total job time:  4.62s(wall), 3.84s(cpu) 
 Tue Mar 25 23:18:42 2014

        *************************************************************
        *                                                           *
        *  Thank you very much for using Q-Chem.  Have a nice day.  *
        *                                                           *
        *************************************************************


0 sent ACK to 0 
now end server 0 ... 
 
**********************************************************************
Job 3 of 3 
**********************************************************************
 
Process 0 of 1 is on cl132 - thread support 1
initial socket setup ...start
initial socket setup ...done 
now start server 0 ... 

cmd = /usr/bin/ssh clhead /usr/local/qchem/bin/get_hostid 1059364382 > /tmp/1603041.1.medium.q/qchem1744/lic.dat

cmd = /usr/bin/ssh clhead /usr/local/qchem/bin/get_hostid 1059364382 > /tmp/1603041.1.medium.q/qchem1744/lic.dat

cmd = /usr/bin/ssh clhead /usr/local/qchem/bin/get_hostid 1059364382 > /tmp/1603041.1.medium.q/qchem1744/lic.dat

cmd = /usr/bin/ssh clhead /usr/local/qchem/bin/get_hostid 1059364382 > /tmp/1603041.1.medium.q/qchem1744/lic.dat

cmd = /usr/bin/ssh clhead /usr/local/qchem/bin/get_hostid 1059364382 > /tmp/1603041.1.medium.q/qchem1744/lic.dat
                  Welcome to Q-Chem
     A Quantum Leap Into The Future Of Chemistry

 Y. Shao, L. Fusti-Molnar, Y. Jung, J. Kussmann, C. Ochsenfeld,
 S. T. Brown, A. T. B. Gilbert, L. V. Slipchenko,S. V. Levchenko,
 D. P. O'Neill, R. A. DiStasio Jr., R. C. Lochan, T. Wang,
 G. J. O. Beran, N. A. Besley, J. M. Herbert, C. Y. Lin,
 T. Van Voorhis, S. H. Chien, A. Sodt, R. P. Steele, 
 V. A. Rassolov, P. E. Maslen, P. P. Korambath, R. D. Adamson,
 B. Austin, J. Baker, E. F. C. Byrd, H. Dachsel, R. J. Doerksen,
 A. Dreuw, B. D. Dunietz, A. D. Dutoi, T. R. Furlani,
 S. R. Gwaltney, A. Heyden, S. Hirata, C.-P. Hsu, G. Kedziora,
 R. Z. Khaliullin, P. Klunzinger, A. M. Lee, M. S. Lee, W. Liang,
 I. Lotan, N. Nair, B. Peters, E. I. Proynov, P. A. Pieniazek, 
 Y. M. Rhee, J. Ritchie, E. Rosta, C. D. Sherrill, 
 A. C. Simmonett, J. E. Subotnik, H. L. Woodcock III,
 W. Zhang, A. T. Bell, A. K. Chakraborty, D. M. Chipman,
 F. J. Keil, A. Warshel, W. J. Hehre, H. F. Schaefer III,
 J. Kong, A. I. Krylov, P. M. W. Gill, M. Head-Gordon,
 Q-Chem, Version 3.1, Q-Chem, Inc., Pittsburgh, PA (2007).

 Additional authors for Version 3.1: 
 Z. Gan, Y. Zhao, N. E. Schultz, D. Truhlar, E. Epifanovsky and M. Oana.

 Additional authors for Version 3.2: 
 R. Baer, B. R. Brooks, D. Casanova, J.-D. Chai, C.-L. Cheng, 
 C. Cramer, D. Crittenden, A. Ghysels, G. Hawkins, E. G. Hohenstein, 
 C. Kelley, W. Kurlancheek, D. Liotard, E. Livshits, P. Manohar, 
 A. Marenich, D. Neuhauser, R. Olson, M. A. Rohrdanz, K. S. Thanthiriwatte, 
 A. J. W. Thom, V. Vanovschi, C. F. Williams, Q. Wu and Z.-Q. You. 


 Intel X86 Linux Version

 Q-chem begins on Tue Mar 25 23:18:46 2014  

 Parallel job on  1  processors
Processing $rem in /usr/local/qchem/config/preferences.

theFileMan(): MAXOPENFILES=974 MAX_SUB_FILE_NUM=16
Maximum size of a physical file is 2.0 GB, maximum size of a tmp-file is 32.0 GB


--------------------------------------------------------------
User input:
--------------------------------------------------------------

$molecule
1,2
Li         0.00000        0.00000        0.01317
H          0.00000        0.00000        1.60790
$end

$comment
positive
$end

$xc_functional
C PBE   1.00
X wPBE  1.00
$end

$rem
SYMMETRY_DECOMPOSITION	0
LRC_DFT                 true
exchange 		general
BASIS                   g3large
omega			300
mem_static              760
max_scf_cycles          200
scf_final_print         1
sym_ignore              true
$end

--------------------------------------------------------------
 Writing REM_CC_EA            2
 ----------------------------------------------------
       Standard Nuclear Orientation (Angstroms)
    I     Atom         X            Y            Z
 ----------------------------------------------------
    1      Li      0.000000     0.000000     0.013170
    2      H       0.000000     0.000000     1.607900
 ----------------------------------------------------
 Nuclear Repulsion Energy =     0.9954861528 hartrees
 There are        2 alpha and        1 beta electrons
 Requested basis set is G3large
 There are 16 shells and 52 basis functions

Total QAlloc Memory Limit   2000 MB
Mega-Array Size       743 MB
MEM_STATIC part       760 MB

                       Distance Matrix (Angstroms)
             Li(  1)
   H (  2)  1.594730
 
 A cutoff of  1.0D-08 yielded    136 shell pairs
 There are   1462 function pairs (  1834 Cartesian)
Evaluating contribution to one-electron hamiltonian from nuclear
 Smallest overlap matrix eigenvalue = 3.55E-03
 Multipole matrices computed through 2nd order

  Scale SEOQF with 1.000000e-02/1.000000e-02/1.000000e-02

 Standard Electronic Orientation quadrupole field applied
 Guess from superposition of atomic densities
 Warning:  Energy on first SCF cycle will be non-variational
 Long-range K will be added via erf
 Coulomb attenuation parameter = 0.3 bohr**(-1)
 An unrestricted Kohn-Sham SCF calculation will be
 performed using Pulay DIIS extrapolation
 Exchange:  wPBE + LR-HF      Correlation:  PBE
 Using SG-1 standard quadrature grid
 SCF converges when DIIS error is below 1.0E-05
 Requested basis set is G3large
 There are 16 shells and 52 basis functions
 A cutoff of  1.0D-08 yielded    136 shell pairs
 There are   1462 function pairs (  1834 Cartesian)
 Warning!  Inaccurate integrated density:
   Number of electrons =     3
   Numerical integral  =     4.012701451678
   Relative error      =    33.7567150559 %
 ---------------------------------------
  Cycle       Energy         DIIS Error
 ---------------------------------------
    1      -7.7732436291      5.31E-03
    2      -7.7495841701      2.02E-03
    3      -7.7571105309      5.18E-04
    4      -7.7576759191      4.91E-05
    5      -7.7576801413      9.59E-06 Convergence criterion met
 ---------------------------------------
 One-Electron    Energy =   -11.0695045195
 Total Coulomb   Energy =     4.3191242261
 Alpha Exchange  Energy =    -0.3124466997
 Beta  Exchange  Energy =    -0.1648467829
 DFT   Exchange  Energy =    -1.4736818667
 DFT Correlation Energy =    -0.0518106514
 Nuclear Repu.   Energy =     0.9954861527
 Nuclear Attr.   Energy =   -18.8453769717
 Kinetic         Energy =     7.7758724522
 <S^2> = 0.7500
 SCF time:  CPU 2.89 s  wall 3.43 s
 Final Alpha MO Eigenvalues
            1           2           3           4           5           6
    1  -2.3618192  -0.7372330  -0.1797236  -0.1433325  -0.1433118  -0.0876211
            7
    1  -0.0701999
 Final Beta MO Eigenvalues
            1           2           3           4           5           6
    1  -2.3585453  -0.2224298  -0.1542295  -0.1316079  -0.1315852  -0.0783690
 Analysis of SCF Wavefunction
 
 --------------------------------------------------------------
                    Orbital Energies (a.u.)
 --------------------------------------------------------------
 
 Alpha MOs
 -- Occupied --
 -2.362  -0.737
 -- Virtual --
 -0.180  -0.143  -0.143  -0.088  -0.070  -0.060  -0.060  -0.052
 -0.030  -0.009  -0.009  -0.009   0.034   0.051   0.051   0.078
  0.078   0.192   0.215   0.278   0.278   0.334   0.345   0.345
  0.380   0.380   0.393   0.393   0.571   0.725   0.725   0.830
  0.989   0.990   1.048   1.048   1.195   2.316   3.271   3.669
  3.669   3.825   6.525   6.525   6.805  19.595  19.620  20.895
 20.898  20.898
 
 Beta MOs
 -- Occupied --
 -2.359
 -- Virtual --
 -0.222  -0.154  -0.132  -0.132  -0.078  -0.063  -0.058  -0.058
 -0.038  -0.016  -0.007  -0.005  -0.005   0.078   0.078   0.083
  0.083   0.097   0.199   0.273   0.281   0.281   0.387   0.387
  0.394   0.394   0.397   0.397   0.470   0.643   0.859   0.859
  0.992   0.993   1.018   1.143   1.143   1.251   2.791   3.371
  4.178   4.178   4.332   6.528   6.528   6.812  19.599  19.625
 20.895  20.899  20.899
 --------------------------------------------------------------
 
          Ground-State Mulliken Net Atomic Charges

     Atom                 Charge (a.u.)    Spin (a.u.)
  --------------------------------------------------------
      1 Li                    0.814871       0.183426
      2 H                     0.185129       0.816574
  --------------------------------------------------------
  Sum of atomic charges =     1.000000
  Sum of spin   charges =     1.000000

 -----------------------------------------------------------------
                    Cartesian Multipole Moments
 -----------------------------------------------------------------
    Charge (ESU x 10^10)
                 4.8032
    Dipole Moment (Debye)
         X       0.0000      Y       0.0000      Z       0.6331
       Tot       0.6331
    Quadrupole Moments (Debye-Ang)
        XX      -1.6493     XY       0.0000     YY      -1.6493
        XZ      -0.0001     YZ       0.0000     ZZ       0.1179
    Octapole Moments (Debye-Ang^2)
       XXX      -0.0001    XXY       0.0000    XYY       0.0000
       YYY       0.0000    XXZ      -1.7993    XYZ       0.0000
       YYZ      -1.7993    XZZ      -0.0001    YZZ       0.0000
       ZZZ      -1.3182
    Hexadecapole Moments (Debye-Ang^3)
      XXXX      -1.6800   XXXY       0.0000   XXYY      -0.5600
      XYYY       0.0000   YYYY      -1.6800   XXXZ      -0.0001
      XXYZ       0.0000   XYYZ       0.0000   YYYZ       0.0000
      XXZZ      -3.1249   XYZZ       0.0000   YYZZ      -3.1249
      XZZZ      -0.0001   YZZZ      -0.0001   ZZZZ      -8.8489
 -----------------------------------------------------------------
 Total job time:  3.51s(wall), 2.95s(cpu) 
 Tue Mar 25 23:18:50 2014

        *************************************************************
        *                                                           *
        *  Thank you very much for using Q-Chem.  Have a nice day.  *
        *                                                           *
        *************************************************************


0 sent ACK to 0 
now end server 0 ... 
