Process 0 of 1 is on cl201.stfx.acenet.ca - thread support 1
initial socket setup ...start
initial socket setup ...done 
now start server 0 ... 

cmd = /usr/bin/ssh clhead /usr/local/qchem/bin/get_hostid 1813604581 > /scratch/tmp/4825364.1.medium.q/qchem13137/lic.dat
                  Welcome to Q-Chem
     A Quantum Leap Into The Future Of Chemistry

 Y. Shao, L. Fusti-Molnar, Y. Jung, J. Kussmann, C. Ochsenfeld,
 S. T. Brown, A. T. B. Gilbert, L. V. Slipchenko,S. V. Levchenko,
 D. P. O'Neill, R. A. DiStasio Jr., R. C. Lochan, T. Wang,
 G. J. O. Beran, N. A. Besley, J. M. Herbert, C. Y. Lin,
 T. Van Voorhis, S. H. Chien, A. Sodt, R. P. Steele, 
 V. A. Rassolov, P. E. Maslen, P. P. Korambath, R. D. Adamson,
 B. Austin, J. Baker, E. F. C. Byrd, H. Dachsel, R. J. Doerksen,
 A. Dreuw, B. D. Dunietz, A. D. Dutoi, T. R. Furlani,
 S. R. Gwaltney, A. Heyden, S. Hirata, C.-P. Hsu, G. Kedziora,
 R. Z. Khaliullin, P. Klunzinger, A. M. Lee, M. S. Lee, W. Liang,
 I. Lotan, N. Nair, B. Peters, E. I. Proynov, P. A. Pieniazek, 
 Y. M. Rhee, J. Ritchie, E. Rosta, C. D. Sherrill, 
 A. C. Simmonett, J. E. Subotnik, H. L. Woodcock III,
 W. Zhang, A. T. Bell, A. K. Chakraborty, D. M. Chipman,
 F. J. Keil, A. Warshel, W. J. Hehre, H. F. Schaefer III,
 J. Kong, A. I. Krylov, P. M. W. Gill, M. Head-Gordon,
 Q-Chem, Version 3.1, Q-Chem, Inc., Pittsburgh, PA (2007).

 Additional authors for Version 3.1: 
 Z. Gan, Y. Zhao, N. E. Schultz, D. Truhlar, E. Epifanovsky and M. Oana.

 Additional authors for Version 3.2: 
 R. Baer, B. R. Brooks, D. Casanova, J.-D. Chai, C.-L. Cheng, 
 C. Cramer, D. Crittenden, A. Ghysels, G. Hawkins, E. G. Hohenstein, 
 C. Kelley, W. Kurlancheek, D. Liotard, E. Livshits, P. Manohar, 
 A. Marenich, D. Neuhauser, R. Olson, M. A. Rohrdanz, K. S. Thanthiriwatte, 
 A. J. W. Thom, V. Vanovschi, C. F. Williams, Q. Wu and Z.-Q. You. 


 Intel X86 Linux Version

 Q-chem begins on Mon Nov 14 15:21:22 2011  

 Parallel job on  1  processors
Processing $rem in /usr/local/qchem/config/preferences.

theFileMan(): MAXOPENFILES=974 MAX_SUB_FILE_NUM=16
Maximum size of a physical file is 2.0 GB, maximum size of a tmp-file is 32.0 GB


--------------------------------------------------------------
User input:
--------------------------------------------------------------

$molecule
-1,1
C
X,1,1.
C,1,CC,2,CCX
C,1,CC,2,CCX,3,120.,0
C,1,CC,2,CCX,3,-120.,0
X,3,1.,1,XCC,2,0.,0
H,3,CH1,1,H1CC,6,180.,0
H,3,CH2,6,HCX,1,90.,0
H,3,CH2,6,HCX,1,-90.,0
X,4,1.,1,XCC,2,0.,0
H,4,CH1,1,H1CC,10,180.,0
H,4,CH2,10,HCX,1,90.,0
H,4,CH2,10,HCX,1,-90.,0
X,5,1.,1,XCC,2,0.,0
H,5,CH1,1,H1CC,14,180.,0
H,5,CH2,14,HCX,1,90.,0
H,5,CH2,14,HCX,1,-90.,0

CC=1.4974949
CH1=1.10709549
CH2=1.09754396
XCC=129.18006387
H1CC=112.18931802
HCX=54.06363192
CCX=96.10000574

$end

$comment
neutral
$end

$rem
   EXCHANGE B3LYP
   UNRESTRICTED TRUE
   BASIS G3large 
   SCF_PRINT 1
   PDB_PRINT 2
   INCDFT false
   VARTHRESH 0
   MAX_SCF_CYCLES 1000
   MEM_STATIC 256
   MEM_TOTAL 3000
   THRESH 140
   ITHRSH 14
   XC_GRID 75000302
   SCF_CONVERGENCE 6
$end

--------------------------------------------------------------
 Writing REM_CC_EA            0
 ----------------------------------------------------
       Standard Nuclear Orientation (Angstroms)
    I     Atom         X            Y            Z
 ----------------------------------------------------
    1      C       0.000000     0.000000     0.144493
    2      C       1.489016     0.000000    -0.014637
    3      C      -0.744508    -1.289526    -0.014637
    4      C      -0.744508     1.289526    -0.014637
    5      H       1.795831     0.000000    -1.078369
    6      H       1.946708     0.888648     0.438602
    7      H       1.946708    -0.888648     0.438602
    8      H      -0.897916    -1.555236    -1.078369
    9      H      -0.203763    -2.130223     0.438602
   10      H      -1.742946    -1.241575     0.438602
   11      H      -0.897916     1.555236    -1.078369
   12      H      -1.742946     1.241575     0.438602
   13      H      -0.203763     2.130223     0.438602
 ----------------------------------------------------
 Molecular Point Group                 C3v   NOp =  6
 Largest Abelian Subgroup              Cs    NOp =  2
 Nuclear Repulsion Energy =   124.9362447512 hartrees
 There are       17 alpha and       17 beta electrons

 Q-Chem warning in module snoman.F, line  300, PE  0:

 turning symmetry off for DFT job

 Requested basis set is G3large
 There are 94 shells and 258 basis functions

Total QAlloc Memory Limit   3000 MB
Mega-Array Size       251 MB
MEM_STATIC part       256 MB

                       Distance Matrix (Angstroms)
             C (  1)   C (  2)   C (  3)   C (  4)   H (  5)   H (  6)
   C (  2)  1.497495
   C (  3)  1.497495  2.579051
   C (  4)  1.497495  2.579051  2.579051
   H (  5)  2.172648  1.107095  3.041007  3.041007
   H (  6)  2.160062  1.097544  3.491777  2.758401  1.764556
   H (  7)  2.160062  1.097544  2.758401  3.491777  1.764556  1.777295
   H (  8)  2.172648  3.041007  1.107095  3.041007  3.110471  4.045448
   H (  9)  2.160062  2.758401  1.097544  3.491777  3.292025  3.706495
   H ( 10)  2.160062  3.491777  1.097544  2.758401  4.045448  4.260445
   H ( 11)  2.172648  3.041007  3.041007  1.107095  3.110471  3.292025
   H ( 12)  2.160062  3.491777  2.758401  1.097544  4.045448  3.706495
   H ( 13)  2.160062  2.758401  3.491777  1.097544  3.292025  2.483150
             H (  7)   H (  8)   H (  9)   H ( 10)   H ( 11)   H ( 12)
   H (  8)  3.292025
   H (  9)  2.483150  1.764556
   H ( 10)  3.706495  1.764556  1.777295
   H ( 11)  4.045448  3.110471  4.045448  3.292025
   H ( 12)  4.260445  3.292025  3.706495  2.483150  1.764556
   H ( 13)  3.706495  4.045448  4.260445  3.706495  1.764556  1.777295

 
 A cutoff of  1.0D-14 yielded   4327 shell pairs
 There are  32715 function pairs ( 39213 Cartesian)
Evaluating contribution to one-electron hamiltonian from nuclear
 Smallest overlap matrix eigenvalue = 4.90E-05
 Multipole matrices computed through 2nd order

  Scale SEOQF with 1.000000e-01/1.000000e-01/1.000000e-01

 Standard Electronic Orientation quadrupole field applied
 Nucleus-field energy     =     0.0000000036 hartrees
 Guess from superposition of atomic densities
 Warning:  Energy on first SCF cycle will be non-variational
 An unrestricted hybrid HF-DFT SCF calculation will be
 performed using Pulay DIIS extrapolation
 Exchange:     0.2000 Hartree-Fock + 0.0800 Slater + 0.7200 Becke88
 Correlation:  0.8100 LYP + 0.1900 VWN1RPA
 Using Euler-Maclaurin-Lebedev (75,302) quadrature formula
 SCF converges when DIIS error is below 1.0E-06
 Maximum number of SCF iterations = 1000

NRad = 75 NAng = 302
 Warning!  Inaccurate integrated density:
   Number of electrons =    34
   Numerical integral  =    33.000065972047
   Relative error      =    -2.9409824352 %
 ---------------------------------------
  Cycle       Energy         DIIS Error
 ---------------------------------------
    1    -158.3069384179      2.69E-02

NRad = 75 NAng = 302
    2    -157.4622217950      6.04E-03

NRad = 75 NAng = 302
    3    -155.4455643955      1.46E-02

NRad = 75 NAng = 302
    4    -157.8051011696      1.72E-03

NRad = 75 NAng = 302
    5    -157.7295673749      3.12E-03

NRad = 75 NAng = 302
    6    -157.8361756655      1.82E-04

NRad = 75 NAng = 302
    7    -157.8363461703      2.08E-04

NRad = 75 NAng = 302
    8    -157.8367662691      8.30E-05

NRad = 75 NAng = 302
    9    -157.8368275481      3.49E-05

NRad = 75 NAng = 302
   10    -157.8368393710      9.07E-06

NRad = 75 NAng = 302
   11    -157.8368401373      2.77E-06

NRad = 75 NAng = 302
   12    -157.8368402200      2.49E-07 Convergence criterion met
 ---------------------------------------
 One-Electron    Energy =  -463.8306685413
 Total Coulomb   Energy =   206.2936876201
 Alpha Exchange  Energy =    -2.4009953828
 Beta  Exchange  Energy =    -2.4009953827
 DFT   Exchange  Energy =   -19.0578680069
 DFT Correlation Energy =    -1.3762452812
 Nuclear Repu.   Energy =   124.9362447548
 Nuclear Attr.   Energy =  -620.9167930475
 Kinetic         Energy =   157.0861245063
 <S^2> = 0.0000
 SCF time:  CPU 1078.60 s  wall 1102.24 s
 Analysis of SCF Wavefunction
 
 --------------------------------------------------------------
             Orbital Energies (a.u.) and Symmetries
 --------------------------------------------------------------
 
 Alpha MOs, Unrestricted
 -- Occupied --                  
 -9.985  -9.985  -9.985  -9.943  -0.602  -0.511  -0.511  -0.345
  1 E     1 E     1 A1    2 A1    3 A1    2 E     2 E     4 A1                 
 -0.261  -0.261  -0.253  -0.207  -0.207  -0.197  -0.160  -0.160
  3 E     3 E     5 A1    4 E     4 E     1 A2    5 E     5 E                  
  0.065
  6 A1                                                                         
 -- Virtual --                   
  0.106   0.121   0.121   0.137   0.146   0.146   0.157   0.157
  7 A1    6 E     6 E     8 A1    7 E     7 E     8 E     8 E                  
  0.181   0.188   0.220   0.225   0.225   0.238   0.238   0.238
  2 A2    9 A1   10 A1    9 E     9 E    10 E    10 E    11 A1                 
  0.262   0.262   0.272   0.277   0.277   0.292   0.302   0.302
 11 E    11 E    12 A1   12 E    12 E     3 A2   13 E    13 E                  
  0.309   0.338   0.338   0.357   0.357   0.361   0.367   0.428
 13 A1   14 E    14 E    15 E    15 E    14 A1    4 A2   15 A1                 
  0.441   0.441   0.442   0.492   0.492   0.562   0.562   0.595
 16 E    16 E    16 A1   17 E    17 E    18 E    18 E    17 A1                 
  0.635   0.635   0.656   0.662   0.662   0.686   0.714   0.714
 19 E    19 E     5 A2   20 E    20 E    18 A1   21 E    21 E                  
  0.716   0.720   0.731   0.731   0.747   0.785   0.785   0.812
  6 A2   19 A1   22 E    22 E    20 A1   23 E    23 E    24 E                  
  0.812   0.821   0.836   0.836   0.840   0.918   0.965   0.965
 24 E    21 A1   25 E    25 E    22 A1   23 A1   26 E    26 E                  
  0.993   1.013   1.013   1.049   1.083   1.083   1.098   1.172
  7 A2   27 E    27 E    24 A1   28 E    28 E     8 A2   29 E                  
  1.172   1.218   1.281   1.281   1.311   1.311   1.322   1.325
 29 E    25 A1   30 E    30 E    31 E    31 E     9 A2   26 A1                 
  1.352   1.352   1.402   1.420   1.420   1.443   1.443   1.448
 32 E    32 E    27 A1   33 E    33 E    34 E    34 E    28 A1                 
  1.471   1.510   1.510   1.510   1.534   1.534   1.595   1.595
 10 A2   35 E    35 E    29 A1   36 E    36 E    37 E    37 E                  
  1.616   1.635   1.670   1.670   1.693   1.706   1.736   1.736
 11 A2   30 A1   38 E    38 E    12 A2   31 A1   39 E    39 E                  
  1.751   1.828   1.828   1.932   1.932   2.533   2.533   2.622
 32 A1   40 E    40 E    41 E    41 E    42 E    42 E    33 A1                 
  2.639   2.686   2.686   2.750   2.879   2.879   2.968   2.970
 13 A2   43 E    43 E    34 A1   44 E    44 E    35 A1   14 A2                 
  2.991   2.991   3.055   3.055   3.056   3.104   3.104   3.128
 45 E    45 E    46 E    46 E    36 A1   47 E    47 E    15 A2                 
  3.132   3.177   3.177   3.294   3.294   3.317   3.337   3.337
 37 A1   48 E    48 E    49 E    49 E    38 A1   50 E    50 E                  
  3.382   3.382   3.386   3.403   3.456   3.456   3.493   3.493
 51 E    51 E    16 A2   39 A1   52 E    52 E    53 E    53 E                  
  3.509   3.521   3.581   3.593   3.593   3.719   3.726   3.726
 40 A1   17 A2   41 A1   54 E    54 E    42 A1   55 E    55 E                  
  3.765   3.765   3.787   3.847   3.847   3.923   3.943   3.943
 56 E    56 E    18 A2   57 E    57 E    43 A1   58 E    58 E                  
  3.986   3.986   4.025   4.025   4.064   4.139   4.139   4.169
 59 E    59 E    60 E    60 E    44 A1   61 E    61 E    19 A2                 
  4.224   4.267   4.267   4.276   4.340   4.340   4.412   4.412
 45 A1   62 E    62 E    46 A1   63 E    63 E    64 E    64 E                  
  4.415   4.435   4.489   4.489   4.532   4.537   4.609   4.619
 20 A2   47 A1   65 E    65 E    48 A1   21 A2   22 A2   66 E                  
  4.619   4.696   4.696   4.716   4.755   4.755   4.814   4.814
 66 E    67 E    67 E    49 A1   68 E    68 E    69 E    69 E                  
  4.932   5.108   5.108   5.181   5.336   5.655   5.655   5.800
 50 A1   70 E    70 E    23 A2   51 A1   71 E    71 E    52 A1                 
  5.829   5.829   5.839   5.850   5.850  24.166  24.469  24.469
 72 E    72 E    24 A2   73 E    73 E    53 A1   74 E    74 E                  
 24.614  27.730  27.931  27.931  28.286  28.301  28.301  28.316
 54 A1   55 A1   75 E    75 E    56 A1   76 E    76 E    57 A1                 
 28.331  28.392  28.392  28.810  28.810  41.281  41.287  41.287
 25 A2   77 E    77 E    78 E    78 E    58 A1   79 E    79 E                  
 41.296  41.296  41.314  41.325  41.334  41.334  41.346  41.346
 80 E    80 E    26 A2   59 A1   81 E    81 E    82 E    82 E                  
 41.367  41.370  41.370  41.383  41.383  41.392  41.434  41.504
 60 A1   83 E    83 E    84 E    84 E    27 A2   61 A1   85 E                  
 41.504
 85 E                                                                          
 
 Beta MOs, Unrestricted
 -- Occupied --                  
 -9.985  -9.985  -9.985  -9.943  -0.602  -0.511  -0.511  -0.345
  1 E     1 E     1 A1    2 A1    3 A1    2 E     2 E     4 A1                 
 -0.261  -0.261  -0.253  -0.207  -0.207  -0.197  -0.160  -0.160
  3 E     3 E     5 A1    4 E     4 E     1 A2    5 E     5 E                  
  0.065
  6 A1                                                                         
 -- Virtual --                   
  0.106   0.121   0.121   0.137   0.146   0.146   0.157   0.157
  7 A1    6 E     6 E     8 A1    7 E     7 E     8 E     8 E                  
  0.181   0.188   0.220   0.225   0.225   0.238   0.238   0.238
  2 A2    9 A1   10 A1    9 E     9 E    10 E    10 E    11 A1                 
  0.262   0.262   0.272   0.277   0.277   0.292   0.302   0.302
 11 E    11 E    12 A1   12 E    12 E     3 A2   13 E    13 E                  
  0.309   0.338   0.338   0.357   0.357   0.361   0.367   0.428
 13 A1   14 E    14 E    15 E    15 E    14 A1    4 A2   15 A1                 
  0.441   0.441   0.442   0.492   0.492   0.562   0.562   0.595
 16 E    16 E    16 A1   17 E    17 E    18 E    18 E    17 A1                 
  0.635   0.635   0.656   0.662   0.662   0.686   0.714   0.714
 19 E    19 E     5 A2   20 E    20 E    18 A1   21 E    21 E                  
  0.716   0.720   0.731   0.731   0.747   0.785   0.785   0.812
  6 A2   19 A1   22 E    22 E    20 A1   23 E    23 E    24 E                  
  0.812   0.821   0.836   0.836   0.840   0.918   0.965   0.965
 24 E    21 A1   25 E    25 E    22 A1   23 A1   26 E    26 E                  
  0.993   1.013   1.013   1.049   1.083   1.083   1.098   1.172
  7 A2   27 E    27 E    24 A1   28 E    28 E     8 A2   29 E                  
  1.172   1.218   1.281   1.281   1.311   1.311   1.322   1.325
 29 E    25 A1   30 E    30 E    31 E    31 E     9 A2   26 A1                 
  1.352   1.352   1.402   1.420   1.420   1.443   1.443   1.448
 32 E    32 E    27 A1   33 E    33 E    34 E    34 E    28 A1                 
  1.471   1.510   1.510   1.510   1.534   1.534   1.595   1.595
 10 A2   35 E    35 E    29 A1   36 E    36 E    37 E    37 E                  
  1.616   1.635   1.670   1.670   1.693   1.706   1.736   1.736
 11 A2   30 A1   38 E    38 E    12 A2   31 A1   39 E    39 E                  
  1.751   1.828   1.828   1.932   1.932   2.533   2.533   2.622
 32 A1   40 E    40 E    41 E    41 E    42 E    42 E    33 A1                 
  2.639   2.686   2.686   2.750   2.879   2.879   2.968   2.970
 13 A2   43 E    43 E    34 A1   44 E    44 E    35 A1   14 A2                 
  2.991   2.991   3.055   3.055   3.056   3.104   3.104   3.128
 45 E    45 E    46 E    46 E    36 A1   47 E    47 E    15 A2                 
  3.132   3.177   3.177   3.294   3.294   3.317   3.337   3.337
 37 A1   48 E    48 E    49 E    49 E    38 A1   50 E    50 E                  
  3.382   3.382   3.386   3.403   3.456   3.456   3.493   3.493
 51 E    51 E    16 A2   39 A1   52 E    52 E    53 E    53 E                  
  3.509   3.521   3.581   3.593   3.593   3.719   3.726   3.726
 40 A1   17 A2   41 A1   54 E    54 E    42 A1   55 E    55 E                  
  3.765   3.765   3.787   3.847   3.847   3.923   3.943   3.943
 56 E    56 E    18 A2   57 E    57 E    43 A1   58 E    58 E                  
  3.986   3.986   4.025   4.025   4.064   4.139   4.139   4.169
 59 E    59 E    60 E    60 E    44 A1   61 E    61 E    19 A2                 
  4.224   4.267   4.267   4.276   4.340   4.340   4.412   4.412
 45 A1   62 E    62 E    46 A1   63 E    63 E    64 E    64 E                  
  4.415   4.435   4.489   4.489   4.532   4.537   4.609   4.619
 20 A2   47 A1   65 E    65 E    48 A1   21 A2   22 A2   66 E                  
  4.619   4.696   4.696   4.716   4.755   4.755   4.814   4.814
 66 E    67 E    67 E    49 A1   68 E    68 E    69 E    69 E                  
  4.932   5.108   5.108   5.181   5.336   5.655   5.655   5.800
 50 A1   70 E    70 E    23 A2   51 A1   71 E    71 E    52 A1                 
  5.829   5.829   5.839   5.850   5.850  24.166  24.469  24.469
 72 E    72 E    24 A2   73 E    73 E    53 A1   74 E    74 E                  
 24.614  27.730  27.931  27.931  28.286  28.301  28.301  28.316
 54 A1   55 A1   75 E    75 E    56 A1   76 E    76 E    57 A1                 
 28.331  28.392  28.392  28.810  28.810  41.281  41.287  41.287
 25 A2   77 E    77 E    78 E    78 E    58 A1   79 E    79 E                  
 41.296  41.296  41.314  41.325  41.334  41.334  41.346  41.346
 80 E    80 E    26 A2   59 A1   81 E    81 E    82 E    82 E                  
 41.367  41.370  41.370  41.383  41.383  41.392  41.434  41.504
 60 A1   83 E    83 E    84 E    84 E    27 A2   61 A1   85 E                  
 41.504
 85 E                                                                          
 --------------------------------------------------------------
 
          Ground-State Mulliken Net Atomic Charges

     Atom                 Charge (a.u.)    Spin (a.u.)
  --------------------------------------------------------
      1 C                    -0.259135       0.000000
      2 C                     0.040571       0.000000
      3 C                     0.040770       0.000000
      4 C                     0.040699       0.000000
      5 H                    -0.404203       0.000000
      6 H                     0.058317       0.000000
      7 H                     0.058321       0.000000
      8 H                    -0.404190       0.000000
      9 H                     0.058235       0.000000
     10 H                     0.058263       0.000000
     11 H                    -0.404160       0.000000
     12 H                     0.058272       0.000000
     13 H                     0.058240       0.000000
  --------------------------------------------------------
  Sum of atomic charges =    -1.000000
  Sum of spin   charges =     0.000000

 -----------------------------------------------------------------
                    Cartesian Multipole Moments
 -----------------------------------------------------------------
    Charge (ESU x 10^10)
                -4.8032
    Dipole Moment (Debye)
         X       0.0001      Y       0.0001      Z       3.7180
       Tot       3.7180
    Quadrupole Moments (Debye-Ang)
        XX     -43.2747     XY      -0.0001     YY     -43.2746
        XZ      -0.0003     YZ      -0.0002     ZZ     -51.1373
    Octapole Moments (Debye-Ang^2)
       XXX      -9.9440    XXY       0.0003    XYY       9.9467
       YYY       0.0010    XXZ      23.2705    XYZ       0.0002
       YYZ      23.2698    XZZ       0.0001    YZZ       0.0007
       ZZZ      45.9463
    Hexadecapole Moments (Debye-Ang^3)
      XXXX    -373.0584   XXXY      -0.0010   XXYY    -124.3531
      XYYY      -0.0013   YYYY    -373.0584   XXXZ      11.3205
      XXYZ      -0.0008   XYYZ     -11.3240   YYYZ      -0.0024
      XXZZ    -123.3548   XYZZ      -0.0006   YYZZ    -123.3537
      XZZZ      -0.0028   YZZZ      -0.0021   ZZZZ    -302.9501
 -----------------------------------------------------------------
 Total job time:  1103.56s(wall), 1079.83s(cpu) 
 Mon Nov 14 15:39:46 2011

        *************************************************************
        *                                                           *
        *  Thank you very much for using Q-Chem.  Have a nice day.  *
        *                                                           *
        *************************************************************


0 sent ACK to 0 
now end server 0 ... 
