Process 0 of 1 is on cl145.stfx.acenet.ca - thread support 1
initial socket setup ...start
initial socket setup ...done 
now start server 0 ... 

cmd = /usr/bin/ssh clhead /usr/local/qchem/bin/get_hostid 1929495582 > /globalscratch/itamblyn/bnl/g297_b3lyp_neut_g03Large/g2g71029/omega500/qchem6328/lic.dat
                  Welcome to Q-Chem
     A Quantum Leap Into The Future Of Chemistry

 Y. Shao, L. Fusti-Molnar, Y. Jung, J. Kussmann, C. Ochsenfeld,
 S. T. Brown, A. T. B. Gilbert, L. V. Slipchenko,S. V. Levchenko,
 D. P. O'Neill, R. A. DiStasio Jr., R. C. Lochan, T. Wang,
 G. J. O. Beran, N. A. Besley, J. M. Herbert, C. Y. Lin,
 T. Van Voorhis, S. H. Chien, A. Sodt, R. P. Steele, 
 V. A. Rassolov, P. E. Maslen, P. P. Korambath, R. D. Adamson,
 B. Austin, J. Baker, E. F. C. Byrd, H. Dachsel, R. J. Doerksen,
 A. Dreuw, B. D. Dunietz, A. D. Dutoi, T. R. Furlani,
 S. R. Gwaltney, A. Heyden, S. Hirata, C.-P. Hsu, G. Kedziora,
 R. Z. Khaliullin, P. Klunzinger, A. M. Lee, M. S. Lee, W. Liang,
 I. Lotan, N. Nair, B. Peters, E. I. Proynov, P. A. Pieniazek, 
 Y. M. Rhee, J. Ritchie, E. Rosta, C. D. Sherrill, 
 A. C. Simmonett, J. E. Subotnik, H. L. Woodcock III,
 W. Zhang, A. T. Bell, A. K. Chakraborty, D. M. Chipman,
 F. J. Keil, A. Warshel, W. J. Hehre, H. F. Schaefer III,
 J. Kong, A. I. Krylov, P. M. W. Gill, M. Head-Gordon,
 Q-Chem, Version 3.1, Q-Chem, Inc., Pittsburgh, PA (2007).

 Additional authors for Version 3.1: 
 Z. Gan, Y. Zhao, N. E. Schultz, D. Truhlar, E. Epifanovsky and M. Oana.

 Additional authors for Version 3.2: 
 R. Baer, B. R. Brooks, D. Casanova, J.-D. Chai, C.-L. Cheng, 
 C. Cramer, D. Crittenden, A. Ghysels, G. Hawkins, E. G. Hohenstein, 
 C. Kelley, W. Kurlancheek, D. Liotard, E. Livshits, P. Manohar, 
 A. Marenich, D. Neuhauser, R. Olson, M. A. Rohrdanz, K. S. Thanthiriwatte, 
 A. J. W. Thom, V. Vanovschi, C. F. Williams, Q. Wu and Z.-Q. You. 


 Intel X86 Linux Version

 Q-chem begins on Mon Apr 11 17:40:31 2011  

 Parallel job on  1  processors
Processing $rem in /usr/local/qchem/config/preferences.

theFileMan(): MAXOPENFILES=974 MAX_SUB_FILE_NUM=16
Maximum size of a physical file is 2.0 GB, maximum size of a tmp-file is 32.0 GB


--------------------------------------------------------------
User input:
--------------------------------------------------------------

$molecule
-1,1
C
O,1,CO
H,1,CH,2,HCO

CO=1.18271512
CH=1.12830969
HCO=123.65060441

$end

$comment
negative
$end

$xc_functional
   X HF 1.0
   X BNL 1.0
   C LYP 1.0
$end

$rem
SYMMETRY_DECOMPOSITION	0
exchange 		general
BASIS                   g3large
omega			500
separate_jk		true
mem_static              760
max_scf_cycles          200
scf_final_print         1
sym_ignore              true
$end

--------------------------------------------------------------
 Writing REM_CC_EA            3
 ----------------------------------------------------
       Standard Nuclear Orientation (Angstroms)
    I     Atom         X            Y            Z
 ----------------------------------------------------
    1      C       0.000000     0.000000     0.000000
    2      O       0.000000     0.000000     1.182715
    3      H       0.939241     0.000000    -0.625227
 ----------------------------------------------------
 Nuclear Repulsion Energy =    26.3683319341 hartrees
 There are        8 alpha and        8 beta electrons
 Requested basis set is G3large
 There are 26 shells and 94 basis functions

Total QAlloc Memory Limit   2000 MB
Mega-Array Size       743 MB
MEM_STATIC part       760 MB

                       Distance Matrix (Angstroms)
             C (  1)   O (  2)
   O (  2)  1.182715
   H (  3)  1.128310  2.037358
 
 A cutoff of  1.0D-08 yielded    347 shell pairs
 There are   4563 function pairs (  5830 Cartesian)
Evaluating contribution to one-electron hamiltonian from nuclear
 Smallest overlap matrix eigenvalue = 1.08E-03
 Multipole matrices computed through 2nd order

  Scale SEOQF with 1.000000e-01/1.000000e-01/1.000000e-01

 Standard Electronic Orientation quadrupole field applied
 Nucleus-field energy     =    -0.0000000012 hartrees
 Guess from superposition of atomic densities
 Warning:  Energy on first SCF cycle will be non-variational
 A restricted hybrid HF-DFT SCF calculation will be
 performed using Pulay DIIS extrapolation
 Exchange:     1.0000 Hartree-Fock + 1.0000 BNL
 Correlation:  1.0000 LYP
 Using SG-1 standard quadrature grid
 SCF converges when DIIS error is below 1.0E-05
 Warning!  Inaccurate integrated density:
   Number of electrons =    16
   Numerical integral  =    15.000038108890
   Relative error      =    -6.2497618194 %
 ---------------------------------------
  Cycle       Energy         DIIS Error
 ---------------------------------------
    1    -112.9837941204      4.63E-02
    2    -112.6621048875      1.07E-02
    3    -112.6713449998      1.30E-02
    4    -112.7976053382      1.33E-03
    5    -112.8019667814      7.30E-04
    6    -112.8044925697      4.04E-04
    7    -112.8063657682      2.41E-04
    8    -112.8074626542      1.01E-04
    9    -112.8076737272      3.44E-05
   10    -112.8076904248      8.31E-06 Convergence criterion met
 ---------------------------------------
 One-Electron    Energy =  -211.1660793522
 Total Coulomb   Energy =    85.3886943494
 Alpha Exchange  Energy =    -1.8918058757
 Beta  Exchange  Energy =    -1.8918058757
 DFT   Exchange  Energy =    -9.0774870158
 DFT Correlation Energy =    -0.5375385876
 Nuclear Repu.   Energy =    26.3683319328
 Nuclear Attr.   Energy =  -323.7288330082
 Kinetic         Energy =   112.5627536560
 SCF time:  CPU 15.21 s  wall 40.61 s
 Final Alpha MO Eigenvalues
            1           2           3           4           5           6
    1 -18.5890628  -9.8287822  -0.9716063  -0.4715890  -0.3565283  -0.2947580
            7           8           9          10          11          12
    1  -0.2774989  -0.0143114   0.1803869   0.2458700   0.2471081   0.2800063
           13
    1   0.3298855
 Analysis of SCF Wavefunction
 
 --------------------------------------------------------------
                    Orbital Energies (a.u.)
 --------------------------------------------------------------
 
 Alpha MOs
 -- Occupied --
-18.589  -9.829  -0.972  -0.472  -0.357  -0.295  -0.277  -0.014
 -- Virtual --
  0.180   0.246   0.247   0.280   0.330   0.359   0.428   0.453
  0.473   0.481   0.549   0.707   0.819   0.877   0.879   0.956
  0.981   1.055   1.157   1.186   1.292   1.318   1.356   1.408
  1.433   1.517   1.728   1.786   1.863   2.012   2.061   2.333
  2.496   2.781   2.814   3.037   3.230   3.248   3.264   3.363
  3.441   3.478   3.622   3.646   3.674   3.817   3.935   3.967
  4.081   4.450   4.489   4.669   5.313   5.334   5.420   5.460
  5.475   5.755   5.843   6.131   6.700   6.834   7.186   7.203
  7.235   7.542   7.635   7.944  24.850  27.600  27.857  28.560
 41.152  41.353  41.458  41.555  41.595  43.969  44.048  44.144
 44.183  44.232  46.119  46.159  46.914  50.593
 --------------------------------------------------------------
 
          Ground-State Mulliken Net Atomic Charges

     Atom                 Charge (a.u.)
  ----------------------------------------
      1 C                    -0.715099
      2 O                    -0.262517
      3 H                    -0.022385
  ----------------------------------------
  Sum of atomic charges =    -1.000000

 -----------------------------------------------------------------
                    Cartesian Multipole Moments
 -----------------------------------------------------------------
    Charge (ESU x 10^10)
                -4.8032
    Dipole Moment (Debye)
         X       1.2945      Y       0.0035      Z      -1.0333
       Tot       1.6564
    Quadrupole Moments (Debye-Ang)
        XX     -20.3809     XY      -0.0077     YY     -15.2916
        XZ      -0.9362     YZ      -0.0012     ZZ     -21.0837
    Octapole Moments (Debye-Ang^2)
       XXX      -3.2468    XXY       0.0027    XYY       0.6165
       YYY       0.0197    XXZ      -1.7010    XYZ       0.0052
       YYZ      -4.6743    XZZ      -0.4222    YZZ       0.0048
       ZZZ     -20.9544
    Hexadecapole Moments (Debye-Ang^3)
      XXXX     -65.8689   XXXY      -0.0360   XXYY     -14.2535
      XYYY      -0.0338   YYYY     -24.8282   XXXZ       3.2313
      XXYZ       0.0003   XYYZ      -0.1383   YYYZ      -0.0041
      XXZZ     -26.6765   XYZZ      -0.0108   YYZZ     -18.0473
      XZZZ       0.3424   YZZZ      -0.0028   ZZZZ     -92.9786
 -----------------------------------------------------------------
 Total job time:  44.28s(wall), 15.31s(cpu) 
 Mon Apr 11 17:41:15 2011

        *************************************************************
        *                                                           *
        *  Thank you very much for using Q-Chem.  Have a nice day.  *
        *                                                           *
        *************************************************************


0 sent ACK to 0 
now end server 0 ... 
 
**********************************************************************
Job 2 of 3 
**********************************************************************
 
Process 0 of 1 is on cl145.stfx.acenet.ca - thread support 1
initial socket setup ...start
initial socket setup ...done 
now start server 0 ... 

cmd = /usr/bin/ssh clhead /usr/local/qchem/bin/get_hostid 213043601 > /globalscratch/itamblyn/bnl/g297_b3lyp_neut_g03Large/g2g71029/omega500/qchem6328/lic.dat
                  Welcome to Q-Chem
     A Quantum Leap Into The Future Of Chemistry

 Y. Shao, L. Fusti-Molnar, Y. Jung, J. Kussmann, C. Ochsenfeld,
 S. T. Brown, A. T. B. Gilbert, L. V. Slipchenko,S. V. Levchenko,
 D. P. O'Neill, R. A. DiStasio Jr., R. C. Lochan, T. Wang,
 G. J. O. Beran, N. A. Besley, J. M. Herbert, C. Y. Lin,
 T. Van Voorhis, S. H. Chien, A. Sodt, R. P. Steele, 
 V. A. Rassolov, P. E. Maslen, P. P. Korambath, R. D. Adamson,
 B. Austin, J. Baker, E. F. C. Byrd, H. Dachsel, R. J. Doerksen,
 A. Dreuw, B. D. Dunietz, A. D. Dutoi, T. R. Furlani,
 S. R. Gwaltney, A. Heyden, S. Hirata, C.-P. Hsu, G. Kedziora,
 R. Z. Khaliullin, P. Klunzinger, A. M. Lee, M. S. Lee, W. Liang,
 I. Lotan, N. Nair, B. Peters, E. I. Proynov, P. A. Pieniazek, 
 Y. M. Rhee, J. Ritchie, E. Rosta, C. D. Sherrill, 
 A. C. Simmonett, J. E. Subotnik, H. L. Woodcock III,
 W. Zhang, A. T. Bell, A. K. Chakraborty, D. M. Chipman,
 F. J. Keil, A. Warshel, W. J. Hehre, H. F. Schaefer III,
 J. Kong, A. I. Krylov, P. M. W. Gill, M. Head-Gordon,
 Q-Chem, Version 3.1, Q-Chem, Inc., Pittsburgh, PA (2007).

 Additional authors for Version 3.1: 
 Z. Gan, Y. Zhao, N. E. Schultz, D. Truhlar, E. Epifanovsky and M. Oana.

 Additional authors for Version 3.2: 
 R. Baer, B. R. Brooks, D. Casanova, J.-D. Chai, C.-L. Cheng, 
 C. Cramer, D. Crittenden, A. Ghysels, G. Hawkins, E. G. Hohenstein, 
 C. Kelley, W. Kurlancheek, D. Liotard, E. Livshits, P. Manohar, 
 A. Marenich, D. Neuhauser, R. Olson, M. A. Rohrdanz, K. S. Thanthiriwatte, 
 A. J. W. Thom, V. Vanovschi, C. F. Williams, Q. Wu and Z.-Q. You. 


 Intel X86 Linux Version

 Q-chem begins on Mon Apr 11 17:41:19 2011  

 Parallel job on  1  processors
Processing $rem in /usr/local/qchem/config/preferences.

theFileMan(): MAXOPENFILES=974 MAX_SUB_FILE_NUM=16
Maximum size of a physical file is 2.0 GB, maximum size of a tmp-file is 32.0 GB


--------------------------------------------------------------
User input:
--------------------------------------------------------------

$molecule
0,2
C
O,1,CO
H,1,CH,2,HCO

CO=1.18271512
CH=1.12830969
HCO=123.65060441

$end

$comment
neutral
$end

$xc_functional
   X HF 1.0
   X BNL 1.0
   C LYP 1.0
$end

$rem
SYMMETRY_DECOMPOSITION	0
exchange 		general
BASIS                   g3large
omega			500
separate_jk		true
mem_static              760
max_scf_cycles          200
scf_final_print         1
sym_ignore              true
$end

--------------------------------------------------------------
 Writing REM_CC_EA            3
 ----------------------------------------------------
       Standard Nuclear Orientation (Angstroms)
    I     Atom         X            Y            Z
 ----------------------------------------------------
    1      C       0.000000     0.000000     0.000000
    2      O       0.000000     0.000000     1.182715
    3      H       0.939241     0.000000    -0.625227
 ----------------------------------------------------
 Nuclear Repulsion Energy =    26.3683319341 hartrees
 There are        8 alpha and        7 beta electrons
 Requested basis set is G3large
 There are 26 shells and 94 basis functions

Total QAlloc Memory Limit   2000 MB
Mega-Array Size       743 MB
MEM_STATIC part       760 MB

                       Distance Matrix (Angstroms)
             C (  1)   O (  2)
   O (  2)  1.182715
   H (  3)  1.128310  2.037358
 
 A cutoff of  1.0D-08 yielded    347 shell pairs
 There are   4563 function pairs (  5830 Cartesian)
Evaluating contribution to one-electron hamiltonian from nuclear
 Smallest overlap matrix eigenvalue = 1.08E-03
 Multipole matrices computed through 2nd order

  Scale SEOQF with 1.000000e-01/1.000000e-01/1.000000e-01

 Standard Electronic Orientation quadrupole field applied
 Nucleus-field energy     =    -0.0000000012 hartrees
 Guess from superposition of atomic densities
 Warning:  Energy on first SCF cycle will be non-variational
 An unrestricted hybrid HF-DFT SCF calculation will be
 performed using Pulay DIIS extrapolation
 Exchange:     1.0000 Hartree-Fock + 1.0000 BNL
 Correlation:  1.0000 LYP
 Using SG-1 standard quadrature grid
 SCF converges when DIIS error is below 1.0E-05
 ---------------------------------------
  Cycle       Energy         DIIS Error
 ---------------------------------------
    1    -112.9837941204      4.63E-02
    2    -112.7365648228      7.39E-03
    3    -112.7237046692      1.01E-02
    4    -112.8045442103      7.75E-04
    5    -112.8076261007      3.55E-04
    6    -112.8094843075      2.14E-04
    7    -112.8104844777      1.37E-04
    8    -112.8110629336      8.23E-05
    9    -112.8113255193      3.19E-05
   10    -112.8113553195      1.09E-05
   11    -112.8113579801      3.98E-06 Convergence criterion met
 ---------------------------------------
 One-Electron    Energy =  -206.7134237663
 Total Coulomb   Energy =    80.6720111256
 Alpha Exchange  Energy =    -1.9332722963
 Beta  Exchange  Energy =    -1.6919446211
 DFT   Exchange  Energy =    -9.0052408201
 DFT Correlation Energy =    -0.5078195347
 Nuclear Repu.   Energy =    26.3683319328
 Nuclear Attr.   Energy =  -318.9888904475
 Kinetic         Energy =   112.2754666812
 <S^2> = 0.7540
 SCF time:  CPU 19.53 s  wall 51.12 s
 Final Alpha MO Eigenvalues
            1           2           3           4           5           6
    1 -18.9076182 -10.1531650  -1.2764114  -0.7823293  -0.6595268  -0.5986987
            7           8           9          10          11          12
    1  -0.5874254  -0.3589664   0.0362977   0.0383701   0.0856615   0.1038785
           13
    1   0.1185004
 Final Beta MO Eigenvalues
            1           2           3           4           5           6
    1 -18.8987792 -10.1426338  -1.2613954  -0.7461665  -0.6315178  -0.5782217
            7           8           9          10          11          12
    1  -0.5346549   0.0103288   0.0360016   0.0462359   0.0846770   0.1123499
 Analysis of SCF Wavefunction
 
 --------------------------------------------------------------
                    Orbital Energies (a.u.)
 --------------------------------------------------------------
 
 Alpha MOs
 -- Occupied --
-18.908 -10.153  -1.276  -0.782  -0.660  -0.599  -0.587  -0.359
 -- Virtual --
  0.036   0.038   0.086   0.104   0.119   0.156   0.227   0.244
  0.278   0.289   0.342   0.458   0.551   0.612   0.613   0.670
  0.702   0.765   0.880   0.905   1.020   1.066   1.089   1.145
  1.173   1.232   1.446   1.500   1.589   1.727   1.773   2.052
  2.201   2.481   2.529   2.731   2.912   2.936   2.949   3.050
  3.132   3.149   3.292   3.315   3.351   3.506   3.616   3.667
  3.758   4.135   4.172   4.348   4.999   5.040   5.107   5.160
  5.174   5.463   5.543   5.816   6.399   6.519   6.872   6.889
  6.933   7.248   7.325   7.643  24.527  27.279  27.527  28.240
 40.825  41.029  41.132  41.233  41.269  43.644  43.723  43.830
 43.857  43.914  45.804  45.834  46.600  50.275
 
 Beta MOs
 -- Occupied --
-18.899 -10.143  -1.261  -0.746  -0.632  -0.578  -0.535
 -- Virtual --
  0.010   0.036   0.046   0.085   0.112   0.124   0.157   0.243
  0.244   0.278   0.292   0.344   0.469   0.577   0.620   0.629
  0.688   0.718   0.791   0.894   0.915   1.033   1.071   1.098
  1.158   1.177   1.252   1.457   1.516   1.598   1.743   1.791
  2.058   2.222   2.506   2.543   2.746   2.941   2.958   2.973
  3.071   3.151   3.185   3.327   3.354   3.379   3.531   3.642
  3.679   3.788   4.153   4.202   4.382   5.026   5.049   5.135
  5.178   5.192   5.470   5.558   5.842   6.409   6.543   6.900
  6.916   6.946   7.256   7.352   7.658  24.541  27.287  27.545
 28.247  40.839  41.040  41.145  41.240  41.282  43.666  43.745
 43.838  43.880  43.927  45.810  45.851  46.606  50.286
 --------------------------------------------------------------
 
          Ground-State Mulliken Net Atomic Charges

     Atom                 Charge (a.u.)    Spin (a.u.)
  --------------------------------------------------------
      1 C                    -0.010520       0.595135
      2 O                    -0.129320       0.244115
      3 H                     0.139839       0.160750
  --------------------------------------------------------
  Sum of atomic charges =     0.000000
  Sum of spin   charges =     1.000000

 -----------------------------------------------------------------
                    Cartesian Multipole Moments
 -----------------------------------------------------------------
    Charge (ESU x 10^10)
                 0.0000
    Dipole Moment (Debye)
         X       1.0908      Y      -0.0001      Z      -1.6036
       Tot       1.9394
    Quadrupole Moments (Debye-Ang)
        XX     -11.4138     XY      -0.0001     YY     -11.1727
        XZ      -0.7616     YZ      -0.0001     ZZ     -13.6796
    Octapole Moments (Debye-Ang^2)
       XXX      -0.6068    XXY       0.0000    XYY      -0.4414
       YYY      -0.0003    XXZ      -6.3384    XYZ      -0.0002
       YYZ      -5.7435    XZZ      -0.0004    YZZ      -0.0001
       ZZZ     -20.4079
    Hexadecapole Moments (Debye-Ang^3)
      XXXX     -15.8048   XXXY       0.0000   XXYY      -4.5295
      XYYY       0.0000   YYYY     -10.3961   XXXZ       0.3968
      XXYZ       0.0000   XYYZ       0.3248   YYYZ      -0.0001
      XXZZ     -12.6616   XYZZ      -0.0003   YYZZ     -11.5562
      XZZZ       0.6759   YZZZ      -0.0002   ZZZZ     -62.8471
 -----------------------------------------------------------------
 Total job time:  55.41s(wall), 19.64s(cpu) 
 Mon Apr 11 17:42:14 2011

        *************************************************************
        *                                                           *
        *  Thank you very much for using Q-Chem.  Have a nice day.  *
        *                                                           *
        *************************************************************


0 sent ACK to 0 
now end server 0 ... 
 
**********************************************************************
Job 3 of 3 
**********************************************************************
 
Process 0 of 1 is on cl145.stfx.acenet.ca - thread support 1
initial socket setup ...start
initial socket setup ...done 
now start server 0 ... 

cmd = /usr/bin/ssh clhead /usr/local/qchem/bin/get_hostid 1603220124 > /globalscratch/itamblyn/bnl/g297_b3lyp_neut_g03Large/g2g71029/omega500/qchem6328/lic.dat
                  Welcome to Q-Chem
     A Quantum Leap Into The Future Of Chemistry

 Y. Shao, L. Fusti-Molnar, Y. Jung, J. Kussmann, C. Ochsenfeld,
 S. T. Brown, A. T. B. Gilbert, L. V. Slipchenko,S. V. Levchenko,
 D. P. O'Neill, R. A. DiStasio Jr., R. C. Lochan, T. Wang,
 G. J. O. Beran, N. A. Besley, J. M. Herbert, C. Y. Lin,
 T. Van Voorhis, S. H. Chien, A. Sodt, R. P. Steele, 
 V. A. Rassolov, P. E. Maslen, P. P. Korambath, R. D. Adamson,
 B. Austin, J. Baker, E. F. C. Byrd, H. Dachsel, R. J. Doerksen,
 A. Dreuw, B. D. Dunietz, A. D. Dutoi, T. R. Furlani,
 S. R. Gwaltney, A. Heyden, S. Hirata, C.-P. Hsu, G. Kedziora,
 R. Z. Khaliullin, P. Klunzinger, A. M. Lee, M. S. Lee, W. Liang,
 I. Lotan, N. Nair, B. Peters, E. I. Proynov, P. A. Pieniazek, 
 Y. M. Rhee, J. Ritchie, E. Rosta, C. D. Sherrill, 
 A. C. Simmonett, J. E. Subotnik, H. L. Woodcock III,
 W. Zhang, A. T. Bell, A. K. Chakraborty, D. M. Chipman,
 F. J. Keil, A. Warshel, W. J. Hehre, H. F. Schaefer III,
 J. Kong, A. I. Krylov, P. M. W. Gill, M. Head-Gordon,
 Q-Chem, Version 3.1, Q-Chem, Inc., Pittsburgh, PA (2007).

 Additional authors for Version 3.1: 
 Z. Gan, Y. Zhao, N. E. Schultz, D. Truhlar, E. Epifanovsky and M. Oana.

 Additional authors for Version 3.2: 
 R. Baer, B. R. Brooks, D. Casanova, J.-D. Chai, C.-L. Cheng, 
 C. Cramer, D. Crittenden, A. Ghysels, G. Hawkins, E. G. Hohenstein, 
 C. Kelley, W. Kurlancheek, D. Liotard, E. Livshits, P. Manohar, 
 A. Marenich, D. Neuhauser, R. Olson, M. A. Rohrdanz, K. S. Thanthiriwatte, 
 A. J. W. Thom, V. Vanovschi, C. F. Williams, Q. Wu and Z.-Q. You. 


 Intel X86 Linux Version

 Q-chem begins on Mon Apr 11 17:42:18 2011  

 Parallel job on  1  processors
Processing $rem in /usr/local/qchem/config/preferences.

theFileMan(): MAXOPENFILES=974 MAX_SUB_FILE_NUM=16
Maximum size of a physical file is 2.0 GB, maximum size of a tmp-file is 32.0 GB


--------------------------------------------------------------
User input:
--------------------------------------------------------------

$molecule
1,1
C
O,1,CO
H,1,CH,2,HCO

CO=1.18271512
CH=1.12830969
HCO=123.65060441

$end

$comment
positive
$end

$xc_functional
   X HF 1.0
   X BNL 1.0
   C LYP 1.0
$end

$rem
SYMMETRY_DECOMPOSITION	0
exchange 		general
BASIS                   g3large
omega			500
separate_jk		true
mem_static              760
max_scf_cycles          200
scf_final_print         1
sym_ignore              true
$end

--------------------------------------------------------------
 Writing REM_CC_EA            3
 ----------------------------------------------------
       Standard Nuclear Orientation (Angstroms)
    I     Atom         X            Y            Z
 ----------------------------------------------------
    1      C       0.000000     0.000000     0.000000
    2      O       0.000000     0.000000     1.182715
    3      H       0.939241     0.000000    -0.625227
 ----------------------------------------------------
 Nuclear Repulsion Energy =    26.3683319341 hartrees
 There are        7 alpha and        7 beta electrons
 Requested basis set is G3large
 There are 26 shells and 94 basis functions

Total QAlloc Memory Limit   2000 MB
Mega-Array Size       743 MB
MEM_STATIC part       760 MB

                       Distance Matrix (Angstroms)
             C (  1)   O (  2)
   O (  2)  1.182715
   H (  3)  1.128310  2.037358
 
 A cutoff of  1.0D-08 yielded    347 shell pairs
 There are   4563 function pairs (  5830 Cartesian)
Evaluating contribution to one-electron hamiltonian from nuclear
 Smallest overlap matrix eigenvalue = 1.08E-03
 Multipole matrices computed through 2nd order

  Scale SEOQF with 1.000000e-01/1.000000e-01/1.000000e-01

 Standard Electronic Orientation quadrupole field applied
 Nucleus-field energy     =    -0.0000000012 hartrees
 Guess from superposition of atomic densities
 Warning:  Energy on first SCF cycle will be non-variational
 A restricted hybrid HF-DFT SCF calculation will be
 performed using Pulay DIIS extrapolation
 Exchange:     1.0000 Hartree-Fock + 1.0000 BNL
 Correlation:  1.0000 LYP
 Using SG-1 standard quadrature grid
 SCF converges when DIIS error is below 1.0E-05
 Warning!  Inaccurate integrated density:
   Number of electrons =    14
   Numerical integral  =    15.000038108890
   Relative error      =     7.1431293492 %
 ---------------------------------------
  Cycle       Energy         DIIS Error
 ---------------------------------------
    1    -112.9837941204      4.63E-02
    2    -112.3454276117      8.52E-03
    3    -112.3308303463      1.22E-02
    4    -112.4415791259      2.01E-03
    5    -112.4450474601      4.59E-04
    6    -112.4457572709      1.53E-04
    7    -112.4458773425      4.52E-05
    8    -112.4458829927      1.33E-05
    9    -112.4458839736      4.60E-06 Convergence criterion met
 ---------------------------------------
 One-Electron    Energy =  -201.0640227708
 Total Coulomb   Energy =    74.9795023765
 Alpha Exchange  Energy =    -1.7045429467
 Beta  Exchange  Energy =    -1.7045429467
 DFT   Exchange  Energy =    -8.8398542411
 DFT Correlation Energy =    -0.4807553776
 Nuclear Repu.   Energy =    26.3683319328
 Nuclear Attr.   Energy =  -312.7117920888
 Kinetic         Energy =   111.6477693180
 SCF time:  CPU 13.95 s  wall 43.32 s
 Final Alpha MO Eigenvalues
            1           2           3           4           5           6
    1 -19.3224237 -10.5733609  -1.6515727  -1.1260405  -1.0092238  -0.9488429
            7           8           9          10          11          12
    1  -0.9341039  -0.3721079  -0.2912942  -0.1428289  -0.1050808  -0.0825095
 Analysis of SCF Wavefunction
 
 --------------------------------------------------------------
                    Orbital Energies (a.u.)
 --------------------------------------------------------------
 
 Alpha MOs
 -- Occupied --
-19.322 -10.573  -1.652  -1.126  -1.009  -0.949  -0.934
 -- Virtual --
 -0.372  -0.291  -0.143  -0.105  -0.083  -0.078  -0.019  -0.005
  0.035   0.067   0.079   0.109   0.194   0.283   0.316   0.330
  0.361   0.403   0.458   0.573   0.588   0.710   0.784   0.786
  0.852   0.872   0.917   1.124   1.186   1.270   1.394   1.440
  1.713   1.864   2.151   2.194   2.367   2.553   2.580   2.591
  2.692   2.772   2.785   2.923   2.951   2.978   3.148   3.250
  3.311   3.392   3.760   3.826   3.999   4.637   4.675   4.738
  4.798   4.813   5.103   5.179   5.450   6.029   6.142   6.497
  6.513   6.560   6.881   6.954   7.273  24.115  26.862  27.108
 27.823  40.406  40.610  40.712  40.814  40.849  43.236  43.316
 43.424  43.449  43.507  45.394  45.420  46.189  49.865
 --------------------------------------------------------------
 
          Ground-State Mulliken Net Atomic Charges

     Atom                 Charge (a.u.)
  ----------------------------------------
      1 C                     0.398380
      2 O                     0.258208
      3 H                     0.343412
  ----------------------------------------
  Sum of atomic charges =     1.000000

 -----------------------------------------------------------------
                    Cartesian Multipole Moments
 -----------------------------------------------------------------
    Charge (ESU x 10^10)
                 4.8032
    Dipole Moment (Debye)
         X       1.3189      Y       0.0000      Z      -0.5923
       Tot       1.4458
    Quadrupole Moments (Debye-Ang)
        XX      -7.1837     XY       0.0000     YY      -9.1501
        XZ      -0.9926     YZ       0.0000     ZZ      -7.8965
    Octapole Moments (Debye-Ang^2)
       XXX       0.8037    XXY       0.0000    XYY      -0.5020
       YYY       0.0001    XXZ      -6.6258    XYZ       0.0001
       YYZ      -5.2960    XZZ       0.5167    YZZ       0.0000
       ZZZ     -14.9086
    Hexadecapole Moments (Debye-Ang^3)
      XXXX      -6.7434   XXXY       0.0000   XXYY      -2.6871
      XYYY       0.0000   YYYY      -6.9229   XXXZ      -0.6074
      XXYZ       0.0000   XYYZ       0.3293   YYYZ       0.0000
      XXZZ      -8.2403   XYZZ       0.0001   YYZZ      -9.0391
      XZZZ       0.5474   YZZZ      -0.0001   ZZZZ     -45.4851
 -----------------------------------------------------------------
 Total job time:  48.29s(wall), 14.04s(cpu) 
 Mon Apr 11 17:43:07 2011

        *************************************************************
        *                                                           *
        *  Thank you very much for using Q-Chem.  Have a nice day.  *
        *                                                           *
        *************************************************************


0 sent ACK to 0 
now end server 0 ... 
