Process 0 of 1 is on cl068.stfx.acenet.ca - thread support 1
initial socket setup ...start
initial socket setup ...done 
now start server 0 ... 

cmd = /usr/bin/ssh clhead /usr/local/qchem/bin/get_hostid 103303717 > /scratch/tmp/6067076.1.short.q/qchem28296/lic.dat
                  Welcome to Q-Chem
     A Quantum Leap Into The Future Of Chemistry

 Y. Shao, L. Fusti-Molnar, Y. Jung, J. Kussmann, C. Ochsenfeld,
 S. T. Brown, A. T. B. Gilbert, L. V. Slipchenko,S. V. Levchenko,
 D. P. O'Neill, R. A. DiStasio Jr., R. C. Lochan, T. Wang,
 G. J. O. Beran, N. A. Besley, J. M. Herbert, C. Y. Lin,
 T. Van Voorhis, S. H. Chien, A. Sodt, R. P. Steele, 
 V. A. Rassolov, P. E. Maslen, P. P. Korambath, R. D. Adamson,
 B. Austin, J. Baker, E. F. C. Byrd, H. Dachsel, R. J. Doerksen,
 A. Dreuw, B. D. Dunietz, A. D. Dutoi, T. R. Furlani,
 S. R. Gwaltney, A. Heyden, S. Hirata, C.-P. Hsu, G. Kedziora,
 R. Z. Khaliullin, P. Klunzinger, A. M. Lee, M. S. Lee, W. Liang,
 I. Lotan, N. Nair, B. Peters, E. I. Proynov, P. A. Pieniazek, 
 Y. M. Rhee, J. Ritchie, E. Rosta, C. D. Sherrill, 
 A. C. Simmonett, J. E. Subotnik, H. L. Woodcock III,
 W. Zhang, A. T. Bell, A. K. Chakraborty, D. M. Chipman,
 F. J. Keil, A. Warshel, W. J. Hehre, H. F. Schaefer III,
 J. Kong, A. I. Krylov, P. M. W. Gill, M. Head-Gordon,
 Q-Chem, Version 3.1, Q-Chem, Inc., Pittsburgh, PA (2007).

 Additional authors for Version 3.1: 
 Z. Gan, Y. Zhao, N. E. Schultz, D. Truhlar, E. Epifanovsky and M. Oana.

 Additional authors for Version 3.2: 
 R. Baer, B. R. Brooks, D. Casanova, J.-D. Chai, C.-L. Cheng, 
 C. Cramer, D. Crittenden, A. Ghysels, G. Hawkins, E. G. Hohenstein, 
 C. Kelley, W. Kurlancheek, D. Liotard, E. Livshits, P. Manohar, 
 A. Marenich, D. Neuhauser, R. Olson, M. A. Rohrdanz, K. S. Thanthiriwatte, 
 A. J. W. Thom, V. Vanovschi, C. F. Williams, Q. Wu and Z.-Q. You. 


 Intel X86 Linux Version

 Q-chem begins on Wed Jul 24 15:58:52 2013  

 Parallel job on  1  processors
Processing $rem in /usr/local/qchem/config/preferences.

theFileMan(): MAXOPENFILES=974 MAX_SUB_FILE_NUM=16
Maximum size of a physical file is 2.0 GB, maximum size of a tmp-file is 32.0 GB


--------------------------------------------------------------
User input:
--------------------------------------------------------------

$molecule
0,1
Si        -0.00000       -0.00000        0.05795
Si         0.00000        0.00000        2.29228
H          1.38673       -0.00000       -0.43020
H         -0.69338       -1.20095       -0.43019
H         -0.69338        1.20095       -0.43019
H         -1.38673       -0.00000        2.78043
H          0.69338       -1.20095        2.78042
H          0.69338        1.20095        2.78042
$end


$comment
b3lyp opt
$end

$rem
   EXCHANGE B3LYP
   UNRESTRICTED TRUE
   SYMMETRY_DECOMPOSITION	0
   BASIS                   g3large
   JOBTYPE                 opt
   mem_static              760
   max_scf_cycles          200
   scf_final_print         1
   sym_ignore              true
$end


--------------------------------------------------------------
 Writing REM_CC_EA            8
 ----------------------------------------------------
       Standard Nuclear Orientation (Angstroms)
    I     Atom         X            Y            Z
 ----------------------------------------------------
    1      Si      0.000000     0.000000     0.057950
    2      Si      0.000000     0.000000     2.292280
    3      H       1.386730     0.000000    -0.430200
    4      H      -0.693380    -1.200950    -0.430190
    5      H      -0.693380     1.200950    -0.430190
    6      H      -1.386730     0.000000     2.780430
    7      H       0.693380    -1.200950     2.780420
    8      H       0.693380     1.200950     2.780420
 ----------------------------------------------------
 Nuclear Repulsion Energy =    93.8088899611 hartrees
 There are       17 alpha and       17 beta electrons
 Requested basis set is G3large
 There are 74 shells and 192 basis functions

Total QAlloc Memory Limit   2000 MB
Mega-Array Size       743 MB
MEM_STATIC part       760 MB
 A cutoff of  1.0D-11 yielded   2627 shell pairs
 There are  17892 function pairs ( 23159 Cartesian)
Evaluating contribution to one-electron hamiltonian from nuclear
 Smallest overlap matrix eigenvalue = 1.65E-04
 Multipole matrices computed through 2nd order

  Scale SEOQF with 1.000000e-01/1.000000e-01/1.000000e-01

 Standard Electronic Orientation quadrupole field applied
 Nucleus-field energy     =    -0.0000000098 hartrees
 Guess from superposition of atomic densities
 Warning:  Energy on first SCF cycle will be non-variational
 An unrestricted hybrid HF-DFT SCF calculation will be
 performed using Pulay DIIS extrapolation
 Exchange:     0.2000 Hartree-Fock + 0.0800 Slater + 0.7200 Becke88
 Correlation:  0.8100 LYP + 0.1900 VWN1RPA
 Using SG-1 standard quadrature grid
 SCF converges when DIIS error is below 1.0E-08
 ---------------------------------------
  Cycle       Energy         DIIS Error
 ---------------------------------------
    1    -582.6197374664      2.33E-02
    2    -582.6292404134      1.50E-03
    3    -582.6429485893      6.03E-04
    4    -582.6451292768      1.85E-04
    5    -582.6452685392      3.48E-05
    6    -582.6452741679      7.51E-06
    7    -582.6452743813      9.30E-07
    8    -582.6452743834      1.12E-07
    9    -582.6452743885      2.30E-08
   10    -582.6452743895      1.90E-09 Convergence criterion met
 ---------------------------------------
 One-Electron    Energy =  -993.0491926391
 Total Coulomb   Energy =   360.7523895146
 Alpha Exchange  Energy =    -4.2850278726
 Beta  Exchange  Energy =    -4.2850278726
 DFT   Exchange  Energy =   -33.9701123188
 DFT Correlation Energy =    -1.6171931521
 Nuclear Repu.   Energy =    93.8088899513
 Nuclear Attr.   Energy = -1574.7517105875
 Kinetic         Energy =   581.7025179483
 <S^2> = 0.0000
 SCF time:  CPU 129.96 s  wall 131.28 s
 Final Alpha MO Eigenvalues
            1           2           3           4           5           6
    1 -66.0852205 -66.0852176  -5.2628573  -5.2626721  -3.6211182  -3.6206027
            7           8           9          10          11          12
    1  -3.6205848  -3.6205078  -3.6204903  -3.6200638  -0.5807195  -0.5077175
           13          14          15          16          17          18
    1  -0.3733151  -0.3733089  -0.3449316  -0.3449266  -0.3024097  -0.0104539
           19          20          21          22
    1   0.0003101   0.0041466   0.0041628   0.0205651
 Final Beta MO Eigenvalues
            1           2           3           4           5           6
    1 -66.0852205 -66.0852176  -5.2628573  -5.2626721  -3.6211182  -3.6206027
            7           8           9          10          11          12
    1  -3.6205848  -3.6205078  -3.6204903  -3.6200638  -0.5807195  -0.5077175
           13          14          15          16          17          18
    1  -0.3733151  -0.3733089  -0.3449316  -0.3449266  -0.3024097  -0.0104539
           19          20          21          22
    1   0.0003101   0.0041466   0.0041628   0.0205651
 Analysis of SCF Wavefunction
 
 --------------------------------------------------------------
                    Orbital Energies (a.u.)
 --------------------------------------------------------------
 
 Alpha MOs
 -- Occupied --
-66.085 -66.085  -5.263  -5.263  -3.621  -3.621  -3.621  -3.621
 -3.620  -3.620  -0.581  -0.508  -0.373  -0.373  -0.345  -0.345
 -0.302
 -- Virtual --
 -0.010   0.000   0.004   0.004   0.021   0.021   0.032   0.032
  0.032   0.046   0.056   0.056   0.099   0.106   0.108   0.108
  0.122   0.122   0.125   0.150   0.150   0.156   0.157   0.220
  0.256   0.256   0.262   0.262   0.265   0.300   0.300   0.320
  0.320   0.347   0.365   0.365   0.398   0.425   0.430   0.457
  0.457   0.467   0.477   0.488   0.493   0.494   0.620   0.620
  0.632   0.645   0.655   0.655   0.662   0.685   0.685   0.689
  0.689   0.745   0.822   0.822   0.838   0.839   0.882   0.903
  0.903   0.948   0.948   0.956   0.974   1.064   1.097   1.111
  1.111   1.141   1.141   1.198   1.198   1.243   1.243   1.249
  1.308   1.338   1.338   1.344   1.401   1.410   1.410   1.504
  1.504   1.516   1.517   1.595   1.684   2.021   2.051   2.051
  2.096   2.117   2.165   2.165   2.228   2.249   2.249   2.342
  2.369   2.369   2.507   2.809   2.809   2.818   2.818   3.072
  3.074   3.523   3.524   3.588   3.590   3.591   3.764   3.765
  3.777   3.778   4.031   4.046   4.046   4.049   4.049   4.060
  4.105   4.105   4.109   4.138   4.138   4.200   4.204   4.318
  4.452   4.453   4.492   4.551   4.552   6.010   6.160  11.454
 11.454  11.502  11.502  11.572  11.694  17.545  17.578  17.590
 17.621  17.654  17.783  17.837  17.856  17.863  17.896  22.212
 22.220  22.222  22.226  22.229  22.240  22.241  22.247  22.253
 22.253  22.257  22.258  22.272  22.289 141.428 141.608
 
 Beta MOs
 -- Occupied --
-66.085 -66.085  -5.263  -5.263  -3.621  -3.621  -3.621  -3.621
 -3.620  -3.620  -0.581  -0.508  -0.373  -0.373  -0.345  -0.345
 -0.302
 -- Virtual --
 -0.010   0.000   0.004   0.004   0.021   0.021   0.032   0.032
  0.032   0.046   0.056   0.056   0.099   0.106   0.108   0.108
  0.122   0.122   0.125   0.150   0.150   0.156   0.157   0.220
  0.256   0.256   0.262   0.262   0.265   0.300   0.300   0.320
  0.320   0.347   0.365   0.365   0.398   0.425   0.430   0.457
  0.457   0.467   0.477   0.488   0.493   0.494   0.620   0.620
  0.632   0.645   0.655   0.655   0.662   0.685   0.685   0.689
  0.689   0.745   0.822   0.822   0.838   0.839   0.882   0.903
  0.903   0.948   0.948   0.956   0.974   1.064   1.097   1.111
  1.111   1.141   1.141   1.198   1.198   1.243   1.243   1.249
  1.308   1.338   1.338   1.344   1.401   1.410   1.410   1.504
  1.504   1.516   1.517   1.595   1.684   2.021   2.051   2.051
  2.096   2.117   2.165   2.165   2.228   2.249   2.249   2.342
  2.369   2.369   2.507   2.809   2.809   2.818   2.818   3.072
  3.074   3.523   3.524   3.588   3.590   3.591   3.764   3.765
  3.777   3.778   4.031   4.046   4.046   4.049   4.049   4.060
  4.105   4.105   4.109   4.138   4.138   4.200   4.204   4.318
  4.452   4.453   4.492   4.551   4.552   6.010   6.160  11.454
 11.454  11.502  11.502  11.572  11.694  17.545  17.578  17.590
 17.621  17.654  17.783  17.837  17.856  17.863  17.896  22.212
 22.220  22.222  22.226  22.229  22.240  22.241  22.247  22.253
 22.253  22.257  22.258  22.272  22.289 141.428 141.608
 --------------------------------------------------------------
 
          Ground-State Mulliken Net Atomic Charges

     Atom                 Charge (a.u.)    Spin (a.u.)
  --------------------------------------------------------
      1 Si                    0.278292       0.000000
      2 Si                    0.278292       0.000000
      3 H                    -0.092752       0.000000
      4 H                    -0.092770       0.000000
      5 H                    -0.092770       0.000000
      6 H                    -0.092752       0.000000
      7 H                    -0.092770       0.000000
      8 H                    -0.092770       0.000000
  --------------------------------------------------------
  Sum of atomic charges =     0.000000
  Sum of spin   charges =     0.000000

 -----------------------------------------------------------------
                    Cartesian Multipole Moments
 -----------------------------------------------------------------
    Charge (ESU x 10^10)
                 0.0000
    Dipole Moment (Debye)
         X       0.0000      Y       0.0000      Z       0.0000
       Tot       0.0000
    Quadrupole Moments (Debye-Ang)
        XX     -31.2360     XY       0.0000     YY     -31.2358
        XZ       0.0004     YZ       0.0000     ZZ     -32.1204
    Octapole Moments (Debye-Ang^2)
       XXX       0.0000    XXY       0.0000    XYY       0.0000
       YYY       0.0000    XXZ     -36.7059    XYZ       0.0000
       YYZ     -36.7056    XZZ       0.0009    YZZ       0.0000
       ZZZ    -113.2353
    Hexadecapole Moments (Debye-Ang^3)
      XXXX     -83.4744   XXXY       0.0000   XXYY     -27.8244
      XYYY       0.0000   YYYY     -83.4721   XXXZ       1.9969
      XXYZ       0.0000   XYYZ      -1.9956   YYYZ       0.0000
      XXZZ    -115.9072   XYZZ       0.0000   YYZZ    -115.9073
      XZZZ       0.0051   YZZZ       0.0000   ZZZZ    -593.7462
 -----------------------------------------------------------------
 Calculating analytic gradient of the SCF energy
 Gradient of XC Energy
            1           2           3           4           5           6
    1  -0.0000409   0.0000409   0.1091345  -0.0544922  -0.0544922  -0.1091345
    2   0.0000000  -0.0000000  -0.0000000  -0.0943922   0.0943922   0.0000000
    3   0.0417770  -0.0417770  -0.0372836  -0.0372800  -0.0372800   0.0372836
            7           8
    1   0.0544922   0.0544922
    2  -0.0943922   0.0943922
    3   0.0372800   0.0372800
 Gradient of SCF Energy
            1           2           3           4           5           6
    1  -0.0002003   0.0002003  -0.0037098   0.0019482   0.0019482   0.0037098
    2   0.0000000  -0.0000000  -0.0000000   0.0033315  -0.0033315   0.0000000
    3   0.0190493  -0.0190493   0.0033413   0.0033120   0.0033120  -0.0033413
            7           8
    1  -0.0019482  -0.0019482
    2   0.0033315  -0.0033315
    3  -0.0033120  -0.0033120
 Max gradient component =       1.905E-02
 RMS gradient           =       6.052E-03
 Gradient time:  CPU 56.25 s  wall 56.37 s
 Geometry Optimization Parameters
   NAtoms,    NIC,     NZ,  NCons,   NDum,   NFix, NCnnct, MaxDiis
        8      44       0       0       0       0       0       0


** GEOMETRY OPTIMIZATION IN DELOCALIZED INTERNAL COORDINATES **
   Searching for a Minimum

   Optimization Cycle:   1

                       Coordinates (Angstroms)
     ATOM              X           Y           Z
    1  Si          0.000000    0.000000    0.057950
    2  Si          0.000000    0.000000    2.292280
    3  H           1.386730    0.000000   -0.430200
    4  H          -0.693380   -1.200950   -0.430190
    5  H          -0.693380    1.200950   -0.430190
    6  H          -1.386730    0.000000    2.780430
    7  H           0.693380   -1.200950    2.780420
    8  H           0.693380    1.200950    2.780420
   Point Group: c1    Number of degrees of freedom:  18


   Energy is   -582.645274389


 Attempting to Generate Delocalized Internal Coordinates

 15 Hessian modes will be used to form the next step
  Hessian Eigenvalues:
     0.063252    0.063252    0.160000    0.160000    0.160000    0.160000
     0.160000    0.160000    0.173439    0.182457    0.182457    0.182457
     0.182457    0.182462    0.182462

 Minimum Search - Taking Simple RFO Step
 Searching for Lamda that Minimizes Along All modes
 Value Taken    Lamda =  -0.00588635
 Step Taken.  Stepsize is  0.181266

                             Maximum     Tolerance    Cnvgd?
         Gradient           0.024258      0.000300      NO
         Displacement       0.138482      0.001200      NO
         Energy change     *********      0.000001      NO


 New Cartesian Coordinates Obtained by Inverse Iteration

 Displacement from previous Coordinates is:  0.339540
 Writing REM_CC_EA            8
 ----------------------------------------------------
       Standard Nuclear Orientation (Angstroms)
    I     Atom         X            Y            Z
 ----------------------------------------------------
    1      Si      0.000335     0.000000     0.015140
    2      Si     -0.000335     0.000000     2.335090
    3      H       1.391323     0.000000    -0.499437
    4      H      -0.695581    -1.205014    -0.498934
    5      H      -0.695581     1.205014    -0.498934
    6      H      -1.391323     0.000000     2.849667
    7      H       0.695581    -1.205014     2.849164
    8      H       0.695581     1.205014     2.849164
 ----------------------------------------------------
 Nuclear Repulsion Energy =    91.3106433792 hartrees
 There are       17 alpha and       17 beta electrons
 Applying Cartesian multipole field
    Component          Value
    ---------          -----
     (2,0,0)        1.00000E-11
     (0,2,0)        2.00000E-11
     (0,0,2)       -3.00000E-11
 Nucleus-field energy     =    -0.0000000102 hartrees
 Requested basis set is G3large
 There are 74 shells and 192 basis functions
 A cutoff of  1.0D-11 yielded   2609 shell pairs
 There are  17730 function pairs ( 22979 Cartesian)
Evaluating contribution to one-electron hamiltonian from nuclear
 Smallest overlap matrix eigenvalue = 1.90E-04
 Multipole matrices computed through 2nd order
 Guess MOs from SCF MO coefficient file
Reading MOs from coefficient file
Reading MOs from coefficient file
 An unrestricted hybrid HF-DFT SCF calculation will be
 performed using Pulay DIIS extrapolation
 Exchange:     0.2000 Hartree-Fock + 0.0800 Slater + 0.7200 Becke88
 Correlation:  0.8100 LYP + 0.1900 VWN1RPA
 Using SG-1 standard quadrature grid
 SCF converges when DIIS error is below 1.0E-08
 ---------------------------------------
  Cycle       Energy         DIIS Error
 ---------------------------------------
    1    -582.6320960482      1.47E-03
    2    -582.6485670746      1.10E-04
    3    -582.6485921901      6.39E-05
    4    -582.6486149223      1.93E-05
    5    -582.6486162469      1.44E-06
    6    -582.6486162547      2.05E-07
    7    -582.6486162549      4.52E-08
    8    -582.6486162561      4.09E-09 Convergence criterion met
 ---------------------------------------
 One-Electron    Energy =  -987.9842597095
 Total Coulomb   Energy =   358.1432587884
 Alpha Exchange  Energy =    -4.2811602925
 Beta  Exchange  Energy =    -4.2811602925
 DFT   Exchange  Energy =   -33.9414076623
 DFT Correlation Energy =    -1.6145304567
 Nuclear Repu.   Energy =    91.3106433690
 Nuclear Attr.   Energy = -1569.5135866489
 Kinetic         Energy =   581.5293269394
 <S^2> = 0.0000
 SCF time:  CPU 104.38 s  wall 104.60 s
 Final Alpha MO Eigenvalues
            1           2           3           4           5           6
    1 -66.0933034 -66.0933000  -5.2686895  -5.2685659  -3.6269533  -3.6265679
            7           8           9          10          11          12
    1  -3.6265553  -3.6265070  -3.6264949  -3.6262707  -0.5733547  -0.5091178
           13          14          15          16          17          18
    1  -0.3690127  -0.3689699  -0.3447294  -0.3446637  -0.3019852  -0.0104744
           19          20          21          22
    1  -0.0047760   0.0007841   0.0008476   0.0209162
 Final Beta MO Eigenvalues
            1           2           3           4           5           6
    1 -66.0933034 -66.0933000  -5.2686895  -5.2685659  -3.6269533  -3.6265679
            7           8           9          10          11          12
    1  -3.6265553  -3.6265070  -3.6264949  -3.6262707  -0.5733547  -0.5091178
           13          14          15          16          17          18
    1  -0.3690127  -0.3689699  -0.3447294  -0.3446637  -0.3019852  -0.0104744
           19          20          21          22
    1  -0.0047760   0.0007841   0.0008476   0.0209162
 Analysis of SCF Wavefunction
 
 --------------------------------------------------------------
                    Orbital Energies (a.u.)
 --------------------------------------------------------------
 
 Alpha MOs
 -- Occupied --
-66.093 -66.093  -5.269  -5.269  -3.627  -3.627  -3.627  -3.627
 -3.626  -3.626  -0.573  -0.509  -0.369  -0.369  -0.345  -0.345
 -0.302
 -- Virtual --
 -0.010  -0.005   0.001   0.001   0.021   0.021   0.032   0.032
  0.033   0.044   0.055   0.055   0.091   0.107   0.108   0.108
  0.122   0.122   0.125   0.146   0.146   0.154   0.157   0.218
  0.257   0.257   0.258   0.260   0.260   0.293   0.293   0.317
  0.317   0.353   0.361   0.361   0.400   0.422   0.427   0.452
  0.452   0.466   0.475   0.486   0.494   0.494   0.619   0.619
  0.620   0.634   0.642   0.642   0.653   0.685   0.686   0.695
  0.695   0.739   0.813   0.813   0.833   0.833   0.890   0.890
  0.895   0.934   0.934   0.939   0.940   1.069   1.108   1.117
  1.117   1.119   1.120   1.196   1.196   1.221   1.258   1.258
  1.290   1.312   1.343   1.343   1.379   1.380   1.381   1.498
  1.498   1.501   1.501   1.579   1.689   2.008   2.069   2.069
  2.093   2.103   2.176   2.176   2.220   2.240   2.240   2.324
  2.328   2.328   2.483   2.793   2.794   2.826   2.826   3.042
  3.067   3.527   3.528   3.556   3.557   3.567   3.758   3.760
  3.762   3.764   4.013   4.041   4.041   4.047   4.048   4.063
  4.073   4.095   4.095   4.132   4.132   4.170   4.170   4.305
  4.417   4.451   4.451   4.522   4.523   5.936   6.127  11.435
 11.435  11.467  11.467  11.538  11.681  17.529  17.569  17.571
 17.618  17.634  17.779  17.797  17.820  17.853  17.881  22.208
 22.215  22.219  22.220  22.224  22.233  22.233  22.236  22.246
 22.247  22.247  22.248  22.263  22.275 141.356 141.575
 
 Beta MOs
 -- Occupied --
-66.093 -66.093  -5.269  -5.269  -3.627  -3.627  -3.627  -3.627
 -3.626  -3.626  -0.573  -0.509  -0.369  -0.369  -0.345  -0.345
 -0.302
 -- Virtual --
 -0.010  -0.005   0.001   0.001   0.021   0.021   0.032   0.032
  0.033   0.044   0.055   0.055   0.091   0.107   0.108   0.108
  0.122   0.122   0.125   0.146   0.146   0.154   0.157   0.218
  0.257   0.257   0.258   0.260   0.260   0.293   0.293   0.317
  0.317   0.353   0.361   0.361   0.400   0.422   0.427   0.452
  0.452   0.466   0.475   0.486   0.494   0.494   0.619   0.619
  0.620   0.634   0.642   0.642   0.653   0.685   0.686   0.695
  0.695   0.739   0.813   0.813   0.833   0.833   0.890   0.890
  0.895   0.934   0.934   0.939   0.940   1.069   1.108   1.117
  1.117   1.119   1.120   1.196   1.196   1.221   1.258   1.258
  1.290   1.312   1.343   1.343   1.379   1.380   1.381   1.498
  1.498   1.501   1.501   1.579   1.689   2.008   2.069   2.069
  2.093   2.103   2.176   2.176   2.220   2.240   2.240   2.324
  2.328   2.328   2.483   2.793   2.794   2.826   2.826   3.042
  3.067   3.527   3.528   3.556   3.557   3.567   3.758   3.760
  3.762   3.764   4.013   4.041   4.041   4.047   4.048   4.063
  4.073   4.095   4.095   4.132   4.132   4.170   4.170   4.305
  4.417   4.451   4.451   4.522   4.523   5.936   6.127  11.435
 11.435  11.467  11.467  11.538  11.681  17.529  17.569  17.571
 17.618  17.634  17.779  17.797  17.820  17.853  17.881  22.208
 22.215  22.219  22.220  22.224  22.233  22.233  22.236  22.246
 22.247  22.247  22.248  22.263  22.275 141.356 141.575
 --------------------------------------------------------------
 
          Ground-State Mulliken Net Atomic Charges

     Atom                 Charge (a.u.)    Spin (a.u.)
  --------------------------------------------------------
      1 Si                    0.286555       0.000000
      2 Si                    0.286555       0.000000
      3 H                    -0.095382       0.000000
      4 H                    -0.095587       0.000000
      5 H                    -0.095587       0.000000
      6 H                    -0.095382       0.000000
      7 H                    -0.095587       0.000000
      8 H                    -0.095587       0.000000
  --------------------------------------------------------
  Sum of atomic charges =     0.000000
  Sum of spin   charges =     0.000000

 -----------------------------------------------------------------
                    Cartesian Multipole Moments
 -----------------------------------------------------------------
    Charge (ESU x 10^10)
                 0.0000
    Dipole Moment (Debye)
         X       0.0000      Y       0.0000      Z       0.0000
       Tot       0.0000
    Quadrupole Moments (Debye-Ang)
        XX     -31.4122     XY       0.0000     YY     -31.4143
        XZ      -0.0041     YZ       0.0000     ZZ     -32.3902
    Octapole Moments (Debye-Ang^2)
       XXX       0.0000    XXY       0.0000    XYY       0.0000
       YYY       0.0000    XXZ     -36.9129    XYZ       0.0000
       YYZ     -36.9155    XZZ      -0.0096    YZZ       0.0000
       ZZZ    -114.1865
    Hexadecapole Moments (Debye-Ang^3)
      XXXX     -84.4916   XXXY       0.0000   XXYY     -28.1651
      XYYY       0.0000   YYYY     -84.5116   XXXZ       2.0216
      XXYZ       0.0000   XYYZ      -1.9912   YYYZ       0.0000
      XXZZ    -120.4370   XYZZ       0.0000   YYZZ    -120.4520
      XZZZ       0.0002   YZZZ       0.0000   ZZZZ    -620.7787
 -----------------------------------------------------------------
 Calculating analytic gradient of the SCF energy
 Gradient of XC Energy
            1           2           3           4           5           6
    1   0.0000686  -0.0000686   0.1083418  -0.0541375  -0.0541375  -0.1083418
    2  -0.0000000  -0.0000000   0.0000000  -0.0937565   0.0937565  -0.0000000
    3   0.0436450  -0.0436450  -0.0407604  -0.0407656  -0.0407656   0.0407604
            7           8
    1   0.0541375   0.0541375
    2  -0.0937565   0.0937565
    3   0.0407656   0.0407656
 Gradient of SCF Energy
            1           2           3           4           5           6
    1  -0.0000057   0.0000057   0.0002060  -0.0000828  -0.0000828  -0.0002060
    2  -0.0000000   0.0000000   0.0000000  -0.0001863   0.0001863  -0.0000000
    3   0.0057263  -0.0057263   0.0001831   0.0000664   0.0000664  -0.0001831
            7           8
    1   0.0000828   0.0000828
    2  -0.0001863   0.0001863
    3  -0.0000664  -0.0000664
 Max gradient component =       5.726E-03
 RMS gradient           =       1.657E-03
 Gradient time:  CPU 53.95 s  wall 54.01 s
 Geometry Optimization Parameters
   NAtoms,    NIC,     NZ,  NCons,   NDum,   NFix, NCnnct, MaxDiis
        8      44       0       0       0       0       0       0

 Cartesian Hessian Update
 Hessian Updated using BFGS Update


** GEOMETRY OPTIMIZATION IN DELOCALIZED INTERNAL COORDINATES **
   Searching for a Minimum

   Optimization Cycle:   2

                       Coordinates (Angstroms)
     ATOM              X           Y           Z
    1  Si          0.000335    0.000000    0.015140
    2  Si         -0.000335    0.000000    2.335090
    3  H           1.391323    0.000000   -0.499437
    4  H          -0.695581   -1.205014   -0.498934
    5  H          -0.695581    1.205014   -0.498934
    6  H          -1.391323    0.000000    2.849667
    7  H           0.695581   -1.205014    2.849164
    8  H           0.695581    1.205014    2.849164
   Point Group: c1    Number of degrees of freedom:  18


   Energy is   -582.648616256

 Hessian Updated using BFGS Update

  7 Hessian modes will be used to form the next step
  Hessian Eigenvalues:
     0.063251    0.063251    0.141983    0.160032    0.161247    0.182460
     0.189842

 Minimum Search - Taking Simple RFO Step
 Searching for Lamda that Minimizes Along All modes
 Value Taken    Lamda =  -0.00026266
 Step Taken.  Stepsize is  0.042908

                             Maximum     Tolerance    Cnvgd?
         Gradient           0.004340      0.000300      NO
         Displacement       0.030005      0.001200      NO
         Energy change     -0.003342      0.000001      NO


 New Cartesian Coordinates Obtained by Inverse Iteration

 Displacement from previous Coordinates is:  0.069627
 Writing REM_CC_EA            8
 ----------------------------------------------------
       Standard Nuclear Orientation (Angstroms)
    I     Atom         X            Y            Z
 ----------------------------------------------------
    1      Si      0.000683     0.000000     0.003931
    2      Si     -0.000683     0.000000     2.346299
    3      H       1.390185     0.000000    -0.513666
    4      H      -0.694673    -1.203812    -0.512063
    5      H      -0.694673     1.203812    -0.512063
    6      H      -1.390185     0.000000     2.863896
    7      H       0.694673    -1.203812     2.862293
    8      H       0.694673     1.203812     2.862293
 ----------------------------------------------------
 Nuclear Repulsion Energy =    90.7910136046 hartrees
 There are       17 alpha and       17 beta electrons
 Applying Cartesian multipole field
    Component          Value
    ---------          -----
     (2,0,0)        1.00000E-11
     (0,2,0)        2.00000E-11
     (0,0,2)       -3.00000E-11
 Nucleus-field energy     =    -0.0000000104 hartrees
 Requested basis set is G3large
 There are 74 shells and 192 basis functions
 A cutoff of  1.0D-11 yielded   2601 shell pairs
 There are  17714 function pairs ( 22963 Cartesian)
Evaluating contribution to one-electron hamiltonian from nuclear
 Smallest overlap matrix eigenvalue = 1.95E-04
 Multipole matrices computed through 2nd order
 Guess MOs from SCF MO coefficient file
Reading MOs from coefficient file
Reading MOs from coefficient file
 An unrestricted hybrid HF-DFT SCF calculation will be
 performed using Pulay DIIS extrapolation
 Exchange:     0.2000 Hartree-Fock + 0.0800 Slater + 0.7200 Becke88
 Correlation:  0.8100 LYP + 0.1900 VWN1RPA
 Using SG-1 standard quadrature grid
 SCF converges when DIIS error is below 1.0E-08
 ---------------------------------------
  Cycle       Energy         DIIS Error
 ---------------------------------------
    1    -582.6448717750      4.03E-04
    2    -582.6487691037      1.91E-05
    3    -582.6487698616      1.60E-05
    4    -582.6487713205      2.19E-06
    5    -582.6487713325      3.98E-07
    6    -582.6487713231      4.79E-08
    7    -582.6487713264      5.80E-09 Convergence criterion met
 ---------------------------------------
 One-Electron    Energy =  -986.9375121451
 Total Coulomb   Energy =   357.6120230210
 Alpha Exchange  Energy =    -4.2807785838
 Beta  Exchange  Energy =    -4.2807785838
 DFT   Exchange  Energy =   -33.9385596714
 DFT Correlation Energy =    -1.6141789576
 Nuclear Repu.   Energy =    90.7910135943
 Nuclear Attr.   Energy = -1568.4480806631
 Kinetic         Energy =   581.5105685180
 <S^2> = 0.0000
 SCF time:  CPU 88.17 s  wall 88.75 s
 Final Alpha MO Eigenvalues
            1           2           3           4           5           6
    1 -66.0942408 -66.0942374  -5.2693302  -5.2692187  -3.6275978  -3.6272198
            7           8           9          10          11          12
    1  -3.6272072  -3.6271656  -3.6271534  -3.6269886  -0.5718472  -0.5099162
           13          14          15          16          17          18
    1  -0.3683930  -0.3683821  -0.3450464  -0.3449840  -0.3010828  -0.0102922
           19          20          21          22
    1  -0.0060457   0.0007652   0.0009384   0.0211179
 Final Beta MO Eigenvalues
            1           2           3           4           5           6
    1 -66.0942408 -66.0942374  -5.2693302  -5.2692187  -3.6275978  -3.6272198
            7           8           9          10          11          12
    1  -3.6272072  -3.6271656  -3.6271534  -3.6269886  -0.5718472  -0.5099162
           13          14          15          16          17          18
    1  -0.3683930  -0.3683821  -0.3450464  -0.3449840  -0.3010828  -0.0102922
           19          20          21          22
    1  -0.0060457   0.0007652   0.0009384   0.0211179
 Analysis of SCF Wavefunction
 
 --------------------------------------------------------------
                    Orbital Energies (a.u.)
 --------------------------------------------------------------
 
 Alpha MOs
 -- Occupied --
-66.094 -66.094  -5.269  -5.269  -3.628  -3.627  -3.627  -3.627
 -3.627  -3.627  -0.572  -0.510  -0.368  -0.368  -0.345  -0.345
 -0.301
 -- Virtual --
 -0.010  -0.006   0.001   0.001   0.021   0.021   0.032   0.032
  0.033   0.043   0.055   0.055   0.089   0.107   0.108   0.108
  0.122   0.123   0.125   0.146   0.146   0.153   0.157   0.218
  0.256   0.257   0.257   0.259   0.259   0.292   0.292   0.316
  0.316   0.354   0.361   0.361   0.401   0.420   0.428   0.451
  0.451   0.465   0.475   0.485   0.494   0.494   0.618   0.619
  0.619   0.632   0.639   0.639   0.652   0.685   0.685   0.699
  0.699   0.738   0.811   0.812   0.832   0.833   0.886   0.887
  0.896   0.932   0.932   0.932   0.938   1.074   1.112   1.116
  1.116   1.118   1.118   1.197   1.197   1.215   1.261   1.261
  1.288   1.307   1.344   1.345   1.373   1.373   1.376   1.499
  1.499   1.500   1.500   1.574   1.690   2.009   2.077   2.078
  2.094   2.102   2.177   2.177   2.218   2.238   2.238   2.318
  2.319   2.322   2.478   2.791   2.791   2.827   2.827   3.038
  3.068   3.530   3.530   3.550   3.551   3.564   3.759   3.760
  3.761   3.763   4.012   4.040   4.040   4.046   4.046   4.058
  4.065   4.093   4.094   4.132   4.132   4.165   4.166   4.305
  4.406   4.454   4.455   4.520   4.520   5.930   6.126  11.434
 11.435  11.462  11.462  11.530  11.681  17.528  17.569  17.569
 17.618  17.631  17.780  17.783  17.818  17.854  17.879  22.208
 22.215  22.219  22.219  22.224  22.231  22.232  22.234  22.245
 22.246  22.246  22.247  22.262  22.273 141.349 141.572
 
 Beta MOs
 -- Occupied --
-66.094 -66.094  -5.269  -5.269  -3.628  -3.627  -3.627  -3.627
 -3.627  -3.627  -0.572  -0.510  -0.368  -0.368  -0.345  -0.345
 -0.301
 -- Virtual --
 -0.010  -0.006   0.001   0.001   0.021   0.021   0.032   0.032
  0.033   0.043   0.055   0.055   0.089   0.107   0.108   0.108
  0.122   0.123   0.125   0.146   0.146   0.153   0.157   0.218
  0.256   0.257   0.257   0.259   0.259   0.292   0.292   0.316
  0.316   0.354   0.361   0.361   0.401   0.420   0.428   0.451
  0.451   0.465   0.475   0.485   0.494   0.494   0.618   0.619
  0.619   0.632   0.639   0.639   0.652   0.685   0.685   0.699
  0.699   0.738   0.811   0.812   0.832   0.833   0.886   0.887
  0.896   0.932   0.932   0.932   0.938   1.074   1.112   1.116
  1.116   1.118   1.118   1.197   1.197   1.215   1.261   1.261
  1.288   1.307   1.344   1.345   1.373   1.373   1.376   1.499
  1.499   1.500   1.500   1.574   1.690   2.009   2.077   2.078
  2.094   2.102   2.177   2.177   2.218   2.238   2.238   2.318
  2.319   2.322   2.478   2.791   2.791   2.827   2.827   3.038
  3.068   3.530   3.530   3.550   3.551   3.564   3.759   3.760
  3.761   3.763   4.012   4.040   4.040   4.046   4.046   4.058
  4.065   4.093   4.094   4.132   4.132   4.165   4.166   4.305
  4.406   4.454   4.455   4.520   4.520   5.930   6.126  11.434
 11.435  11.462  11.462  11.530  11.681  17.528  17.569  17.569
 17.618  17.631  17.780  17.783  17.818  17.854  17.879  22.208
 22.215  22.219  22.219  22.224  22.231  22.232  22.234  22.245
 22.246  22.246  22.247  22.262  22.273 141.349 141.572
 --------------------------------------------------------------
 
          Ground-State Mulliken Net Atomic Charges

     Atom                 Charge (a.u.)    Spin (a.u.)
  --------------------------------------------------------
      1 Si                    0.286015       0.000000
      2 Si                    0.286015       0.000000
      3 H                    -0.095204       0.000000
      4 H                    -0.095406       0.000000
      5 H                    -0.095406       0.000000
      6 H                    -0.095204       0.000000
      7 H                    -0.095406       0.000000
      8 H                    -0.095406       0.000000
  --------------------------------------------------------
  Sum of atomic charges =     0.000000
  Sum of spin   charges =     0.000000

 -----------------------------------------------------------------
                    Cartesian Multipole Moments
 -----------------------------------------------------------------
    Charge (ESU x 10^10)
                 0.0000
    Dipole Moment (Debye)
         X       0.0000      Y       0.0000      Z       0.0000
       Tot       0.0000
    Quadrupole Moments (Debye-Ang)
        XX     -31.4262     XY       0.0000     YY     -31.4294
        XZ      -0.0066     YZ       0.0000     ZZ     -32.4055
    Octapole Moments (Debye-Ang^2)
       XXX       0.0000    XXY       0.0000    XYY       0.0000
       YYY       0.0000    XXZ     -36.9295    XYZ       0.0000
       YYZ     -36.9332    XZZ      -0.0155    YZZ       0.0000
       ZZZ    -114.2405
    Hexadecapole Moments (Debye-Ang^3)
      XXXX     -84.4519   XXXY       0.0000   XXYY     -28.1497
      XYYY       0.0000   YYYY     -84.4678   XXXZ       2.0826
      XXYZ       0.0000   XYYZ      -1.9944   YYYZ       0.0000
      XXZZ    -121.3930   XYZZ       0.0000   YYZZ    -121.4142
      XZZZ       0.0300   YZZZ       0.0000   ZZZZ    -626.4820
 -----------------------------------------------------------------
 Calculating analytic gradient of the SCF energy
 Gradient of XC Energy
            1           2           3           4           5           6
    1   0.0001944  -0.0001944   0.1081573  -0.0540666  -0.0540666  -0.1081573
    2  -0.0000000   0.0000000   0.0000000  -0.0936188   0.0936188  -0.0000000
    3   0.0431090  -0.0431090  -0.0412570  -0.0411429  -0.0411429   0.0412570
            7           8
    1   0.0540666   0.0540666
    2  -0.0936188   0.0936188
    3   0.0411429   0.0411429
 Gradient of SCF Energy
            1           2           3           4           5           6
    1  -0.0000133   0.0000133   0.0000536   0.0000295   0.0000295  -0.0000536
    2  -0.0000000   0.0000000   0.0000000   0.0000035  -0.0000035  -0.0000000
    3   0.0015186  -0.0015186  -0.0000581  -0.0001062  -0.0001062   0.0000581
            7           8
    1  -0.0000295  -0.0000295
    2   0.0000035  -0.0000035
    3   0.0001062   0.0001062
 Max gradient component =       1.519E-03
 RMS gradient           =       4.413E-04
 Gradient time:  CPU 49.27 s  wall 49.43 s
 Geometry Optimization Parameters
   NAtoms,    NIC,     NZ,  NCons,   NDum,   NFix, NCnnct, MaxDiis
        8      44       0       0       0       0       0       0

 Cartesian Hessian Update
 Hessian Updated using BFGS Update


** GEOMETRY OPTIMIZATION IN DELOCALIZED INTERNAL COORDINATES **
   Searching for a Minimum

   Optimization Cycle:   3

                       Coordinates (Angstroms)
     ATOM              X           Y           Z
    1  Si          0.000683    0.000000    0.003931
    2  Si         -0.000683    0.000000    2.346299
    3  H           1.390185    0.000000   -0.513666
    4  H          -0.694673   -1.203812   -0.512063
    5  H          -0.694673    1.203812   -0.512063
    6  H          -1.390185    0.000000    2.863896
    7  H           0.694673   -1.203812    2.862293
    8  H           0.694673    1.203812    2.862293
   Point Group: c1    Number of degrees of freedom:  18


   Energy is   -582.648771326

 Hessian Updated using BFGS Update

  6 Hessian modes will be used to form the next step
  Hessian Eigenvalues:
     0.063250    0.112216    0.160023    0.164914    0.182484    0.189794

 Minimum Search - Taking Simple RFO Step
 Searching for Lamda that Minimizes Along All modes
 Value Taken    Lamda =  -0.00001511
 Step Taken.  Stepsize is  0.011536

                             Maximum     Tolerance    Cnvgd?
         Gradient           0.001172      0.000300      NO
         Displacement       0.010019      0.001200      NO
         Energy change     -0.000155      0.000001      NO


 New Cartesian Coordinates Obtained by Inverse Iteration

 Displacement from previous Coordinates is:  0.011782
 Writing REM_CC_EA            8
 ----------------------------------------------------
       Standard Nuclear Orientation (Angstroms)
    I     Atom         X            Y            Z
 ----------------------------------------------------
    1      Si      0.000792     0.000000     0.000969
    2      Si     -0.000792     0.000000     2.349261
    3      H       1.390448     0.000000    -0.515716
    4      H      -0.694723    -1.204090    -0.513826
    5      H      -0.694723     1.204090    -0.513826
    6      H      -1.390448     0.000000     2.865946
    7      H       0.694723    -1.204090     2.864056
    8      H       0.694723     1.204090     2.864056
 ----------------------------------------------------
 Nuclear Repulsion Energy =    90.6611282887 hartrees
 There are       17 alpha and       17 beta electrons
 Applying Cartesian multipole field
    Component          Value
    ---------          -----
     (2,0,0)        1.00000E-11
     (0,2,0)        2.00000E-11
     (0,0,2)       -3.00000E-11
 Nucleus-field energy     =    -0.0000000104 hartrees
 Requested basis set is G3large
 There are 74 shells and 192 basis functions
 A cutoff of  1.0D-11 yielded   2601 shell pairs
 There are  17714 function pairs ( 22963 Cartesian)
Evaluating contribution to one-electron hamiltonian from nuclear
 Smallest overlap matrix eigenvalue = 1.97E-04
 Multipole matrices computed through 2nd order
 Guess MOs from SCF MO coefficient file
Reading MOs from coefficient file
Reading MOs from coefficient file
 An unrestricted hybrid HF-DFT SCF calculation will be
 performed using Pulay DIIS extrapolation
 Exchange:     0.2000 Hartree-Fock + 0.0800 Slater + 0.7200 Becke88
 Correlation:  0.8100 LYP + 0.1900 VWN1RPA
 Using SG-1 standard quadrature grid
 SCF converges when DIIS error is below 1.0E-08
 ---------------------------------------
  Cycle       Energy         DIIS Error
 ---------------------------------------
    1    -582.6476972040      1.11E-04
    2    -582.6487794473      5.76E-06
    3    -582.6487795107      5.20E-06
    4    -582.6487796617      5.72E-07
    5    -582.6487796536      8.84E-08
    6    -582.6487796519      1.29E-08
    7    -582.6487796452      1.70E-09 Convergence criterion met
 ---------------------------------------
 One-Electron    Energy =  -986.6773296549
 Total Coulomb   Energy =   357.4807107568
 Alpha Exchange  Energy =    -4.2806813497
 Beta  Exchange  Energy =    -4.2806813497
 DFT   Exchange  Energy =   -33.9378349361
 DFT Correlation Energy =    -1.6140913899
 Nuclear Repu.   Energy =    90.6611282783
 Nuclear Attr.   Energy = -1568.1832087360
 Kinetic         Energy =   581.5058790811
 <S^2> = 0.0000
 SCF time:  CPU 83.75 s  wall 83.94 s
 Final Alpha MO Eigenvalues
            1           2           3           4           5           6
    1 -66.0944187 -66.0944153  -5.2694350  -5.2693264  -3.6277070  -3.6273257
            7           8           9          10          11          12
    1  -3.6273125  -3.6272732  -3.6272604  -3.6271158  -0.5714284  -0.5100569
           13          14          15          16          17          18
    1  -0.3683084  -0.3682998  -0.3451717  -0.3451026  -0.3005426  -0.0102850
           19          20          21          22
    1  -0.0063273   0.0009750   0.0011782   0.0211414
 Final Beta MO Eigenvalues
            1           2           3           4           5           6
    1 -66.0944187 -66.0944153  -5.2694350  -5.2693264  -3.6277070  -3.6273257
            7           8           9          10          11          12
    1  -3.6273125  -3.6272732  -3.6272604  -3.6271158  -0.5714284  -0.5100569
           13          14          15          16          17          18
    1  -0.3683084  -0.3682998  -0.3451717  -0.3451026  -0.3005426  -0.0102850
           19          20          21          22
    1  -0.0063273   0.0009750   0.0011782   0.0211414
 Analysis of SCF Wavefunction
 
 --------------------------------------------------------------
                    Orbital Energies (a.u.)
 --------------------------------------------------------------
 
 Alpha MOs
 -- Occupied --
-66.094 -66.094  -5.269  -5.269  -3.628  -3.627  -3.627  -3.627
 -3.627  -3.627  -0.571  -0.510  -0.368  -0.368  -0.345  -0.345
 -0.301
 -- Virtual --
 -0.010  -0.006   0.001   0.001   0.021   0.021   0.032   0.032
  0.033   0.043   0.055   0.055   0.089   0.107   0.108   0.108
  0.122   0.123   0.125   0.145   0.146   0.153   0.157   0.218
  0.256   0.257   0.257   0.259   0.259   0.292   0.292   0.316
  0.316   0.354   0.361   0.361   0.401   0.420   0.429   0.450
  0.451   0.465   0.475   0.485   0.493   0.494   0.617   0.619
  0.619   0.631   0.638   0.638   0.651   0.685   0.685   0.699
  0.700   0.738   0.811   0.812   0.832   0.833   0.885   0.886
  0.896   0.930   0.931   0.931   0.938   1.075   1.112   1.115
  1.116   1.118   1.118   1.197   1.197   1.214   1.261   1.262
  1.287   1.306   1.344   1.345   1.371   1.371   1.375   1.499
  1.499   1.500   1.500   1.573   1.691   2.010   2.079   2.080
  2.094   2.102   2.177   2.177   2.218   2.237   2.238   2.316
  2.317   2.321   2.476   2.791   2.791   2.828   2.828   3.038
  3.067   3.530   3.531   3.548   3.550   3.564   3.759   3.760
  3.762   3.763   4.012   4.040   4.040   4.046   4.046   4.053
  4.066   4.093   4.094   4.131   4.132   4.164   4.166   4.306
  4.405   4.455   4.455   4.518   4.519   5.928   6.127  11.434
 11.434  11.461  11.461  11.528  11.682  17.529  17.568  17.569
 17.618  17.630  17.780  17.781  17.817  17.854  17.879  22.208
 22.215  22.219  22.219  22.224  22.231  22.232  22.234  22.245
 22.246  22.246  22.247  22.262  22.273 141.347 141.571
 
 Beta MOs
 -- Occupied --
-66.094 -66.094  -5.269  -5.269  -3.628  -3.627  -3.627  -3.627
 -3.627  -3.627  -0.571  -0.510  -0.368  -0.368  -0.345  -0.345
 -0.301
 -- Virtual --
 -0.010  -0.006   0.001   0.001   0.021   0.021   0.032   0.032
  0.033   0.043   0.055   0.055   0.089   0.107   0.108   0.108
  0.122   0.123   0.125   0.145   0.146   0.153   0.157   0.218
  0.256   0.257   0.257   0.259   0.259   0.292   0.292   0.316
  0.316   0.354   0.361   0.361   0.401   0.420   0.429   0.450
  0.451   0.465   0.475   0.485   0.493   0.494   0.617   0.619
  0.619   0.631   0.638   0.638   0.651   0.685   0.685   0.699
  0.700   0.738   0.811   0.812   0.832   0.833   0.885   0.886
  0.896   0.930   0.931   0.931   0.938   1.075   1.112   1.115
  1.116   1.118   1.118   1.197   1.197   1.214   1.261   1.262
  1.287   1.306   1.344   1.345   1.371   1.371   1.375   1.499
  1.499   1.500   1.500   1.573   1.691   2.010   2.079   2.080
  2.094   2.102   2.177   2.177   2.218   2.237   2.238   2.316
  2.317   2.321   2.476   2.791   2.791   2.828   2.828   3.038
  3.067   3.530   3.531   3.548   3.550   3.564   3.759   3.760
  3.762   3.763   4.012   4.040   4.040   4.046   4.046   4.053
  4.066   4.093   4.094   4.131   4.132   4.164   4.166   4.306
  4.405   4.455   4.455   4.518   4.519   5.928   6.127  11.434
 11.434  11.461  11.461  11.528  11.682  17.529  17.568  17.569
 17.618  17.630  17.780  17.781  17.817  17.854  17.879  22.208
 22.215  22.219  22.219  22.224  22.231  22.232  22.234  22.245
 22.246  22.246  22.247  22.262  22.273 141.347 141.571
 --------------------------------------------------------------
 
          Ground-State Mulliken Net Atomic Charges

     Atom                 Charge (a.u.)    Spin (a.u.)
  --------------------------------------------------------
      1 Si                    0.285825       0.000000
      2 Si                    0.285825       0.000000
      3 H                    -0.095119       0.000000
      4 H                    -0.095353       0.000000
      5 H                    -0.095353       0.000000
      6 H                    -0.095119       0.000000
      7 H                    -0.095353       0.000000
      8 H                    -0.095353       0.000000
  --------------------------------------------------------
  Sum of atomic charges =     0.000000
  Sum of spin   charges =     0.000000

 -----------------------------------------------------------------
                    Cartesian Multipole Moments
 -----------------------------------------------------------------
    Charge (ESU x 10^10)
                 0.0000
    Dipole Moment (Debye)
         X       0.0000      Y       0.0000      Z       0.0000
       Tot       0.0000
    Quadrupole Moments (Debye-Ang)
        XX     -31.4286     XY       0.0000     YY     -31.4324
        XZ      -0.0077     YZ       0.0000     ZZ     -32.3978
    Octapole Moments (Debye-Ang^2)
       XXX       0.0000    XXY       0.0000    XYY       0.0000
       YYY       0.0000    XXZ     -36.9323    XYZ       0.0000
       YYZ     -36.9367    XZZ      -0.0181    YZZ       0.0000
       ZZZ    -114.2135
    Hexadecapole Moments (Debye-Ang^3)
      XXXX     -84.4588   XXXY       0.0000   XXYY     -28.1527
      XYYY       0.0000   YYYY     -84.4824   XXXZ       2.0972
      XXYZ       0.0000   XYYZ      -1.9950   YYYZ       0.0000
      XXZZ    -121.6154   XYZZ       0.0000   YYZZ    -121.6410
      XZZZ       0.0341   YZZZ       0.0000   ZZZZ    -627.6613
 -----------------------------------------------------------------
 Calculating analytic gradient of the SCF energy
 Gradient of XC Energy
            1           2           3           4           5           6
    1   0.0002303  -0.0002303   0.1081983  -0.0540914  -0.0540914  -0.1081983
    2  -0.0000000   0.0000000  -0.0000000  -0.0936677   0.0936677  -0.0000000
    3   0.0423886  -0.0423886  -0.0411587  -0.0410050  -0.0410050   0.0411587
            7           8
    1   0.0540914   0.0540914
    2  -0.0936677   0.0936677
    3   0.0410050   0.0410050
 Gradient of SCF Energy
            1           2           3           4           5           6
    1   0.0000219  -0.0000219   0.0000295   0.0000334   0.0000334  -0.0000295
    2   0.0000000  -0.0000000  -0.0000000   0.0000042  -0.0000042  -0.0000000
    3   0.0002290  -0.0002290  -0.0000202  -0.0000583  -0.0000583   0.0000202
            7           8
    1  -0.0000334  -0.0000334
    2   0.0000042  -0.0000042
    3   0.0000583   0.0000583
 Max gradient component =       2.290E-04
 RMS gradient           =       7.261E-05
 Gradient time:  CPU 49.26 s  wall 49.32 s
 Geometry Optimization Parameters
   NAtoms,    NIC,     NZ,  NCons,   NDum,   NFix, NCnnct, MaxDiis
        8      44       0       0       0       0       0       0

 Cartesian Hessian Update
 Hessian Updated using BFGS Update


** GEOMETRY OPTIMIZATION IN DELOCALIZED INTERNAL COORDINATES **
   Searching for a Minimum

   Optimization Cycle:   4

                       Coordinates (Angstroms)
     ATOM              X           Y           Z
    1  Si          0.000792    0.000000    0.000969
    2  Si         -0.000792    0.000000    2.349261
    3  H           1.390448    0.000000   -0.515716
    4  H          -0.694723   -1.204090   -0.513826
    5  H          -0.694723    1.204090   -0.513826
    6  H          -1.390448    0.000000    2.865946
    7  H           0.694723   -1.204090    2.864056
    8  H           0.694723    1.204090    2.864056
   Point Group: c1    Number of degrees of freedom:  18


   Energy is   -582.648779645

 Hessian Updated using BFGS Update

  6 Hessian modes will be used to form the next step
  Hessian Eigenvalues:
     0.063252    0.100417    0.160029    0.164734    0.182474    0.189683

 Minimum Search - Taking Simple RFO Step
 Searching for Lamda that Minimizes Along All modes
 Value Taken    Lamda =   0.00000000
 Step Taken.  Stepsize is  0.001894

                             Maximum     Tolerance    Cnvgd?
         Gradient           0.000184      0.000300     YES
         Displacement       0.001670      0.001200      NO
         Energy change     -0.000008      0.000001      NO


 New Cartesian Coordinates Obtained by Inverse Iteration

 Displacement from previous Coordinates is:  0.001817
 Writing REM_CC_EA            8
 ----------------------------------------------------
       Standard Nuclear Orientation (Angstroms)
    I     Atom         X            Y            Z
 ----------------------------------------------------
    1      Si      0.000791     0.000000     0.000666
    2      Si     -0.000791     0.000000     2.349564
    3      H       1.390622     0.000000    -0.515418
    4      H      -0.694809    -1.204253    -0.513524
    5      H      -0.694809     1.204253    -0.513524
    6      H      -1.390622     0.000000     2.865648
    7      H       0.694809    -1.204253     2.863754
    8      H       0.694809     1.204253     2.863754
 ----------------------------------------------------
 Nuclear Repulsion Energy =    90.6501286625 hartrees
 There are       17 alpha and       17 beta electrons
 Applying Cartesian multipole field
    Component          Value
    ---------          -----
     (2,0,0)        1.00000E-11
     (0,2,0)        2.00000E-11
     (0,0,2)       -3.00000E-11
 Nucleus-field energy     =    -0.0000000104 hartrees
 Requested basis set is G3large
 There are 74 shells and 192 basis functions
 A cutoff of  1.0D-11 yielded   2601 shell pairs
 There are  17714 function pairs ( 22963 Cartesian)
Evaluating contribution to one-electron hamiltonian from nuclear
 Smallest overlap matrix eigenvalue = 1.97E-04
 Multipole matrices computed through 2nd order
 Guess MOs from SCF MO coefficient file
Reading MOs from coefficient file
Reading MOs from coefficient file
 An unrestricted hybrid HF-DFT SCF calculation will be
 performed using Pulay DIIS extrapolation
 Exchange:     0.2000 Hartree-Fock + 0.0800 Slater + 0.7200 Becke88
 Correlation:  0.8100 LYP + 0.1900 VWN1RPA
 Using SG-1 standard quadrature grid
 SCF converges when DIIS error is below 1.0E-08
 ---------------------------------------
  Cycle       Energy         DIIS Error
 ---------------------------------------
    1    -582.6486936411      1.41E-05
    2    -582.6487799059      8.02E-07
    3    -582.6487799137      7.34E-07
    4    -582.6487799132      5.99E-08
    5    -582.6487799054      9.67E-09 Convergence criterion met
 ---------------------------------------
 One-Electron    Energy =  -986.6557929051
 Total Coulomb   Energy =   357.4701129077
 Alpha Exchange  Energy =    -4.2806757636
 Beta  Exchange  Energy =    -4.2806757636
 DFT   Exchange  Energy =   -33.9377915328
 DFT Correlation Energy =    -1.6140855001
 Nuclear Repu.   Energy =    90.6501286521
 Nuclear Attr.   Energy = -1568.1613578534
 Kinetic         Energy =   581.5055649483
 <S^2> = 0.0000
 SCF time:  CPU 61.70 s  wall 61.84 s
 Final Alpha MO Eigenvalues
            1           2           3           4           5           6
    1 -66.0944120 -66.0944086  -5.2694231  -5.2693148  -3.6276961  -3.6273135
            7           8           9          10          11          12
    1  -3.6273000  -3.6272611  -3.6272480  -3.6271069  -0.5713795  -0.5100558
           13          14          15          16          17          18
    1  -0.3683220  -0.3683139  -0.3451971  -0.3451284  -0.3004021  -0.0102940
           19          20          21          22
    1  -0.0063365   0.0010615   0.0012658   0.0211378
 Final Beta MO Eigenvalues
            1           2           3           4           5           6
    1 -66.0944120 -66.0944086  -5.2694231  -5.2693148  -3.6276961  -3.6273135
            7           8           9          10          11          12
    1  -3.6273000  -3.6272611  -3.6272480  -3.6271069  -0.5713795  -0.5100558
           13          14          15          16          17          18
    1  -0.3683220  -0.3683139  -0.3451971  -0.3451284  -0.3004021  -0.0102940
           19          20          21          22
    1  -0.0063365   0.0010615   0.0012658   0.0211378
 Analysis of SCF Wavefunction
 
 --------------------------------------------------------------
                    Orbital Energies (a.u.)
 --------------------------------------------------------------
 
 Alpha MOs
 -- Occupied --
-66.094 -66.094  -5.269  -5.269  -3.628  -3.627  -3.627  -3.627
 -3.627  -3.627  -0.571  -0.510  -0.368  -0.368  -0.345  -0.345
 -0.300
 -- Virtual --
 -0.010  -0.006   0.001   0.001   0.021   0.021   0.032   0.032
  0.033   0.043   0.055   0.055   0.089   0.107   0.108   0.108
  0.122   0.123   0.125   0.145   0.145   0.153   0.157   0.218
  0.256   0.257   0.257   0.259   0.259   0.292   0.292   0.316
  0.316   0.354   0.361   0.361   0.401   0.420   0.429   0.450
  0.451   0.465   0.475   0.485   0.493   0.494   0.617   0.618
  0.619   0.632   0.638   0.638   0.651   0.685   0.685   0.700
  0.700   0.738   0.811   0.812   0.832   0.833   0.886   0.886
  0.897   0.929   0.931   0.931   0.938   1.075   1.111   1.115
  1.116   1.118   1.118   1.197   1.197   1.214   1.261   1.262
  1.287   1.307   1.344   1.344   1.371   1.371   1.375   1.499
  1.499   1.500   1.500   1.573   1.691   2.010   2.080   2.081
  2.094   2.102   2.176   2.177   2.218   2.237   2.238   2.316
  2.317   2.321   2.476   2.791   2.791   2.827   2.828   3.038
  3.067   3.530   3.531   3.548   3.550   3.564   3.759   3.760
  3.762   3.763   4.012   4.040   4.040   4.046   4.046   4.053
  4.066   4.093   4.094   4.131   4.132   4.164   4.166   4.306
  4.405   4.454   4.455   4.518   4.519   5.928   6.127  11.434
 11.435  11.461  11.461  11.528  11.682  17.529  17.568  17.569
 17.618  17.630  17.780  17.781  17.817  17.854  17.879  22.208
 22.215  22.219  22.219  22.224  22.231  22.232  22.234  22.245
 22.246  22.246  22.247  22.262  22.273 141.347 141.571
 
 Beta MOs
 -- Occupied --
-66.094 -66.094  -5.269  -5.269  -3.628  -3.627  -3.627  -3.627
 -3.627  -3.627  -0.571  -0.510  -0.368  -0.368  -0.345  -0.345
 -0.300
 -- Virtual --
 -0.010  -0.006   0.001   0.001   0.021   0.021   0.032   0.032
  0.033   0.043   0.055   0.055   0.089   0.107   0.108   0.108
  0.122   0.123   0.125   0.145   0.145   0.153   0.157   0.218
  0.256   0.257   0.257   0.259   0.259   0.292   0.292   0.316
  0.316   0.354   0.361   0.361   0.401   0.420   0.429   0.450
  0.451   0.465   0.475   0.485   0.493   0.494   0.617   0.618
  0.619   0.632   0.638   0.638   0.651   0.685   0.685   0.700
  0.700   0.738   0.811   0.812   0.832   0.833   0.886   0.886
  0.897   0.929   0.931   0.931   0.938   1.075   1.111   1.115
  1.116   1.118   1.118   1.197   1.197   1.214   1.261   1.262
  1.287   1.307   1.344   1.344   1.371   1.371   1.375   1.499
  1.499   1.500   1.500   1.573   1.691   2.010   2.080   2.081
  2.094   2.102   2.176   2.177   2.218   2.237   2.238   2.316
  2.317   2.321   2.476   2.791   2.791   2.827   2.828   3.038
  3.067   3.530   3.531   3.548   3.550   3.564   3.759   3.760
  3.762   3.763   4.012   4.040   4.040   4.046   4.046   4.053
  4.066   4.093   4.094   4.131   4.132   4.164   4.166   4.306
  4.405   4.454   4.455   4.518   4.519   5.928   6.127  11.434
 11.435  11.461  11.461  11.528  11.682  17.529  17.568  17.569
 17.618  17.630  17.780  17.781  17.817  17.854  17.879  22.208
 22.215  22.219  22.219  22.224  22.231  22.232  22.234  22.245
 22.246  22.246  22.247  22.262  22.273 141.347 141.571
 --------------------------------------------------------------
 
          Ground-State Mulliken Net Atomic Charges

     Atom                 Charge (a.u.)    Spin (a.u.)
  --------------------------------------------------------
      1 Si                    0.285785       0.000000
      2 Si                    0.285785       0.000000
      3 H                    -0.095105       0.000000
      4 H                    -0.095340       0.000000
      5 H                    -0.095340       0.000000
      6 H                    -0.095105       0.000000
      7 H                    -0.095340       0.000000
      8 H                    -0.095340       0.000000
  --------------------------------------------------------
  Sum of atomic charges =     0.000000
  Sum of spin   charges =     0.000000

 -----------------------------------------------------------------
                    Cartesian Multipole Moments
 -----------------------------------------------------------------
    Charge (ESU x 10^10)
                 0.0000
    Dipole Moment (Debye)
         X       0.0000      Y       0.0000      Z       0.0000
       Tot       0.0000
    Quadrupole Moments (Debye-Ang)
        XX     -31.4284     XY       0.0000     YY     -31.4322
        XZ      -0.0077     YZ       0.0000     ZZ     -32.3935
    Octapole Moments (Debye-Ang^2)
       XXX       0.0000    XXY       0.0000    XYY       0.0000
       YYY       0.0000    XXZ     -36.9320    XYZ       0.0000
       YYZ     -36.9364    XZZ      -0.0181    YZZ       0.0000
       ZZZ    -114.1984
    Hexadecapole Moments (Debye-Ang^3)
      XXXX     -84.4633   XXXY       0.0000   XXYY     -28.1544
      XYYY       0.0000   YYYY     -84.4879   XXXZ       2.0975
      XXYZ       0.0000   XYYZ      -1.9954   YYYZ       0.0000
      XXZZ    -121.6286   XYZZ       0.0000   YYZZ    -121.6544
      XZZZ       0.0340   YZZZ       0.0000   ZZZZ    -627.6814
 -----------------------------------------------------------------
 Calculating analytic gradient of the SCF energy
 Gradient of XC Energy
            1           2           3           4           5           6
    1   0.0002295  -0.0002295   0.1082283  -0.0541057  -0.0541057  -0.1082283
    2  -0.0000000  -0.0000000   0.0000000  -0.0936951   0.0936951  -0.0000000
    3   0.0421503  -0.0421503  -0.0410811  -0.0409254  -0.0409254   0.0410811
            7           8
    1   0.0541057   0.0541057
    2  -0.0936951   0.0936951
    3   0.0409254   0.0409254
 Gradient of SCF Energy
            1           2           3           4           5           6
    1   0.0000246  -0.0000246   0.0000304   0.0000318   0.0000318  -0.0000304
    2   0.0000000  -0.0000000   0.0000000   0.0000004  -0.0000004  -0.0000000
    3   0.0000224  -0.0000224   0.0000139  -0.0000237  -0.0000237  -0.0000139
            7           8
    1  -0.0000318  -0.0000318
    2   0.0000004  -0.0000004
    3   0.0000237   0.0000237
 Max gradient component =       3.177E-05
 RMS gradient           =       2.115E-05
 Gradient time:  CPU 49.23 s  wall 49.28 s
 Geometry Optimization Parameters
   NAtoms,    NIC,     NZ,  NCons,   NDum,   NFix, NCnnct, MaxDiis
        8      44       0       0       0       0       0       0

 Cartesian Hessian Update
 Hessian Updated using BFGS Update


** GEOMETRY OPTIMIZATION IN DELOCALIZED INTERNAL COORDINATES **
   Searching for a Minimum

   Optimization Cycle:   5

                       Coordinates (Angstroms)
     ATOM              X           Y           Z
    1  Si          0.000791    0.000000    0.000666
    2  Si         -0.000791    0.000000    2.349564
    3  H           1.390622    0.000000   -0.515418
    4  H          -0.694809   -1.204253   -0.513524
    5  H          -0.694809    1.204253   -0.513524
    6  H          -1.390622    0.000000    2.865648
    7  H           0.694809   -1.204253    2.863754
    8  H           0.694809    1.204253    2.863754
   Point Group: c1    Number of degrees of freedom:  18


   Energy is   -582.648779905

 Hessian Updated using BFGS Update

  7 Hessian modes will be used to form the next step
  Hessian Eigenvalues:
     0.063237    0.099035    0.141996    0.160131    0.182457    0.182478
     0.188905

 Minimum Search - Taking Simple RFO Step
 Searching for Lamda that Minimizes Along All modes
 Value Taken    Lamda =   0.00000000
 Step Taken.  Stepsize is  0.000419

                             Maximum     Tolerance    Cnvgd?
         Gradient           0.000049      0.000300     YES
         Displacement       0.000355      0.001200     YES
         Energy change      0.000000      0.000001     YES


                       Distance Matrix (Angstroms)
             Si(  1)   Si(  2)   H (  3)   H (  4)   H (  5)   H (  6)
   Si(  2)  2.348899
   H (  3)  1.482556  3.184988
   H (  4)  1.482726  3.182635  2.408163
   H (  5)  1.482726  3.182635  2.408163  2.408507
   H (  6)  3.184988  1.482556  4.378004  3.654201  3.654201
   H (  7)  3.182635  1.482726  3.654201  3.651992  4.374694  2.408163
   H (  8)  3.182635  1.482726  3.654201  4.374694  3.651992  2.408163
             H (  7)
   H (  8)  2.408507
 


 ******************************
 **  OPTIMIZATION CONVERGED  **
 ******************************
 Analysis of SCF Wavefunction
 
 --------------------------------------------------------------
                    Orbital Energies (a.u.)
 --------------------------------------------------------------
 
 Alpha MOs
 -- Occupied --
-66.094 -66.094  -5.269  -5.269  -3.628  -3.627  -3.627  -3.627
 -3.627  -3.627  -0.571  -0.510  -0.368  -0.368  -0.345  -0.345
 -0.300
 -- Virtual --
 -0.010  -0.006   0.001   0.001   0.021   0.021   0.032   0.032
  0.033   0.043   0.055   0.055   0.089   0.107   0.108   0.108
  0.122   0.123   0.125   0.145   0.145   0.153   0.157   0.218
  0.256   0.257   0.257   0.259   0.259   0.292   0.292   0.316
  0.316   0.354   0.361   0.361   0.401   0.420   0.429   0.450
  0.451   0.465   0.475   0.485   0.493   0.494   0.617   0.618
  0.619   0.632   0.638   0.638   0.651   0.685   0.685   0.700
  0.700   0.738   0.811   0.812   0.832   0.833   0.886   0.886
  0.897   0.929   0.931   0.931   0.938   1.075   1.111   1.115
  1.116   1.118   1.118   1.197   1.197   1.214   1.261   1.262
  1.287   1.307   1.344   1.344   1.371   1.371   1.375   1.499
  1.499   1.500   1.500   1.573   1.691   2.010   2.080   2.081
  2.094   2.102   2.176   2.177   2.218   2.237   2.238   2.316
  2.317   2.321   2.476   2.791   2.791   2.827   2.828   3.038
  3.067   3.530   3.531   3.548   3.550   3.564   3.759   3.760
  3.762   3.763   4.012   4.040   4.040   4.046   4.046   4.053
  4.066   4.093   4.094   4.131   4.132   4.164   4.166   4.306
  4.405   4.454   4.455   4.518   4.519   5.928   6.127  11.434
 11.435  11.461  11.461  11.528  11.682  17.529  17.568  17.569
 17.618  17.630  17.780  17.781  17.817  17.854  17.879  22.208
 22.215  22.219  22.219  22.224  22.231  22.232  22.234  22.245
 22.246  22.246  22.247  22.262  22.273 141.347 141.571
 
 Beta MOs
 -- Occupied --
-66.094 -66.094  -5.269  -5.269  -3.628  -3.627  -3.627  -3.627
 -3.627  -3.627  -0.571  -0.510  -0.368  -0.368  -0.345  -0.345
 -0.300
 -- Virtual --
 -0.010  -0.006   0.001   0.001   0.021   0.021   0.032   0.032
  0.033   0.043   0.055   0.055   0.089   0.107   0.108   0.108
  0.122   0.123   0.125   0.145   0.145   0.153   0.157   0.218
  0.256   0.257   0.257   0.259   0.259   0.292   0.292   0.316
  0.316   0.354   0.361   0.361   0.401   0.420   0.429   0.450
  0.451   0.465   0.475   0.485   0.493   0.494   0.617   0.618
  0.619   0.632   0.638   0.638   0.651   0.685   0.685   0.700
  0.700   0.738   0.811   0.812   0.832   0.833   0.886   0.886
  0.897   0.929   0.931   0.931   0.938   1.075   1.111   1.115
  1.116   1.118   1.118   1.197   1.197   1.214   1.261   1.262
  1.287   1.307   1.344   1.344   1.371   1.371   1.375   1.499
  1.499   1.500   1.500   1.573   1.691   2.010   2.080   2.081
  2.094   2.102   2.176   2.177   2.218   2.237   2.238   2.316
  2.317   2.321   2.476   2.791   2.791   2.827   2.828   3.038
  3.067   3.530   3.531   3.548   3.550   3.564   3.759   3.760
  3.762   3.763   4.012   4.040   4.040   4.046   4.046   4.053
  4.066   4.093   4.094   4.131   4.132   4.164   4.166   4.306
  4.405   4.454   4.455   4.518   4.519   5.928   6.127  11.434
 11.435  11.461  11.461  11.528  11.682  17.529  17.568  17.569
 17.618  17.630  17.780  17.781  17.817  17.854  17.879  22.208
 22.215  22.219  22.219  22.224  22.231  22.232  22.234  22.245
 22.246  22.246  22.247  22.262  22.273 141.347 141.571
 --------------------------------------------------------------
 
          Ground-State Mulliken Net Atomic Charges

     Atom                 Charge (a.u.)    Spin (a.u.)
  --------------------------------------------------------
      1 Si                    0.285785       0.000000
      2 Si                    0.285785       0.000000
      3 H                    -0.095105       0.000000
      4 H                    -0.095340       0.000000
      5 H                    -0.095340       0.000000
      6 H                    -0.095105       0.000000
      7 H                    -0.095340       0.000000
      8 H                    -0.095340       0.000000
  --------------------------------------------------------
  Sum of atomic charges =     0.000000
  Sum of spin   charges =     0.000000

 -----------------------------------------------------------------
                    Cartesian Multipole Moments
 -----------------------------------------------------------------
    Charge (ESU x 10^10)
                 0.0000
    Dipole Moment (Debye)
         X       0.0000      Y       0.0000      Z       0.0000
       Tot       0.0000
    Quadrupole Moments (Debye-Ang)
        XX     -31.4284     XY       0.0000     YY     -31.4322
        XZ      -0.0077     YZ       0.0000     ZZ     -32.3935
    Octapole Moments (Debye-Ang^2)
       XXX       0.0000    XXY       0.0000    XYY       0.0000
       YYY       0.0000    XXZ     -36.9320    XYZ       0.0000
       YYZ     -36.9364    XZZ      -0.0181    YZZ       0.0000
       ZZZ    -114.1984
    Hexadecapole Moments (Debye-Ang^3)
      XXXX     -84.4633   XXXY       0.0000   XXYY     -28.1544
      XYYY       0.0000   YYYY     -84.4879   XXXZ       2.0975
      XXYZ       0.0000   XYYZ      -1.9954   YYYZ       0.0000
      XXZZ    -121.6286   XYZZ       0.0000   YYZZ    -121.6544
      XZZZ       0.0340   YZZZ       0.0000   ZZZZ    -627.6814
 -----------------------------------------------------------------
 Total job time:  730.79s(wall), 726.93s(cpu) 
 Wed Jul 24 16:11:03 2013

        *************************************************************
        *                                                           *
        *  Thank you very much for using Q-Chem.  Have a nice day.  *
        *                                                           *
        *************************************************************


0 sent ACK to 0 
now end server 0 ... 
 
**********************************************************************
Job 2 of 2 
**********************************************************************
 
Process 0 of 1 is on cl068.stfx.acenet.ca - thread support 1
initial socket setup ...start
initial socket setup ...done 
now start server 0 ... 

cmd = /usr/bin/ssh clhead /usr/local/qchem/bin/get_hostid 1285475459 > /scratch/tmp/6067076.1.short.q/qchem28296/lic.dat
                  Welcome to Q-Chem
     A Quantum Leap Into The Future Of Chemistry

 Y. Shao, L. Fusti-Molnar, Y. Jung, J. Kussmann, C. Ochsenfeld,
 S. T. Brown, A. T. B. Gilbert, L. V. Slipchenko,S. V. Levchenko,
 D. P. O'Neill, R. A. DiStasio Jr., R. C. Lochan, T. Wang,
 G. J. O. Beran, N. A. Besley, J. M. Herbert, C. Y. Lin,
 T. Van Voorhis, S. H. Chien, A. Sodt, R. P. Steele, 
 V. A. Rassolov, P. E. Maslen, P. P. Korambath, R. D. Adamson,
 B. Austin, J. Baker, E. F. C. Byrd, H. Dachsel, R. J. Doerksen,
 A. Dreuw, B. D. Dunietz, A. D. Dutoi, T. R. Furlani,
 S. R. Gwaltney, A. Heyden, S. Hirata, C.-P. Hsu, G. Kedziora,
 R. Z. Khaliullin, P. Klunzinger, A. M. Lee, M. S. Lee, W. Liang,
 I. Lotan, N. Nair, B. Peters, E. I. Proynov, P. A. Pieniazek, 
 Y. M. Rhee, J. Ritchie, E. Rosta, C. D. Sherrill, 
 A. C. Simmonett, J. E. Subotnik, H. L. Woodcock III,
 W. Zhang, A. T. Bell, A. K. Chakraborty, D. M. Chipman,
 F. J. Keil, A. Warshel, W. J. Hehre, H. F. Schaefer III,
 J. Kong, A. I. Krylov, P. M. W. Gill, M. Head-Gordon,
 Q-Chem, Version 3.1, Q-Chem, Inc., Pittsburgh, PA (2007).

 Additional authors for Version 3.1: 
 Z. Gan, Y. Zhao, N. E. Schultz, D. Truhlar, E. Epifanovsky and M. Oana.

 Additional authors for Version 3.2: 
 R. Baer, B. R. Brooks, D. Casanova, J.-D. Chai, C.-L. Cheng, 
 C. Cramer, D. Crittenden, A. Ghysels, G. Hawkins, E. G. Hohenstein, 
 C. Kelley, W. Kurlancheek, D. Liotard, E. Livshits, P. Manohar, 
 A. Marenich, D. Neuhauser, R. Olson, M. A. Rohrdanz, K. S. Thanthiriwatte, 
 A. J. W. Thom, V. Vanovschi, C. F. Williams, Q. Wu and Z.-Q. You. 


 Intel X86 Linux Version

 Q-chem begins on Wed Jul 24 16:11:05 2013  

 Parallel job on  1  processors
Processing $rem in /usr/local/qchem/config/preferences.

theFileMan(): MAXOPENFILES=974 MAX_SUB_FILE_NUM=16
Maximum size of a physical file is 2.0 GB, maximum size of a tmp-file is 32.0 GB


--------------------------------------------------------------
User input:
--------------------------------------------------------------

$molecule 
READ 
$end 

$rem
   EXCHANGE B3LYP
   UNRESTRICTED TRUE
   SYMMETRY_DECOMPOSITION       0
   BASIS                   g3large
   JOBTYPE                 freq
   mem_static              760
   max_scf_cycles          200
   scf_final_print         1
   sym_ignore              true
   JOBTYPE                 freq
   IDERIV 1
   SCF_GUESS READ
$end
--------------------------------------------------------------
 Writing REM_CC_EA            8
 ----------------------------------------------------
       Standard Nuclear Orientation (Angstroms)
    I     Atom         X            Y            Z
 ----------------------------------------------------
    1      Si      0.000791     0.000000     0.000666
    2      Si     -0.000791     0.000000     2.349564
    3      H       1.390622     0.000000    -0.515418
    4      H      -0.694809    -1.204253    -0.513524
    5      H      -0.694809     1.204253    -0.513524
    6      H      -1.390622     0.000000     2.865648
    7      H       0.694809    -1.204253     2.863754
    8      H       0.694809     1.204253     2.863754
 ----------------------------------------------------
 Nuclear Repulsion Energy =    90.6501286625 hartrees
 There are       17 alpha and       17 beta electrons
 Requested basis set is G3large
 There are 74 shells and 192 basis functions

Total QAlloc Memory Limit   2000 MB
Mega-Array Size       759 MB
MEM_STATIC part       760 MB

                       Distance Matrix (Angstroms)
             Si(  1)   Si(  2)   H (  3)   H (  4)   H (  5)   H (  6)
   Si(  2)  2.348899
   H (  3)  1.482556  3.184988
   H (  4)  1.482726  3.182635  2.408163
   H (  5)  1.482726  3.182635  2.408163  2.408507
   H (  6)  3.184988  1.482556  4.378004  3.654201  3.654201
   H (  7)  3.182635  1.482726  3.654201  3.651992  4.374694  2.408163
   H (  8)  3.182635  1.482726  3.654201  4.374694  3.651992  2.408163
             H (  7)
   H (  8)  2.408507
 
 A cutoff of  1.0D-11 yielded   2601 shell pairs
 There are  17714 function pairs ( 22963 Cartesian)
Evaluating contribution to one-electron hamiltonian from nuclear
 Smallest overlap matrix eigenvalue = 1.97E-04
 Multipole matrices computed through 2nd order
 Guess MOs from SCF MO coefficient file
Reading MOs from coefficient file
Reading MOs from coefficient file
 An unrestricted hybrid HF-DFT SCF calculation will be
 performed using Pulay DIIS extrapolation
 Exchange:     0.2000 Hartree-Fock + 0.0800 Slater + 0.7200 Becke88
 Correlation:  0.8100 LYP + 0.1900 VWN1RPA
 Using SG-1 standard quadrature grid
 SCF converges when DIIS error is below 1.0E-08
 ---------------------------------------
  Cycle       Energy         DIIS Error
 ---------------------------------------
    1    -582.6487799097      1.46E-09
    2    -582.6487799050      8.77E-10 Convergence criterion met
 ---------------------------------------
 One-Electron    Energy =  -986.6558002527
 Total Coulomb   Energy =   357.4701207000
 Alpha Exchange  Energy =    -4.2806758059
 Beta  Exchange  Energy =    -4.2806758059
 DFT   Exchange  Energy =   -33.9377918875
 DFT Correlation Energy =    -1.6140855155
 Nuclear Repu.   Energy =    90.6501286625
 Nuclear Attr.   Energy = -1568.1613723067
 Kinetic         Energy =   581.5055720541
 <S^2> = 0.0000
 SCF time:  CPU 27.33 s  wall 27.39 s
 Final Alpha MO Eigenvalues
            1           2           3           4           5           6
    1 -66.0944120 -66.0944086  -5.2694231  -5.2693147  -3.6276961  -3.6273134
            7           8           9          10          11          12
    1  -3.6273000  -3.6272611  -3.6272480  -3.6271068  -0.5713795  -0.5100558
           13          14          15          16          17          18
    1  -0.3683220  -0.3683139  -0.3451971  -0.3451284  -0.3004021  -0.0102940
           19          20          21          22
    1  -0.0063365   0.0010615   0.0012658   0.0211378
 Final Beta MO Eigenvalues
            1           2           3           4           5           6
    1 -66.0944120 -66.0944086  -5.2694231  -5.2693147  -3.6276961  -3.6273134
            7           8           9          10          11          12
    1  -3.6273000  -3.6272611  -3.6272480  -3.6271068  -0.5713795  -0.5100558
           13          14          15          16          17          18
    1  -0.3683220  -0.3683139  -0.3451971  -0.3451284  -0.3004021  -0.0102940
           19          20          21          22
    1  -0.0063365   0.0010615   0.0012658   0.0211378
 Analysis of SCF Wavefunction
 
 --------------------------------------------------------------
                    Orbital Energies (a.u.)
 --------------------------------------------------------------
 
 Alpha MOs
 -- Occupied --
-66.094 -66.094  -5.269  -5.269  -3.628  -3.627  -3.627  -3.627
 -3.627  -3.627  -0.571  -0.510  -0.368  -0.368  -0.345  -0.345
 -0.300
 -- Virtual --
 -0.010  -0.006   0.001   0.001   0.021   0.021   0.032   0.032
  0.033   0.043   0.055   0.055   0.089   0.107   0.108   0.108
  0.122   0.123   0.125   0.145   0.145   0.153   0.157   0.218
  0.256   0.257   0.257   0.259   0.259   0.292   0.292   0.316
  0.316   0.354   0.361   0.361   0.401   0.420   0.429   0.450
  0.451   0.465   0.475   0.485   0.493   0.494   0.617   0.618
  0.619   0.632   0.638   0.638   0.651   0.685   0.685   0.700
  0.700   0.738   0.811   0.812   0.832   0.833   0.886   0.886
  0.897   0.929   0.931   0.931   0.938   1.075   1.111   1.115
  1.116   1.118   1.118   1.197   1.197   1.214   1.261   1.262
  1.287   1.307   1.344   1.344   1.371   1.371   1.375   1.499
  1.499   1.500   1.500   1.573   1.691   2.010   2.080   2.081
  2.094   2.102   2.176   2.177   2.218   2.237   2.238   2.316
  2.317   2.321   2.476   2.791   2.791   2.827   2.828   3.038
  3.067   3.530   3.531   3.548   3.550   3.564   3.759   3.760
  3.762   3.763   4.012   4.040   4.040   4.046   4.046   4.053
  4.066   4.093   4.094   4.131   4.132   4.164   4.166   4.306
  4.405   4.454   4.455   4.518   4.519   5.928   6.127  11.434
 11.435  11.461  11.461  11.528  11.682  17.529  17.568  17.569
 17.618  17.630  17.780  17.781  17.817  17.854  17.879  22.208
 22.215  22.219  22.219  22.224  22.231  22.232  22.234  22.245
 22.246  22.246  22.247  22.262  22.273 141.347 141.571
 
 Beta MOs
 -- Occupied --
-66.094 -66.094  -5.269  -5.269  -3.628  -3.627  -3.627  -3.627
 -3.627  -3.627  -0.571  -0.510  -0.368  -0.368  -0.345  -0.345
 -0.300
 -- Virtual --
 -0.010  -0.006   0.001   0.001   0.021   0.021   0.032   0.032
  0.033   0.043   0.055   0.055   0.089   0.107   0.108   0.108
  0.122   0.123   0.125   0.145   0.145   0.153   0.157   0.218
  0.256   0.257   0.257   0.259   0.259   0.292   0.292   0.316
  0.316   0.354   0.361   0.361   0.401   0.420   0.429   0.450
  0.451   0.465   0.475   0.485   0.493   0.494   0.617   0.618
  0.619   0.632   0.638   0.638   0.651   0.685   0.685   0.700
  0.700   0.738   0.811   0.812   0.832   0.833   0.886   0.886
  0.897   0.929   0.931   0.931   0.938   1.075   1.111   1.115
  1.116   1.118   1.118   1.197   1.197   1.214   1.261   1.262
  1.287   1.307   1.344   1.344   1.371   1.371   1.375   1.499
  1.499   1.500   1.500   1.573   1.691   2.010   2.080   2.081
  2.094   2.102   2.176   2.177   2.218   2.237   2.238   2.316
  2.317   2.321   2.476   2.791   2.791   2.827   2.828   3.038
  3.067   3.530   3.531   3.548   3.550   3.564   3.759   3.760
  3.762   3.763   4.012   4.040   4.040   4.046   4.046   4.053
  4.066   4.093   4.094   4.131   4.132   4.164   4.166   4.306
  4.405   4.454   4.455   4.518   4.519   5.928   6.127  11.434
 11.435  11.461  11.461  11.528  11.682  17.529  17.568  17.569
 17.618  17.630  17.780  17.781  17.817  17.854  17.879  22.208
 22.215  22.219  22.219  22.224  22.231  22.232  22.234  22.245
 22.246  22.246  22.247  22.262  22.273 141.347 141.571
 --------------------------------------------------------------
 
          Ground-State Mulliken Net Atomic Charges

     Atom                 Charge (a.u.)    Spin (a.u.)
  --------------------------------------------------------
[...]
            7           8           9          10          11          12
    1  -0.2369944  -0.0001186   0.0713664  -0.1948961  -0.0246342  -0.0356614
    2   0.0000018  -0.1804392  -0.0000085  -0.0248487  -0.2234075  -0.0619475
    3   0.0332885  -0.0000553  -0.3112992  -0.0170307  -0.0293214  -0.3117256
           13          14          15          16          17          18
    1  -0.1950612   0.0245832  -0.0355604  -0.2368587  -0.0001191   0.0713590
    2   0.0247341  -0.2233507   0.0617603   0.0000260  -0.1804379  -0.0000072
    3  -0.0169997   0.0293700  -0.3118082   0.0332433  -0.0000559  -0.3112996
           19          20          21          22          23          24
    1  -0.1948968   0.0245829  -0.0355609  -0.1950656  -0.0246391  -0.0356646
    2   0.0248510  -0.2233518   0.0617551  -0.0247305  -0.2234106  -0.0619508
    3  -0.0170250   0.0293698  -0.3118083  -0.0169956  -0.0293164  -0.3117212
 New transposed dipole drv.
            1           2           3
    1   0.6262770  -0.0000013   0.0007917
    2  -0.0000137   0.6266863   0.0000037
    3  -0.0001015   0.0002041   0.9350846
    4   0.6265047   0.0000001   0.0007346
    5  -0.0000150   0.6267083   0.0000082
    6  -0.0000956   0.0002080   0.9350801
    7  -0.2369944   0.0000018   0.0332885
    8  -0.0001186  -0.1804392  -0.0000553
    9   0.0713664  -0.0000085  -0.3112992
   10  -0.1948961  -0.0248487  -0.0170307
   11  -0.0246342  -0.2234075  -0.0293214
   12  -0.0356614  -0.0619475  -0.3117256
   13  -0.1950612   0.0247341  -0.0169997
   14   0.0245832  -0.2233507   0.0293700
   15  -0.0355604   0.0617603  -0.3118082
   16  -0.2368587   0.0000260   0.0332433
   17  -0.0001191  -0.1804379  -0.0000559
   18   0.0713590  -0.0000072  -0.3112996
   19  -0.1948968   0.0248510  -0.0170250
   20   0.0245829  -0.2233518   0.0293698
   21  -0.0355609   0.0617551  -0.3118083
   22  -0.1950656  -0.0247305  -0.0169956
   23  -0.0246391  -0.2234106  -0.0293164
   24  -0.0356646  -0.0619508  -0.3117212
FINAL TENSOR RESULT:
Order 2, Length 24
Order 1, Length 24
   0.2804162   0.0000003   0.0000726  -0.0216264   0.0000005   0.0001833  -0.1490766   0.0000013   0.0525420  -0.0554104  -0.0556593  -0.0263460  -0.0554080   0.0556595  -0.0263474   0.0004999   0.0000014   0.0107536   0.0003071  -0.0000934  -0.0054302   0.0003095   0.0000940  -0.0054288
Order 1, Length 24
   0.0000003   0.2821170  -0.0000017   0.0000005  -0.0215856  -0.0000026  -0.0000001  -0.0226682  -0.0000001  -0.0557221  -0.1194583  -0.0456449   0.0557238  -0.1194585   0.0456475  -0.0000009   0.0002368  -0.0000000  -0.0000814   0.0004136   0.0094152   0.0000796   0.0004145  -0.0094127
Order 1, Length 24
   0.0000726  -0.0000017   0.2202006   0.0001850  -0.0000026  -0.0982452   0.0459440   0.0000000  -0.0404893  -0.0230883  -0.0399908  -0.0414982  -0.0230899   0.0399923  -0.0415001  -0.0001315   0.0000016   0.0005738   0.0000537  -0.0000924   0.0004759   0.0000547   0.0000936   0.0004753
Order 1, Length 24
  -0.0216264   0.0000005   0.0001850   0.2804121   0.0000003   0.0000724   0.0005029   0.0000014   0.0107522   0.0003077   0.0000949  -0.0054283   0.0003101  -0.0000943  -0.0054297  -0.1490760   0.0000013   0.0525408  -0.0554106   0.0556598  -0.0263472  -0.0554081  -0.0556596  -0.0263458
Order 1, Length 24
   0.0000005  -0.0215856  -0.0000026   0.0000003   0.2821166  -0.0000019  -0.0000003   0.0002367  -0.0000000   0.0000813   0.0004144  -0.0094126  -0.0000799   0.0004136   0.0094151  -0.0000008  -0.0226682  -0.0000001   0.0557219  -0.1194585   0.0456475  -0.0557240  -0.1194583  -0.0456448
Order 1, Length 24
   0.0001833  -0.0000026  -0.0982452   0.0000724  -0.0000019   0.2202006  -0.0001321   0.0000016   0.0005738   0.0000552   0.0000937   0.0004754   0.0000534  -0.0000924   0.0004758   0.0459453   0.0000000  -0.0404894  -0.0230895   0.0399923  -0.0415001  -0.0230888  -0.0399908  -0.0414982
Order 1, Length 24
  -0.1490766  -0.0000001   0.0459440   0.0005029  -0.0000003  -0.0001321   0.1576546  -0.0000003  -0.0515832  -0.0048464  -0.0006077   0.0025310  -0.0048482   0.0006068   0.0025329   0.0003420  -0.0000006  -0.0004223   0.0001329  -0.0000570   0.0005637   0.0001313   0.0000564   0.0005625
Order 1, Length 24
   0.0000013  -0.0226682   0.0000000   0.0000014   0.0002367   0.0000016  -0.0000003   0.0188378   0.0000004  -0.0102681   0.0014765   0.0042864   0.0102668   0.0014780  -0.0042878  -0.0000005   0.0004442   0.0000003  -0.0000135   0.0000978  -0.0004278   0.0000128   0.0000966   0.0004266
Order 1, Length 24
   0.0525420  -0.0000001  -0.0404893   0.0107522  -0.0000000   0.0005738  -0.0515832   0.0000004   0.0365547  -0.0049888  -0.0000853   0.0032674  -0.0049883   0.0000859   0.0032668  -0.0004233   0.0000003  -0.0035842  -0.0006533   0.0002460   0.0002060  -0.0006528  -0.0002454   0.0002067
Order 1, Length 24
  -0.0554104  -0.0557221  -0.0230883   0.0003077   0.0000813   0.0000552  -0.0048464  -0.0102681  -0.0049888   0.0547129   0.0610473   0.0259271   0.0045961   0.0048624   0.0024427   0.0001329   0.0000127  -0.0006534   0.0000852   0.0000271   0.0001005   0.0004201  -0.0000446   0.0002072
Order 1, Length 24
  -0.0556593  -0.1194583  -0.0399908   0.0000949   0.0004144   0.0000937  -0.0006077   0.0014765  -0.0000853   0.0610473   0.1249172   0.0449291  -0.0048633  -0.0079698  -0.0043437   0.0000566   0.0000966  -0.0002454  -0.0000268   0.0001457  -0.0007113  -0.0000442   0.0003713   0.0003573
Order 1, Length 24
  -0.0263460  -0.0456449  -0.0414982  -0.0054283  -0.0094126   0.0004754   0.0025310   0.0042864   0.0032674   0.0259271   0.0449291   0.0376832   0.0024433   0.0043424   0.0032708   0.0005624   0.0004266   0.0002067   0.0001010   0.0007105   0.0002066   0.0002074   0.0003574  -0.0036089
Order 1, Length 24
  -0.0554080   0.0557238  -0.0230899   0.0003101  -0.0000799   0.0000534  -0.0048482   0.0102668  -0.0049883   0.0045961  -0.0048633   0.0024433   0.0547130  -0.0610475   0.0259278   0.0001312  -0.0000136  -0.0006527   0.0004201   0.0000440   0.0002080   0.0000838  -0.0000279   0.0001006
Order 1, Length 24
   0.0556595  -0.1194585   0.0399923  -0.0000943   0.0004136  -0.0000924   0.0006068   0.0014780   0.0000859   0.0048624  -0.0079698   0.0043424  -0.0610475   0.1249168  -0.0449299  -0.0000565   0.0000979   0.0002459   0.0000443   0.0003722  -0.0003588   0.0000281   0.0001456   0.0007105
Order 1, Length 24
  -0.0263474   0.0456475  -0.0415001  -0.0054297   0.0094151   0.0004758   0.0025329  -0.0042878   0.0032668   0.0024427  -0.0043437   0.0032708   0.0259278  -0.0449299   0.0376839   0.0005639  -0.0004278   0.0002060   0.0002078  -0.0003588  -0.0036080   0.0001001  -0.0007112   0.0002066
Order 1, Length 24
   0.0004999  -0.0000009  -0.0001315  -0.1490760  -0.0000008   0.0459453   0.0003420  -0.0000005  -0.0004233   0.0001329   0.0000566   0.0005624   0.0001312  -0.0000565   0.0005639   0.1576574  -0.0000002  -0.0515842  -0.0048464   0.0006069   0.0025330  -0.0048479  -0.0006072   0.0025310
Order 1, Length 24
   0.0000014   0.0002368   0.0000016   0.0000013  -0.0226682   0.0000000  -0.0000006   0.0004442   0.0000003   0.0000127   0.0000966   0.0004266  -0.0000136   0.0000979  -0.0004278  -0.0000002   0.0188377   0.0000004   0.0102670   0.0014780  -0.0042879  -0.0102679   0.0014765   0.0042864
Order 1, Length 24
   0.0107536  -0.0000000   0.0005738   0.0525408  -0.0000001  -0.0404894  -0.0004223   0.0000003  -0.0035842  -0.0006534  -0.0002454   0.0002067  -0.0006527   0.0002459   0.0002060  -0.0515842   0.0000004   0.0365547  -0.0049889   0.0000859   0.0032669  -0.0049882  -0.0000853   0.0032674
Order 1, Length 24
   0.0003071  -0.0000814   0.0000537  -0.0554106   0.0557219  -0.0230895   0.0001329  -0.0000135  -0.0006533   0.0000852  -0.0000268   0.0001010   0.0004201   0.0000443   0.0002078  -0.0048464   0.0102670  -0.0049889   0.0547129  -0.0610469   0.0259276   0.0045961  -0.0048621   0.0024437
Order 1, Length 24
  -0.0000934   0.0004136  -0.0000924   0.0556598  -0.1194585   0.0399923  -0.0000570   0.0000978   0.0002460   0.0000271   0.0001457   0.0007105   0.0000440   0.0003722  -0.0003588   0.0006069   0.0014780   0.0000859  -0.0610469   0.1249167  -0.0449299   0.0048636  -0.0079698   0.0043424
Order 1, Length 24
  -0.0054302   0.0094152   0.0004759  -0.0263472   0.0456475  -0.0415001   0.0005637  -0.0004278   0.0002060   0.0001005  -0.0007113   0.0002066   0.0002080  -0.0003588  -0.0036080   0.0025330  -0.0042879   0.0032669   0.0259276  -0.0449299   0.0376839   0.0024424  -0.0043438   0.0032708
Order 1, Length 24
   0.0003095   0.0000796   0.0000547  -0.0554081  -0.0557240  -0.0230888   0.0001313   0.0000128  -0.0006528   0.0004201  -0.0000442   0.0002074   0.0000838   0.0000281   0.0001001  -0.0048479  -0.0102679  -0.0049882   0.0045961   0.0048636   0.0024424   0.0547130   0.0610479   0.0259273
Order 1, Length 24
   0.0000940   0.0004145   0.0000936  -0.0556596  -0.1194583  -0.0399908   0.0000564   0.0000966  -0.0002454  -0.0000446   0.0003713   0.0003574  -0.0000279   0.0001456  -0.0007112  -0.0006072   0.0014765  -0.0000853  -0.0048621  -0.0079698  -0.0043438   0.0610479   0.1249173   0.0449291
Order 1, Length 24
  -0.0054288  -0.0094127   0.0004753  -0.0263458  -0.0456448  -0.0414982   0.0005625   0.0004266   0.0002067   0.0002072   0.0003573  -0.0036089   0.0001006   0.0007105   0.0002066   0.0025310   0.0042864   0.0032674   0.0024437   0.0043424   0.0032708   0.0259273   0.0449291   0.0376832


 # Finishing finite difference calculation for IDERIV #
 ######################################################
 ######################################################
 Requested basis set is G3large
 There are 74 shells and 192 basis functions
 **********************************************************************
 **                                                                  **
 **                       VIBRATIONAL ANALYSIS                       **
 **                       --------------------                       **
 **                                                                  **
 **        VIBRATIONAL FREQUENCIES (CM**-1) AND NORMAL MODES         **
 **     FORCE CONSTANTS (mDYN/ANGSTROM) AND REDUCED MASSES (AMU)     **
 **                  INFRARED INTENSITIES (KM/MOL)                   **
 **                                                                  **
 **********************************************************************
 

 Mode:                 1                      2                      3
 Frequency:        87.92                 368.68                 388.36
 Force Cnst:      0.0046                 0.0825                 0.0916
 Red. Mass:       1.0078                 1.0301                 1.0308
 IR Active:          YES                    YES                    YES
 IR Intens:        0.008                 21.375                 22.236
 Raman Active:       YES                    YES                    YES
               X      Y      Z        X      Y      Z        X      Y      Z
 Si         0.000  0.000  0.000   -0.020  0.000 -0.001    0.000  0.021  0.000
 Si         0.000  0.000  0.000   -0.020  0.000 -0.001    0.000  0.021  0.000
 H          0.000  0.413  0.000    0.179  0.000  0.520    0.000 -0.205  0.000
 H          0.351 -0.203 -0.001    0.192 -0.014 -0.247    0.017 -0.184  0.441
 H         -0.351 -0.203  0.001    0.192  0.013 -0.248   -0.017 -0.184 -0.441
 H          0.000  0.413  0.000    0.179  0.000  0.520    0.000 -0.205  0.000
 H         -0.351 -0.203  0.001    0.192  0.013 -0.248   -0.017 -0.184 -0.441
 H          0.351 -0.203 -0.001    0.192 -0.014 -0.247    0.017 -0.184  0.441
 TransDip   0.000 -0.003  0.000   -0.147  0.000 -0.016    0.000  0.151  0.000

 Mode:                 4                      5                      6
 Frequency:       422.20                 629.17                 639.20
 Force Cnst:      0.7452                 0.2814                 0.2914
 Red. Mass:       7.0957                 1.2067                 1.2106
 IR Active:          YES                    YES                    YES
 IR Intens:        0.000                  0.000                  0.000
 Raman Active:       YES                    YES                    YES
               X      Y      Z        X      Y      Z        X      Y      Z
 Si         0.001  0.000 -0.336   -0.061  0.000 -0.002    0.000  0.061  0.000
 Si        -0.001  0.000  0.336    0.061  0.000  0.002    0.000 -0.061  0.000
 H         -0.011  0.000 -0.365    0.145  0.000  0.523    0.000 -0.234  0.000
 H          0.003  0.008 -0.356    0.196 -0.038 -0.246    0.042 -0.161  0.439
 H          0.003 -0.008 -0.356    0.196  0.037 -0.247   -0.042 -0.161 -0.439
 H          0.011  0.000  0.365   -0.145  0.000 -0.523    0.000  0.234  0.000
 H         -0.003  0.008  0.356   -0.196 -0.037  0.247    0.042  0.161  0.439
 H         -0.003 -0.008  0.356   -0.196  0.038  0.246   -0.042  0.161 -0.439
 TransDip   0.000  0.000  0.000    0.000  0.000  0.000    0.000  0.000  0.000

 Mode:                 7                      8                      9
 Frequency:       856.81                 929.30                 937.14
 Force Cnst:      0.4757                 0.5634                 0.5290
 Red. Mass:       1.0998                 1.1073                 1.0224
 IR Active:          YES                    YES                    YES
 IR Intens:      515.706                  0.000                  0.000
 Raman Active:       YES                    YES                    YES
               X      Y      Z        X      Y      Z        X      Y      Z
 Si         0.001  0.000 -0.041    0.006  0.000 -0.042    0.000 -0.016  0.000
 Si         0.001  0.000 -0.041   -0.006  0.000  0.042    0.000  0.016  0.000
 H          0.140  0.000  0.374    0.169  0.000  0.415    0.000  0.513  0.000
 H         -0.084 -0.116  0.386   -0.179 -0.051  0.338   -0.264  0.054  0.214
 H         -0.084  0.116  0.386   -0.179  0.051  0.338    0.264  0.054 -0.214
 H          0.140  0.000  0.374   -0.169  0.000 -0.415    0.000 -0.513  0.000
 H         -0.084  0.116  0.386    0.179 -0.051 -0.338   -0.264 -0.054  0.214
 H         -0.084 -0.116  0.386    0.179  0.051 -0.338    0.265 -0.054 -0.214
 TransDip   0.010  0.000 -0.727    0.000  0.000  0.000    0.000  0.000  0.000

 Mode:                10                     11                     12
 Frequency:       939.56                 949.74                 953.39
 Force Cnst:      0.5358                 0.5518                 0.5565
 Red. Mass:       1.0301                 1.0383                 1.0391
 IR Active:          YES                    YES                    YES
 IR Intens:        0.000                 82.215                 83.750
 Raman Active:       YES                    YES                    YES
               X      Y      Z        X      Y      Z        X      Y      Z
 Si        -0.017  0.000 -0.011    0.000 -0.024  0.000   -0.024  0.000 -0.001
 Si         0.017  0.000  0.011    0.000 -0.024  0.000   -0.024  0.000 -0.001
 H         -0.054  0.000 -0.132    0.000  0.529  0.000   -0.087 -0.001 -0.187
 H          0.332 -0.290  0.212   -0.273  0.065  0.176    0.377 -0.274  0.106
 H          0.332  0.291  0.211    0.273  0.066 -0.176    0.377  0.274  0.107
 H          0.054  0.000  0.132    0.000  0.529  0.000   -0.087 -0.001 -0.187
 H         -0.332 -0.291 -0.211    0.273  0.066 -0.176    0.377  0.274  0.107
 H         -0.332  0.291 -0.211   -0.272  0.065  0.176    0.377 -0.274  0.106
 TransDip   0.000  0.000  0.000    0.000 -0.290  0.000   -0.293  0.000 -0.017

 Mode:                13                     14                     15
 Frequency:      2183.91                2186.15                2201.50
 Force Cnst:      2.8756                 2.9235                 2.9442
 Red. Mass:       1.0233                 1.0382                 1.0310
 IR Active:          YES                    YES                    YES
 IR Intens:      126.725                  0.001                  0.000
 Raman Active:       YES                    YES                    YES
               X      Y      Z        X      Y      Z        X      Y      Z
 Si        -0.011  0.000  0.013    0.022  0.000 -0.009   -0.017  0.000 -0.012
 Si        -0.011  0.000  0.013   -0.022  0.000  0.009    0.017  0.000  0.012
 H          0.565  0.000 -0.198   -0.659  0.000  0.245    0.027  0.000 -0.017
 H         -0.130 -0.220 -0.081    0.021  0.021  0.006    0.229  0.408  0.171
 H         -0.130  0.220 -0.081    0.021 -0.021  0.006    0.231 -0.410  0.172
 H          0.561  0.000 -0.197    0.663  0.000 -0.247   -0.027  0.000  0.017
 H         -0.130  0.220 -0.081   -0.022  0.022 -0.007   -0.231  0.410 -0.172
 H         -0.130 -0.220 -0.081   -0.022 -0.022 -0.007   -0.229 -0.407 -0.170
 TransDip  -0.172  0.000  0.317    0.000  0.000  0.001    0.000  0.000  0.000

 Mode:                16                     17                     18
 Frequency:      2202.93                2204.83                2212.70
 Force Cnst:      3.0028                 2.9995                 3.0358
 Red. Mass:       1.0502                 1.0472                 1.0524
 IR Active:          YES                    YES                    YES
 IR Intens:        0.002                183.901                196.224
 Raman Active:       YES                    YES                    YES
               X      Y      Z        X      Y      Z        X      Y      Z
 Si         0.000  0.028  0.000   -0.026  0.000 -0.005    0.000 -0.029  0.000
 Si         0.000 -0.028  0.000   -0.026  0.000 -0.005    0.000 -0.029  0.000
 H          0.001  0.011  0.000    0.345  0.000 -0.137   -0.001 -0.008  0.000
 H         -0.239 -0.402 -0.177    0.196  0.351  0.145    0.237  0.402  0.175
 H          0.238 -0.401  0.176    0.194 -0.347  0.143   -0.238  0.403 -0.176
 H          0.001 -0.011  0.000    0.346  0.000 -0.137    0.000 -0.008  0.000
 H         -0.237  0.399 -0.175    0.195 -0.350  0.144   -0.238  0.403 -0.176
 H          0.240  0.405  0.178    0.194  0.349  0.144    0.237  0.403  0.176
 TransDip  -0.001  0.000  0.000   -0.413 -0.001 -0.133    0.000 -0.449  0.000

 STANDARD THERMODYNAMIC QUANTITIES AT   298.18 K  AND     1.00 ATM

   This Molecule has  0 Imaginary Frequencies
   Zero point vibrational energy:       30.441 kcal/mol

   Atom    1 Element Si Has Mass   27.97693
   Atom    2 Element Si Has Mass   27.97693
   Atom    3 Element H  Has Mass    1.00783
   Atom    4 Element H  Has Mass    1.00783
   Atom    5 Element H  Has Mass    1.00783
   Atom    6 Element H  Has Mass    1.00783
   Atom    7 Element H  Has Mass    1.00783
   Atom    8 Element H  Has Mass    1.00783
   Molecular Mass:    62.000840 amu
   Principal axes and moments of inertia in atomic units:
                             1           2           3
    Eigenvalues --       41.74724   358.10253   358.11051
          X              -0.00069     0.00001     1.00000
          Y               0.00000     1.00000    -0.00001
          Z               1.00000     0.00000     0.00069
   Rotational Symmetry Number is   1
   The Molecule is an Asymmetric Top
   Translational Enthalpy:        0.889 kcal/mol
   Rotational Enthalpy:           0.889 kcal/mol
   Vibrational Enthalpy:         31.877 kcal/mol
   gas constant (RT):             0.593 kcal/mol
   Translational Entropy:        38.293  cal/mol.K
   Rotational Entropy:           23.197  cal/mol.K
   Vibrational Entropy:           8.233  cal/mol.K

   Total Enthalpy:               34.247 kcal/mol
   Total Entropy:                69.723  cal/mol.K
 Total job time:  6193.28s(wall), 6180.13s(cpu) 
 Wed Jul 24 17:54:19 2013

        *************************************************************
        *                                                           *
        *  Thank you very much for using Q-Chem.  Have a nice day.  *
        *                                                           *
        *************************************************************


0 sent ACK to 0 
now end server 0 ... 
